
 Primary working directories    : /global/cscratch1/sd/aannabe
 Secondary working directories  : /global/cscratch1/sd/aannabe
 Wavefunction directory         : /global/homes/a/aannabe/wfu/
 Main file repository           : /global/cscratch1/sd/aannabe/

 SHA1      : 2873118e99aab1bc19f5b6fc1784693c06d15c95
 NAME      : 2015.1.8
 ARCHNAME  : linux/x86_64
 FC        : /opt/cray/pe/craype/2.5.5/bin/ftn
 BLASLIB   : -Wl,-_start-group /opt/intel/compilers_and_libraries_2016.3.210/linux/mkl/lib/intel64/libmkl_intel_ilp64.a /opt/intel/compilers_and_libraries_2016.3.210/linux/mkl/lib/intel64/libmkl_intel_thread.a /opt/intel/compilers_and_libraries_2016.3.210/linux/mkl/lib/intel64/libmkl_core.a -Wl,-_end-group
 id        : lbl

 Nodes     nprocs
 nid00486     1

 Using customized tuning parameters: mindgm=8; mindgv=16; mindgc=4; mindgr=1; noblas=0; minvec=7
 default implementation of scratch files=df  

 ***,F
 memory,8,g
 gthresh,twoint=1.e-12
 
 gprint,basis,orbitals
 gexpec,ekin,pot
 
 angstrom
 geometry={
 1                                                                               ! Number of atoms
 F 0.0 0.0 0.0
 }
 
 basis={
 Including file /global/homes/a/aannabe/docs/accurate/ccECP_Kh/pps/F.pp
 Including file /global/homes/a/aannabe/docs/accurate/ccECP_Kh/basis/aug-cc-pVnZ/F_tz.basis
 }
 
 {rhf
  start,atden
  wf,7,3,1
  occ,1,1,1,0,1,0,0,0
  open,1.3
  orbital,4202.2
 }
 {multi
  maxiter,40
  start,4202.2
  occ,1,1,1,0,1,0,0,0
  closed,1,0,0,0,0,0,0
  wf,7,3,1;state,1
  wf,7,5,1;state,1
  wf,7,2,1;state,1
  natorb,ci,print
  orbital,5202.2
 }
 {rhf,nitord=1,maxit=0
  start,5202.2
  wf,7,3,1
  occ,1,1,1,0,1,0,0,0
  open,1.3
 }
 
 scf(i)=energy
 
 _CC_NORM_MAX=2.0
  !NOTE: Perturbative MRCC works only with UHF reference. So, here we will trick MRCC by doing zero UHF iteration right after ROHF.
 
 {uhf
 maxit,0
 }
 scf(i)=energy
 
 {mrcc,method=CCSDT(Q)
 orbital,ignore_error=1                                                          !Ignore the fact that UHF WF is not converged
 maxit,100
 core
 }
 posthf(i)=energy
 
 table,scf,posthf,ekin,pot
 save,3.csv,new
 
 

 Variables initialized (889), CPU time= 0.00 sec
 Commands  initialized (702), CPU time= 0.00 sec, 572 directives.
 Default parameters read. Elapsed time= 0.15 sec

 Checking input...
 Passed
1


                                         ***  PROGRAM SYSTEM MOLPRO  ***
                                       Copyright, TTI GmbH Stuttgart, 2015
                                    Version 2015.1 linked Sep  7 2016 23:09:38


 **********************************************************************************************************************************
 LABEL *   F                                                                             
  64 bit serial version                                                                  DATE: 30-Oct-18          TIME: 13:27:44  
 **********************************************************************************************************************************

 SHA1:             2873118e99aab1bc19f5b6fc1784693c06d15c95
 **********************************************************************************************************************************

 THRESHOLDS:

 ZERO    =  1.00D-12  ONEINT  =  1.00D-12  TWOINT  =  1.00D-12  PREFAC  =  1.00D-14  LOCALI  =  1.00D-09  EORDER  =  1.00D-04
 ENERGY  =  0.00D+00  ETEST   =  0.00D+00  EDENS   =  0.00D+00  THRDEDEF=  1.00D-06  GRADIENT=  1.00D-02  STEP    =  1.00D-03
 ORBITAL =  1.00D-05  CIVEC   =  1.00D-05  COEFF   =  1.00D-04  PRINTCI =  5.00D-02  PUNCHCI =  9.90D+01  OPTGRAD =  3.00D-04
 OPTENERG=  1.00D-06  OPTSTEP =  3.00D-04  THRGRAD =  1.00D-10  COMPRESS=  1.00D-11  VARMIN  =  1.00D-07  VARMAX  =  1.00D-03
 THRDOUB =  0.00D+00  THRDIV  =  1.00D-05  THRRED  =  1.00D-07  THRPSP  =  1.00D+00  THRDC   =  1.00D-10  THRCS   =  1.00D-10
 THRNRM  =  1.00D-08  THREQ   =  0.00D+00  THRDE   =  1.00D+00  THRREF  =  1.00D-05  SPARFAC =  1.00D+00  THRDLP  =  1.00D-07
 THRDIA  =  1.00D-10  THRDLS  =  1.00D-07  THRGPS  =  0.00D+00  THRKEX  =  0.00D+00  THRDIS  =  2.00D-01  THRVAR  =  1.00D-10
 THRLOC  =  1.00D-06  THRGAP  =  1.00D-06  THRLOCT = -1.00D+00  THRGAPT = -1.00D+00  THRORB  =  1.00D-06  THRMLTP =  0.00D+00
 THRCPQCI=  1.00D-10  KEXTA   =  0.00D+00  THRCOARS=  0.00D+00  SYMTOL  =  1.00D-06  GRADTOL =  1.00D-06  THROVL  =  1.00D-08
 THRORTH =  1.00D-08  GRID    =  1.00D-06  GRIDMAX =  1.00D-03  DTMAX   =  0.00D+00  THROCCDE=  1.00D-01  THROCCDE=  1.00D-01



 ZUNIT=ANG
 

Geometry recognized as XYZ


 Variable memory set to 8000000000 words,  buffer space   230000 words

 SETTING BASIS          =    USERDEF


 Recomputing integrals since basis changed


 Using spherical harmonics



 PROGRAM * SEWARD (Integral evaluation for generally contracted gaussian basis sets)     Author: Roland Lindh, 1990

 Geometry written to block  1 of record 700

 Orientation using atomic masses  
 Molecule type: Atom
 Symmetry elements: X,Y,Z
 Rotational constants:       0.0000000      0.0000000      0.0000000 GHz  (calculated with average atomic masses)

 Point group  D2h 



 ATOMIC COORDINATES

 NR  ATOM    CHARGE       X              Y              Z

   1  F       7.00    0.000000000    0.000000000    0.000000000


          F   CORE POTENTIAL

          p POTENTIAL

 POWERS             1              3              2
 EXPONENTIALS   11.39544       10.49202       10.28681    
 COEFFICIENTS   7.000000       79.76808      -49.49901    

          s - p POTENTIAL

 POWERS             2
 EXPONENTIALS   11.39035    
 COEFFICIENTS   51.39347    


 BASIS DATA

   Nr Sym  Nuc  Type         Exponents   Contraction coefficients

    1.1 Ag    1  1s          71.173909    -0.000057
                             33.399038     0.000363
                             15.672819     0.009533
                              7.354620    -0.127065
                              3.451226     0.011527
                              1.619521     0.290584
                              0.759976     0.448567
                              0.356626     0.312306
                              0.167350     0.065625
    2.1 Ag    1  1s           2.289795     1.000000
    3.1 Ag    1  1s           0.327712     1.000000
    4.1 Ag    1  1s           0.131085     1.000000
    5.1 Ag    1  3d0          3.297425     1.000000
    6.1 Ag    1  3d2+         3.297425     1.000000
    7.1 Ag    1  3d0          0.900763     1.000000
    8.1 Ag    1  3d2+         0.900763     1.000000
    9.1 Ag    1  3d0          0.360305     1.000000
   10.1 Ag    1  3d2+         0.360305     1.000000
    1.2 B3u   1  2px         27.863051     0.003758
                             13.662475     0.043495
                              6.699310     0.093050
                              3.284965     0.177293
                              1.610762     0.261759
                              0.789827     0.289687
                              0.387287     0.243341
                              0.189904     0.125496
                              0.093118     0.026843
    2.2 B3u   1  2px          0.804181     1.000000
    3.2 B3u   1  2px          0.243660     1.000000
    4.2 B3u   1  2px          0.097464     1.000000
    5.2 B3u   1  4f1+         1.859274     1.000000
    6.2 B3u   1  4f3+         1.859274     1.000000
    7.2 B3u   1  4f1+         0.743710     1.000000
    8.2 B3u   1  4f3+         0.743710     1.000000
    1.3 B2u   1  2py         27.863051     0.003758
                             13.662475     0.043495
                              6.699310     0.093050
                              3.284965     0.177293
                              1.610762     0.261759
                              0.789827     0.289687
                              0.387287     0.243341
                              0.189904     0.125496
                              0.093118     0.026843
    2.3 B2u   1  2py          0.804181     1.000000
    3.3 B2u   1  2py          0.243660     1.000000
    4.3 B2u   1  2py          0.097464     1.000000
    5.3 B2u   1  4f1-         1.859274     1.000000
    6.3 B2u   1  4f3-         1.859274     1.000000
    7.3 B2u   1  4f1-         0.743710     1.000000
    8.3 B2u   1  4f3-         0.743710     1.000000
    1.4 B1g   1  3d2-         3.297425     1.000000
    2.4 B1g   1  3d2-         0.900763     1.000000
    3.4 B1g   1  3d2-         0.360305     1.000000
    1.5 B1u   1  2pz         27.863051     0.003758
                             13.662475     0.043495
                              6.699310     0.093050
                              3.284965     0.177293
                              1.610762     0.261759
                              0.789827     0.289687
                              0.387287     0.243341
                              0.189904     0.125496
                              0.093118     0.026843
    2.5 B1u   1  2pz          0.804181     1.000000
    3.5 B1u   1  2pz          0.243660     1.000000
    4.5 B1u   1  2pz          0.097464     1.000000
    5.5 B1u   1  4f0          1.859274     1.000000
    6.5 B1u   1  4f2+         1.859274     1.000000
    7.5 B1u   1  4f0          0.743710     1.000000
    8.5 B1u   1  4f2+         0.743710     1.000000
    1.6 B2g   1  3d1+         3.297425     1.000000
    2.6 B2g   1  3d1+         0.900763     1.000000
    3.6 B2g   1  3d1+         0.360305     1.000000
    1.7 B3g   1  3d1-         3.297425     1.000000
    2.7 B3g   1  3d1-         0.900763     1.000000
    3.7 B3g   1  3d1-         0.360305     1.000000
    1.8 Au    1  4f2-         1.859274     1.000000
    2.8 Au    1  4f2-         0.743710     1.000000

 NUCLEAR CHARGE:                    7
 NUMBER OF PRIMITIVE AOS:          86
 NUMBER OF SYMMETRY AOS:           77
 NUMBER OF CONTRACTIONS:           45   (  10Ag  +   8B3u +   8B2u +   3B1g +   8B1u +   3B2g +   3B3g +   2Au  )
 NUMBER OF CORE ORBITALS:           0   (   0Ag  +   0B3u +   0B2u +   0B1g +   0B1u +   0B2g +   0B3g +   0Au  )
 NUMBER OF VALENCE ORBITALS:        4   (   1Ag  +   1B3u +   1B2u +   0B1g +   1B1u +   0B2g +   0B3g +   0Au  )


 NUCLEAR REPULSION ENERGY    0.00000000

 EXTRA SYMMETRY OF AOS IN SYMMETRY 1:   1 1 1 1 2 3 2 3 2 3
 EXTRA SYMMETRY OF AOS IN SYMMETRY 2:   1 1 1 1 2 3 2 3
 EXTRA SYMMETRY OF AOS IN SYMMETRY 3:   1 1 1 1 2 3 2 3
 EXTRA SYMMETRY OF AOS IN SYMMETRY 5:   1 1 1 1 2 3 2 3

 Eigenvalues of metric

         1 0.147E-01 0.147E+00 0.210E+00 0.210E+00 0.759E+00 0.846E+00 0.846E+00 0.194E+01
         2 0.560E-01 0.139E+00 0.367E+00 0.367E+00 0.885E+00 0.163E+01 0.163E+01 0.292E+01
         3 0.560E-01 0.139E+00 0.367E+00 0.367E+00 0.885E+00 0.163E+01 0.163E+01 0.292E+01
         4 0.210E+00 0.846E+00 0.194E+01
         5 0.560E-01 0.139E+00 0.367E+00 0.367E+00 0.885E+00 0.163E+01 0.163E+01 0.292E+01
         6 0.210E+00 0.846E+00 0.194E+01
         7 0.210E+00 0.846E+00 0.194E+01
         8 0.367E+00 0.163E+01


 Contracted 2-electron integrals neglected if value below      1.0D-12
 AO integral compression algorithm  1   Integral accuracy      1.0D-12

     1.049 MB (compressed) written to integral file ( 99.8%)


 NUMBER OF SORTED TWO-ELECTRON INTEGRALS:      75808.     BUFFER LENGTH:  32768
 NUMBER OF SEGMENTS:   1  SEGMENT LENGTH:      75808      RECORD LENGTH: 524288

 Memory used in sort:       0.63 MW

 SORT1 READ      155797. AND WROTE       61548. INTEGRALS IN      1 RECORDS. CPU TIME:     0.01 SEC, REAL TIME:     0.01 SEC
 SORT2 READ       61548. AND WROTE       75808. INTEGRALS IN      4 RECORDS. CPU TIME:     0.02 SEC, REAL TIME:     0.03 SEC

 FILE SIZES:   FILE 1:    20.2 MBYTE,  FILE 4:     4.2 MBYTE,   TOTAL:     24.4 MBYTE

 OPERATOR DM      FOR CENTER  0  COORDINATES:    0.000000    0.000000    0.000000
 OPERATOR EKIN    FOR CENTER  0  COORDINATES:    0.000000    0.000000    0.000000
 OPERATOR POT     FOR CENTER  0  COORDINATES:    0.000000    0.000000    0.000000


 **********************************************************************************************************************************
 DATASETS  * FILE   NREC   LENGTH (MB)   RECORD NAMES
              1      20       19.61       500      610      700      900      950      970     1000      129      960     1100   
                                          VAR    BASINP    GEOM    SYMINP    ZMAT    AOBASIS   BASIS     P2S    ABASIS      S 
                                         1400     1410     1420     1200     1210     1080     1600     1650     1300     1700   
                                         EKIN       V       ECP      H0       H01     AOSYM     SMH    MOLCAS    ERIS     OPER   

 PROGRAMS   *        TOTAL       INT
 CPU TIMES  *         2.25      2.12
 REAL TIME  *        14.14 SEC
 DISK USED  *        24.67 MB      
 **********************************************************************************************************************************


 PROGRAM * RHF-SCF (OPEN SHELL)       Authors: W. Meyer, H.-J. Werner


 NUMBER OF ELECTRONS:       4+    3-    SPACE SYMMETRY=3    SPIN SYMMETRY: Doublet 
 CONVERGENCE THRESHOLDS:    1.00E-05 (Density)    1.00E-07 (Energy)
 MAX. NUMBER OF ITERATIONS:       60
 INTERPOLATION TYPE:            DIIS
 INTERPOLATION STEPS:              2 (START)      1 (STEP)
 LEVEL SHIFTS:                 -0.60 (CLOSED) -0.30 (OPEN) 


 Singly occupied orbitals:      1.3

   Atom=F  basis=ECP2MWB_GUESS     lmin=0  lmax=1

 Orbital guess generated from atomic densities. Full valence occupancy:    1   1   1   0   1   0   0   0


 Molecular orbital dump at record        4202.2

 ITERATION    DDIFF          GRAD             ENERGY        2-EL.EN.            DIPOLE MOMENTS         DIIS   ORB.
    1      0.000D+00      0.000D+00       -23.90246225     33.794106    0.00000    0.00000    0.00000    0    start
    2      0.000D+00      0.151D-01       -23.90743203     34.269643    0.00000    0.00000    0.00000    1    diag,B
    3      0.992D-02      0.381D-02       -23.90776771     34.236879    0.00000    0.00000    0.00000    2    diag,B
    4      0.263D-02      0.111D-02       -23.90786036     34.248046    0.00000    0.00000    0.00000    3    diag,B
    5      0.122D-02      0.339D-03       -23.90787049     34.248090    0.00000    0.00000    0.00000    4    diag,B
    6      0.550D-03      0.477D-04       -23.90787064     34.247486    0.00000    0.00000    0.00000    5    diag,B
    7      0.545D-04      0.120D-04       -23.90787065     34.247328    0.00000    0.00000    0.00000    6    fixocc
    8      0.184D-04      0.188D-05       -23.90787065     34.247285    0.00000    0.00000    0.00000    7    diag,B
    9      0.307D-05      0.296D-06       -23.90787065     34.247287    0.00000    0.00000    0.00000    0    orth

 Final alpha occupancy:   1   1   1   0   1   0   0   0
 Final beta  occupancy:   1   1   0   0   1   0   0   0

 !RHF STATE 1.3 Energy                -23.907870651803
 Nuclear energy                         0.00000000
 One-electron energy                  -41.03151430
 Two-electron energy                   17.12364365
 Virial quotient                       -1.28986731
 !RHF STATE 1.3 Dipole moment           0.00000000     0.00000000     0.00000000
 Dipole moment /Debye                   0.00000000     0.00000000     0.00000000
 

 !RHF expec          <1.3|EKIN|1.3>    18.535139561424
 
 !RHF expec           <1.3|POT|1.3>    -8.841239594418

 ELECTRON ORBITALS
 =================


   Orb  Occ    Energy  Couls-En    Coefficients

                                   1 1s      1 1s      1 1s      1 1s      1 3d0     1 3d2+    1 3d0     1 3d2+    1 3d0     1 3d2+ 


   1.1   2    -1.5591   -7.9873  1.000047  0.000005 -0.000100  0.000049  0.000451  0.000781  0.000281  0.000487  0.001670  0.002893

                                   1 2px     1 2px     1 2px     1 2px     1 4f1+    1 4f3+    1 4f1+    1 4f3+ 

   1.2   2    -0.7074   -6.3245  0.999999  0.000091 -0.000064 -0.000112 -0.000551 -0.002134 -0.000527 -0.002040

                                   1 2py     1 2py     1 2py     1 2py     1 4f1-    1 4f3-    1 4f1-    1 4f3- 

   1.3   +    -0.8366   -6.5430  1.032933  0.001200 -0.040326 -0.015645 -0.003651 -0.004714 -0.002967 -0.003831

                                   1 2pz     1 2pz     1 2pz     1 2pz     1 4f0     1 4f2+    1 4f0     1 4f2+ 

   1.5   2    -0.7074   -6.3245  0.999999  0.000091 -0.000064 -0.000112 -0.001350 -0.001742 -0.001290 -0.001665

 HOMO      1.2    -0.707381 =     -19.2488eV
 LUMO      2.3     0.234254 =       6.3744eV
 LUMO-HOMO         0.941635 =      25.6232eV


 **********************************************************************************************************************************
 DATASETS  * FILE   NREC   LENGTH (MB)   RECORD NAMES
              1      20       19.61       500      610      700      900      950      970     1000      129      960     1100   
                                          VAR    BASINP    GEOM    SYMINP    ZMAT    AOBASIS   BASIS     P2S    ABASIS      S 
                                         1400     1410     1420     1200     1210     1080     1600     1650     1300     1700   
                                         EKIN       V       ECP      H0       H01     AOSYM     SMH    MOLCAS    ERIS     OPER   

              2       4        2.76       700     1000      520     4202   
                                         GEOM     BASIS   MCVARS     RHF  

 PROGRAMS   *        TOTAL       RHF       INT
 CPU TIMES  *         2.28      0.04      2.12
 REAL TIME  *        17.39 SEC
 DISK USED  *        24.67 MB      
 **********************************************************************************************************************************


 PROGRAM * MULTI (Direct Multiconfiguration SCF)       Authors: P.J. Knowles, H.-J. Werner (1984)     S.T. Elbert (1988)


 Number of closed-shell orbitals:   1 (   1   0   0   0   0   0   0   0 )
 Number of active  orbitals:        3 (   0   1   1   0   1   0   0   0 )
 Number of external orbitals:      41 (   9   7   7   3   7   3   3   2 )

 State symmetry 1

 Number of electrons:     5    Spin symmetry=Doublet   Space symmetry=3
 Number of states:        1
 Number of CSFs:          1   (1 determinants, 3 intermediate states)

 State symmetry 2

 Number of electrons:     5    Spin symmetry=Doublet   Space symmetry=5
 Number of states:        1
 Number of CSFs:          1   (1 determinants, 3 intermediate states)

 State symmetry 3

 Number of electrons:     5    Spin symmetry=Doublet   Space symmetry=2
 Number of states:        1
 Number of CSFs:          1   (1 determinants, 3 intermediate states)

 Iteration controls:
             1  2  3  4  5  6  7  8  9 10 11 12 13 14 15 16 17 18 19 20 21 22 23 24 25 26 27 28 29 30 31 32 33 34 35 36 37 38 39
 DIAGCI      T  T  T  T  T  T  T  T  T  T  T  T  T  T  T  T  T  T  T  T  T  T  T  T  T  T  T  T  T  T  T  T  T  T  T  T  T  T  T
 WERNER      T  T  T  T  T  T  T  T  T  T  T  T  T  T  T  T  T  T  T  T  T  T  T  T  T  T  T  T  T  T  T  T  T  T  T  T  T  T  T
 INTERNAL    F  T  T  T  T  T  T  T  T  T  T  T  T  T  T  T  T  T  T  T  T  T  T  T  T  T  T  T  T  T  T  T  T  T  T  T  T  T  T

 Molecular orbitals read from record     4202.2  Type=RHF/CANONICAL (state 1.3)
 *** IN SYMMETRY 1 ORBITAL  1 SYMMETRY CONTAMINATION OF 0.652D-02 HAS BEEN REMOVED

 EXTRA SYMMETRY OF MOS IN SYMMETRY 1:   1 1 3 2 1 3 2 3 2 1
 *** IN SYMMETRY 2 ORBITAL  1 SYMMETRY CONTAMINATION OF 0.522D-02 HAS BEEN REMOVED
 EXTRA SYMMETRY OF MOS IN SYMMETRY 2:   1 1 1 3 2 1 3 2
 *** IN SYMMETRY 3 ORBITAL  1 SYMMETRY CONTAMINATION OF 0.137D-01 HAS BEEN REMOVED
 EXTRA SYMMETRY OF MOS IN SYMMETRY 3:   1 1 1 3 2 1 3 2
 *** IN SYMMETRY 5 ORBITAL  1 SYMMETRY CONTAMINATION OF 0.601D-02 HAS BEEN REMOVED
 EXTRA SYMMETRY OF MOS IN SYMMETRY 5:   1 1 1 3 2 1 3 2

 Wavefunction dump at record             5202.2

 Convergence thresholds  0.10E-01 (gradient)  0.10E-05 (energy)  0.10E-02 (step length)

 Weight factors for state symmetry  1:    0.33333
 Weight factors for state symmetry  2:    0.33333
 Weight factors for state symmetry  3:    0.33333

 Number of orbital rotations:       30   (     0 Core/Active      9 Core/Virtual   0 Active/Active     21 Active/Virtual)
 Total number of variables:         33


 ITER. MIC  NCI  NEG     ENERGY(VAR)     ENERGY(PROJ)   ENERGY CHANGE     GRAD(0)  GRAD(ORB)   GRAD(CI)     STEP       TIME

   1   31   12    0     -23.90406416     -23.90587858   -0.00181443    0.06001743 0.00000000 0.00000000  0.34D-01      0.00
   2   15   12    0     -23.90587959     -23.90587962   -0.00000003    0.00038470 0.00000000 0.00000000  0.10D-03      0.02

 ** WVFN ****  CONVERGENCE REACHED, FINAL GRADIENT:  0.12D-07



 Results for state 1.3
 =====================

 !MCSCF STATE 1.3 Energy              -23.905879624435
 Nuclear energy                         0.00000000
 Kinetic energy                        18.53356163
 One electron energy                  -41.03567104
 Two electron energy                   17.12979141
 Virial ratio                           2.28986970

 !MCSCF STATE 1.3 Dipole moment         0.00000000     0.00000000     0.00000000
 Dipole moment /Debye                   0.00000000     0.00000000     0.00000000



 Results for state 1.5
 =====================

 !MCSCF STATE 1.5 Energy              -23.905879624428
 Nuclear energy                         0.00000000
 Kinetic energy                        18.53356163
 One electron energy                  -41.03567104
 Two electron energy                   17.12979141
 Virial ratio                           2.28986970

 !MCSCF STATE 1.5 Dipole moment         0.00000000     0.00000000     0.00000000
 Dipole moment /Debye                   0.00000000     0.00000000     0.00000000



 Results for state 1.2
 =====================

 !MCSCF STATE 1.2 Energy              -23.905879624428
 Nuclear energy                         0.00000000
 Kinetic energy                        18.53356163
 One electron energy                  -41.03567104
 Two electron energy                   17.12979141
 Virial ratio                           2.28986970

 !MCSCF STATE 1.2 Dipole moment         0.00000000     0.00000000     0.00000000
 Dipole moment /Debye                   0.00000000     0.00000000     0.00000000

 State-averaged charge density matrix saved on record  5202.2 (density set 1)

 !MCSCF expec        <1.3|EKIN|1.3>    18.533561631524
 !MCSCF expec        <1.5|EKIN|1.5>    18.533561632738
 !MCSCF expec        <1.2|EKIN|1.2>    18.533561632738

 !MCSCF expec         <1.3|POT|1.3>    -8.841575970972
 !MCSCF expec         <1.5|POT|1.5>    -8.841575971188
 !MCSCF expec         <1.2|POT|1.2>    -8.841575971188


 NATURAL ORBITALS (state averaged)
 =================================

   Orb     Occ        Energy       Coefficients

                                   1 1s      1 1s      1 1s      1 1s      1 3d0     1 3d2+    1 3d0     1 3d2+    1 3d0     1 3d2+ 


   1.1  2.00000    -1.558712     0.999938 -0.000008  0.000021  0.000070  0.000000  0.000000  0.000000  0.000000  0.000000  0.000000

                                   1 2px     1 2px     1 2px     1 2px     1 4f1+    1 4f3+    1 4f1+    1 4f3+ 

   1.2  1.66667    -0.593330     1.006549  0.000392 -0.007629 -0.003780  0.000000  0.000000  0.000000  0.000000

                                   1 2py     1 2py     1 2py     1 2py     1 4f1-    1 4f3-    1 4f1-    1 4f3- 

   1.3  1.66667    -0.593330     1.006549  0.000392 -0.007629 -0.003780  0.000000  0.000000  0.000000  0.000000

                                   1 2pz     1 2pz     1 2pz     1 2pz     1 4f0     1 4f2+    1 4f0     1 4f2+ 

   1.5  1.66667    -0.593330     1.006549  0.000392 -0.007629 -0.003780  0.000000  0.000000  0.000000  0.000000
 

 EXTRA SYMMETRY OF MOS IN SYMMETRY 1:   1 1 3 2 1 2 3 3 2 1

 Natural orbital dump (state averaged) at molpro section  5202.2    (Orbital set 2)


 CI vector for state symmetry 1
 ==============================

 2 a 2           1.0000000

 TOTAL ENERGIES                       -23.90587962

 CI vector for state symmetry 2
 ==============================

 2 2 a           1.0000000

 TOTAL ENERGIES                       -23.90587962

 CI vector for state symmetry 3
 ==============================

 a 2 2           1.0000000

 TOTAL ENERGIES                       -23.90587962



 **********************************************************************************************************************************
 DATASETS  * FILE   NREC   LENGTH (MB)   RECORD NAMES
              1      21       19.66       500      610      700      900      950      970     1000      129      960     1100   
                                          VAR    BASINP    GEOM    SYMINP    ZMAT    AOBASIS   BASIS     P2S    ABASIS      S 
                                         1400     1410     1420     1200     1210     1080     1600     1650     1300     1700   
                                         EKIN       V       ECP      H0       H01     AOSYM     SMH    MOLCAS    ERIS     OPER   
                                         1380   
                                         JKOP   

              2       5        5.26       700     1000      520     4202     5202   
                                         GEOM     BASIS   MCVARS     RHF     MCSCF   

 PROGRAMS   *        TOTAL     MULTI       RHF       INT
 CPU TIMES  *         2.31      0.02      0.04      2.12
 REAL TIME  *        18.47 SEC
 DISK USED  *        34.13 MB      
 **********************************************************************************************************************************


 PROGRAM * RHF-SCF (OPEN SHELL)       Authors: W. Meyer, H.-J. Werner


 NUMBER OF ELECTRONS:       4+    3-    SPACE SYMMETRY=3    SPIN SYMMETRY: Doublet 
 CONVERGENCE THRESHOLDS:    1.00E-05 (Density)    1.00E-07 (Energy)
 MAX. NUMBER OF ITERATIONS:        0
 INTERPOLATION TYPE:            DIIS
 INTERPOLATION STEPS:              2 (START)      1 (STEP)
 LEVEL SHIFTS:                 -0.60 (CLOSED) -0.30 (OPEN) 


 Singly occupied orbitals:      1.3
 Molecular orbitals read from record     5202.2  Type=MCSCF/NATURAL (state averaged)

 Molecular orbital dump at record        2101.2

 ITERATION    DDIFF          GRAD             ENERGY        2-EL.EN.            DIPOLE MOMENTS         DIIS   ORB.
    1      0.000D+00      0.000D+00       -23.90587962     34.259583    0.00000    0.00000    0.00000    0    start

 Final alpha occupancy:   1   1   1   0   1   0   0   0
 Final beta  occupancy:   1   1   0   0   1   0   0   0

 !RHF STATE 1.3 Energy                -23.905879624435
 Nuclear energy                         0.00000000
 One-electron energy                  -41.03567104
 Two-electron energy                   17.12979141
 Virial quotient                       -1.28986970
 !RHF STATE 1.3 Dipole moment           0.00000000     0.00000000     0.00000000
 Dipole moment /Debye                   0.00000000     0.00000000     0.00000000
 

 !RHF expec          <1.3|EKIN|1.3>    18.533561631524
 
 !RHF expec           <1.3|POT|1.3>    -8.841575970972

 ELECTRON ORBITALS
 =================


   Orb  Occ    Energy  Couls-En    Coefficients

                                   1 1s      1 1s      1 1s      1 1s      1 3d0     1 3d2+    1 3d0     1 3d2+    1 3d0     1 3d2+ 


   1.1   2    -1.5587   -7.9869  0.999938 -0.000008  0.000021  0.000070  0.000000  0.000000  0.000000  0.000000  0.000000  0.000000

                                   1 2px     1 2px     1 2px     1 2px     1 4f1+    1 4f3+    1 4f1+    1 4f3+ 

   1.2   2    -0.5933   -6.2292  1.006549  0.000392 -0.007629 -0.003780  0.000000  0.000000  0.000000  0.000000

                                   1 2py     1 2py     1 2py     1 2py     1 4f1-    1 4f3-    1 4f1-    1 4f3- 

   1.3   +    -0.5933   -6.2292  1.006549  0.000392 -0.007629 -0.003780  0.000000  0.000000  0.000000  0.000000

                                   1 2pz     1 2pz     1 2pz     1 2pz     1 4f0     1 4f2+    1 4f0     1 4f2+ 

   1.5   2    -0.5933   -6.2292  1.006549  0.000392 -0.007629 -0.003780  0.000000  0.000000  0.000000  0.000000

 HOMO      1.2    -0.593330 =     -16.1453eV
 LUMO      2.2     0.246709 =       6.7133eV
 LUMO-HOMO         0.840039 =      22.8586eV


 **********************************************************************************************************************************
 DATASETS  * FILE   NREC   LENGTH (MB)   RECORD NAMES
              1      21       19.66       500      610      700      900      950      970     1000      129      960     1100   
                                          VAR    BASINP    GEOM    SYMINP    ZMAT    AOBASIS   BASIS     P2S    ABASIS      S 
                                         1400     1410     1420     1200     1210     1080     1600     1650     1300     1700   
                                         EKIN       V       ECP      H0       H01     AOSYM     SMH    MOLCAS    ERIS     OPER   
                                         1380   
                                         JKOP   

              2       6        7.77       700     1000      520     4202     5202     2101   
                                         GEOM     BASIS   MCVARS     RHF     MCSCF     RHF  

 PROGRAMS   *        TOTAL       RHF     MULTI       RHF       INT
 CPU TIMES  *         2.33      0.01      0.02      0.04      2.12
 REAL TIME  *        18.63 SEC
 DISK USED  *        34.13 MB      
 **********************************************************************************************************************************
 SETTING SCF(I)         =       -23.90587962  AU                              
 SETTING _CC_NORM_MAX   =         2.00000000                                  


 PROGRAM * UHF-SCF       Authors: W. Meyer, H.-J. Werner


 NUMBER OF ELECTRONS:       4+    3-    SPACE SYMMETRY=3    SPIN SYMMETRY: Doublet 
 CONVERGENCE THRESHOLDS:    1.00E-05 (Density)    1.00E-07 (Energy)
 MAX. NUMBER OF ITERATIONS:        0
 INTERPOLATION TYPE:            DIIS
 INTERPOLATION STEPS:              2 (START)      1 (STEP)
 LEVEL SHIFTS:                  0.20 (ALPHA)   0.20 (BETA) 



 Molecular orbitals read from record     2101.2  Type=RHF/CANONICAL (state 1.3)

 Molecular orbital dump at record        2200.2

 Initial alpha occupation   1   1   1   0   1   0   0   0
 Initial beta  occupation   1   1   0   0   1   0   0   0

 ITERATION    DDIFF          GRAD             ENERGY        2-EL.EN.            DIPOLE MOMENTS         DIIS
    1      0.000D+00      0.000D+00       -23.90587962     34.259583    0.00000    0.00000    0.00000    0
 
 Final alpha occupancy:   1   1   1   0   1   0   0   0
 Final beta  occupancy:   1   1   0   0   1   0   0   0

 !UHF STATE 1.3 Energy                -23.905879624435
 Nuclear energy                         0.00000000
 One-electron energy                  -41.03567104
 Two-electron energy                   17.12979141
 Virial quotient                       -1.28986970
 !UHF STATE 1.3 Dipole moment           0.00000000     0.00000000     0.00000000
 Dipole moment /Debye                   0.00000000     0.00000000     0.00000000
 

 !UHF expec          <1.3|EKIN|1.3>    18.533561631524
 
 !UHF expec           <1.3|POT|1.3>    -8.841575970972

 ELECTRON ORBITALS FOR POSITIVE SPIN
 ===================================


   Orb  Occ    Energy  Couls-En    Coefficients

                                   1 1s      1 1s      1 1s      1 1s      1 3d0     1 3d2+    1 3d0     1 3d2+    1 3d0     1 3d2+ 


   1.1   +    -1.5587   -7.9869  0.999938 -0.000008  0.000021  0.000070  0.000000  0.000000  0.000000  0.000000  0.000000  0.000000

                                   1 2px     1 2px     1 2px     1 2px     1 4f1+    1 4f3+    1 4f1+    1 4f3+ 

   1.2   +    -0.5933   -6.2292  1.006549  0.000392 -0.007629 -0.003780  0.000000  0.000000  0.000000  0.000000

                                   1 2py     1 2py     1 2py     1 2py     1 4f1-    1 4f3-    1 4f1-    1 4f3- 

   1.3   +    -0.5933   -6.2292  1.006549  0.000392 -0.007629 -0.003780  0.000000  0.000000  0.000000  0.000000

                                   1 2pz     1 2pz     1 2pz     1 2pz     1 4f0     1 4f2+    1 4f0     1 4f2+ 

   1.5   +    -0.5933   -6.2292  1.006549  0.000392 -0.007629 -0.003780  0.000000  0.000000  0.000000  0.000000

 ELECTRON ORBITALS FOR NEGATIVE SPIN
 ===================================


   Orb  Occ    Energy  Couls-En    Coefficients

                                   1 1s      1 1s      1 1s      1 1s      1 3d0     1 3d2+    1 3d0     1 3d2+    1 3d0     1 3d2+ 


   1.1   -    -1.5587   -7.9869  0.999938 -0.000008  0.000021  0.000070  0.000000  0.000000  0.000000  0.000000  0.000000  0.000000

                                   1 2px     1 2px     1 2px     1 2px     1 4f1+    1 4f3+    1 4f1+    1 4f3+ 

   1.2   -    -0.5933   -6.2292  1.006549  0.000392 -0.007629 -0.003780  0.000000  0.000000  0.000000  0.000000

                                   1 2pz     1 2pz     1 2pz     1 2pz     1 4f0     1 4f2+    1 4f0     1 4f2+ 

   1.5   -    -0.5933   -6.2292  1.006549  0.000392 -0.007629 -0.003780  0.000000  0.000000  0.000000  0.000000

 HOMO      1.2    -0.593330 =     -16.1453eV
 LUMO     -1.3    -0.593330 =     -16.1453eV
 LUMO-HOMO        -0.000000 =      -0.0000eV

 EXPECTATION VALUE OF S**2:             0.75000000

 Occupation number threshold for canonical orbitals:  1.999000 (occupied),  0.001000 (virtual)

 Number of pseudo-canonical orbitals per symmetry:    1   1   0   0   1   0   0   0
 Number of active natural orbitals per symmetry:      0   0   1   0   0   0   0   0

 NATURAL CHARGE ORBITALS
 =======================


   Orb     Occ        Energy       Coefficients

                                   1 1s      1 1s      1 1s      1 1s      1 3d0     1 3d2+    1 3d0     1 3d2+    1 3d0     1 3d2+ 


   1.1  2.00000    -1.558712     0.999938 -0.000008  0.000021  0.000070  0.000000  0.000000  0.000000  0.000000  0.000000  0.000000

                                   1 2px     1 2px     1 2px     1 2px     1 4f1+    1 4f3+    1 4f1+    1 4f3+ 

   1.2  2.00000    -0.593330     1.006549  0.000392 -0.007629 -0.003780  0.000000  0.000000  0.000000  0.000000

                                   1 2py     1 2py     1 2py     1 2py     1 4f1-    1 4f3-    1 4f1-    1 4f3- 

   1.3  1.00000    -0.362468     1.006549  0.000392 -0.007629 -0.003780  0.000000  0.000000  0.000000  0.000000

                                   1 2pz     1 2pz     1 2pz     1 2pz     1 4f0     1 4f2+    1 4f0     1 4f2+ 

   1.5  2.00000    -0.593330     1.006549  0.000392 -0.007629 -0.003780  0.000000  0.000000  0.000000  0.000000

 Natural orbitals saved to record    2200.2 (Orbital set 3)

 Orbital spaces for UNO-CAS (Min. occupation: 0.020  Max. occupation: 1.980):

 Closed:        1   1   0   0   1   0   0   0
 Active:        0   0   1   0   0   0   0   0

 No convergence



 **********************************************************************************************************************************
 DATASETS  * FILE   NREC   LENGTH (MB)   RECORD NAMES
              1      21       19.66       500      610      700      900      950      970     1000      129      960     1100   
                                          VAR    BASINP    GEOM    SYMINP    ZMAT    AOBASIS   BASIS     P2S    ABASIS      S 
                                         1400     1410     1420     1200     1210     1080     1600     1650     1300     1700   
                                         EKIN       V       ECP      H0       H01     AOSYM     SMH    MOLCAS    ERIS     OPER   
                                         1380   
                                         JKOP   

              2       7       10.28       700     1000      520     4202     5202     2101     2200   
                                         GEOM     BASIS   MCVARS     RHF     MCSCF     RHF      UHF  

 PROGRAMS   *        TOTAL       UHF       RHF     MULTI       RHF       INT
 CPU TIMES  *         2.35      0.02      0.01      0.02      0.04      2.12
 REAL TIME  *        18.72 SEC
 DISK USED  *        34.13 MB      
 **********************************************************************************************************************************
 SETTING SCF(I)         =       -23.90587962  AU                              


 PROGRAM * MRCC (General Multireference Coupled Cluster)    Author: M. Kallay, 2000-2005

 ***  Initialisation ***

   0 Spin projections
 
 Molecular orbitals read from record     2200.2  Type=UHF/ALPHA (state 1.3)

 ?Warning: UHF not converged
 Molecular orbitals read from record     2200.2  Type=UHF/BETA (state 1.3)

 ?Warning: UHF not converged
 
 Frozen orbitals:              0 (  0  0  0  0  0  0  0  0)
 Active orbitals:             45 ( 10  8  8  3  8  3  3  2)
 Active electrons:             7
 Spin quantum number:          0.5

 Transformed integrals will be written to file mrcc_6644/fort.55

 Load integrals                2.4 sec
 Transform integrals           2.4 sec
 Storage for integrals:         426551
 Remaining memory:           *********

 Core energy:               0.00000000
 
 MRCC Input:
     4     0     0     0     3     0     0     3     0     0     0     1     1     0     0     7     0     0   0.000     0   64000
  ex.lev,nsing,ntrip, rest,method,dens,conver,symm, diag, CS ,spatial, HF, ndoub,nacto,nactv, tol, maxex, sacc, freq,  dboc,   mem
  2  0  0  0  0  0  0  0  0  0  2  0  0  0  0  0  0  0  1  0  0  0  0  0  0  0  0  0  0  2  0  0  0  0  0  0  0  0  0  0  0  0  0  0  0
 MRCC Input end
 Variable memory released
 MRCC now being run, temporary output in /global/cscratch1/sd/aannabe/mrcc_6644/mrcc.out
 **********************************************************************
                          MRCC program system
 **********************************************************************

                              Written by
  Mihaly Kallay, Zoltan Rolik, Jozsef Csontos, Peter Nagy, Gyula Samu,
      David Mester, Jozsef Csoka, Bernat Szabo, Istvan Ladjanszki,
       Lorant Szegedy, Bence Ladoczki, Klara Petrov, Mate Farkas,
                    Pal D. Mezei, and Bence Hegely

        Department of Physical Chemistry and Materials Science
            Budapest University of Technology and Economics
                  Budapest P.O.Box 91, H-1521 Hungary

                              www.mrcc.hu

                       Release date: May 23, 2018

 ************************ 2018-10-30 13:28:12 *************************
 Executing goldstone...

 Generation of CC equations in terms of H and T...
 Generation of antisymmetrized Goldstone diagrams...
 Number of diagrams in T^1 equations:    15
 Number of diagrams in T^2 equations:    38
 Number of diagrams in T^3 equations:    49
 Number of diagrams in T^4 equations:     5
 Translation of diagrams to factorized equations...
 Optimizing intermediate calculation...
 Number of floating-point operations per iteration step:   5.0173E+09
 Probable CPU time per iteration step (hours):      0.05
 Required memory (Mbytes):     393.4
 Number of intermediates:                                  79
 Number of intermediates to be stored:                     32
 Length of intermediate file (Mbytes):       9.8

 ************************ 2018-10-30 13:28:12 *************************
 Executing xmrcc...

 **********************************************************************
 CC(3)(4) calculation


 Allocation of 393.4 Mbytes of memory...
 Number of spinorbitals:                    90
 Number of alpha electrons:                        4
 Number of beta electrons:                         3
 Spin multiplicity:                     2
 z-component of spin:  0.5
 Spatial symmetry:                      3
 Convergence criterion:  1.0E-07
 Construction of occupation graphs...
 Number of                     0 -fold excitations:                      1
 Number of                     1 -fold excitations:                     53
 Number of                     2 -fold excitations:                   3698
 Number of                     3 -fold excitations:                 137170
 Total number of configurations:                 140922
 Calculation of coupling coefficients...
 Length of intermediate file (Mbytes):       7.8

 ======================================================================

 Spin case  1   Alpha:  1   Beta:  3
 Number of excitations:                 235120
 Spin case  2   Alpha:  2   Beta:  2
 Number of excitations:                1588850
 Spin case  3   Alpha:  3   Beta:  1
 Number of excitations:                 671700
 Spin case  4   Alpha:  4   Beta:  0
 Number of excitations:                  12879
 Number of                     4 -fold excitations:                2508549

 Memory requirements /Mbyte/:
               Minimal        Optimal
 Real*8:         29.2913        31.3201
 Integer:         9.4256
 Total:          38.7169        40.7457


 ************************ 2018-10-30 13:28:14 *************************
 Executing mrcc...

 **********************************************************************
 CCSDT(Q) calculation


 Allocation of   31.3 Mbytes of memory...
 Number of spinorbitals:  90
 Number of alpha electrons:  4
 Number of beta  electrons:  3
 Spin multiplicity: 2
 z-component of spin:  0.5
 Spatial symmetry: 3
 Convergence criterion:  1.0E-07
 Construction of occupation graphs...
 Number of 0-fold excitations: 1
 Number of 1-fold excitations: 53
 Number of 2-fold excitations: 3698
 Number of 3-fold excitations: 137170
 Total number of determinants: 140922
 Calculation of coupling coefficients...
 Initial cluster amplitudes are generated.
 Length of intermediate file (Mbytes):       7.8
 Reading integral list from unit 55...
 Sorting integrals...
 Sorting integrals...
 Sorting integrals...
 Sorting integrals...
 Energy of reference determinant [au]:     -23.905879624435
 Calculation of MP denominators...

 Starting CC iteration...
 ======================================================================
 Norm of residual vector:     1.36070912
 CPU time [min]:     0.058                   Wall time [min]:     0.060

 Iteration  1  CC energy:   -24.12126744  Energy decrease:   0.21538781
 ======================================================================
 Norm of residual vector:     0.24934971
 CPU time [min]:     0.095                   Wall time [min]:     0.097

 Iteration  2  CC energy:   -24.13093631  Energy decrease:   0.00966887
 ======================================================================
 Norm of residual vector:     0.05546062
 CPU time [min]:     0.133                   Wall time [min]:     0.135

 Iteration  3  CC energy:   -24.13813692  Energy decrease:   0.00720061
 ======================================================================
 Norm of residual vector:     0.01788598
 CPU time [min]:     0.171                   Wall time [min]:     0.173

 Iteration  4  CC energy:   -24.13967646  Energy decrease:   0.00153954
 ======================================================================
 Norm of residual vector:     0.00776701
 CPU time [min]:     0.208                   Wall time [min]:     0.210

 Iteration  5  CC energy:   -24.13939975  Energy decrease:   0.00027671
 ======================================================================
 Norm of residual vector:     0.00340718
 CPU time [min]:     0.245                   Wall time [min]:     0.248

 Iteration  6  CC energy:   -24.13933609  Energy decrease:   0.00006366
 ======================================================================
 Norm of residual vector:     0.00166440
 CPU time [min]:     0.283                   Wall time [min]:     0.286

 Iteration  7  CC energy:   -24.13940356  Energy decrease:   0.00006746
 ======================================================================
 Norm of residual vector:     0.00055595
 CPU time [min]:     0.320                   Wall time [min]:     0.324

 Iteration  8  CC energy:   -24.13941105  Energy decrease:   0.00000749
 ======================================================================
 Norm of residual vector:     0.00019504
 CPU time [min]:     0.358                   Wall time [min]:     0.362

 Iteration  9  CC energy:   -24.13940908  Energy decrease:   0.00000197
 ======================================================================
 Norm of residual vector:     0.00006580
 CPU time [min]:     0.397                   Wall time [min]:     0.401

 Iteration 10  CC energy:   -24.13940933  Energy decrease:   0.00000025
 ======================================================================
 Norm of residual vector:     0.00002234
 CPU time [min]:     0.435                   Wall time [min]:     0.440

 Iteration 11  CC energy:   -24.13940931  Energy decrease:   0.00000002
 ======================================================================
 Norm of residual vector:     0.00000684
 CPU time [min]:     0.473                   Wall time [min]:     0.479

 Iteration 12  CC energy:   -24.13940928  Energy decrease:   0.00000003
 ======================================================================
 Norm of residual vector:     0.00000245
 CPU time [min]:     0.512                   Wall time [min]:     0.519

 Iteration 13  CC energy:   -24.13940928  Energy decrease:   0.00000001
 ======================================================================
 Norm of residual vector:     0.00000076
 CPU time [min]:     0.551                   Wall time [min]:     0.558

 Iteration 14  CC energy:   -24.13940927  Energy decrease:   1.8791E-09
 ======================================================================
 Norm of residual vector:     0.00000026
 CPU time [min]:     0.590                   Wall time [min]:     0.624

 Iteration 15  CC energy:   -24.13940927  Energy decrease:   2.5998E-09
 ======================================================================
 Norm of residual vector:     0.00000010
 CPU time [min]:     0.620                   Wall time [min]:     0.657

 Iteration 16  CC energy:   -24.13940927  Energy decrease:   5.1329E-10
 ======================================================================

 Iteration has converged in 16 steps.

 Final results:
 Total CCSDT energy [au]:            -24.139409272379
 Total MP2 energy [au]:              -24.121267436132

 Perturbative corrections are calculated...
 ======================================================================
 Spin case  1   Alpha:  1   Beta:  3
 Number of excitations:        235120
 CPU time [min]:     1.395                   Wall time [min]:     1.453
 ======================================================================
 Spin case  2   Alpha:  2   Beta:  2
 Number of excitations:        1588850
 CPU time [min]:     3.383                   Wall time [min]:     3.443
 ======================================================================
 Spin case  3   Alpha:  3   Beta:  1
 Number of excitations:        671700
 CPU time [min]:     4.389                   Wall time [min]:     4.455
 ======================================================================
 Spin case  4   Alpha:  4   Beta:  0
 Number of excitations:        12879
 CPU time [min]:     4.469                   Wall time [min]:     4.540
 ======================================================================
 Number of 4-fold excitations: 2508549
 CPU time [min]:     4.469                   Wall time [min]:     4.541

 Total CCSDT[Q] energy [au]:         -24.139355089295
 Total CCSDT(Q) energy [au]:         -24.139494386845

 ************************ 2018-10-30 13:32:46 *************************
                      Normal termination of mrcc.
 **********************************************************************
 !CCSDT STATE 1.3 Energy              -24.139409272379
 !MP2 STATE 1.3 Energy                -24.121267436132
 !CCSDT[Q] STATE 1.3 Energy           -24.139355089295
 !CCSDT(Q) STATE 1.3 Energy           -24.139494386845
 
 CPU-time for MRCC:            268.1 sec
 Elapsed-time for MRCC:        276.9 sec

 Variable memory set to 8000000000 words,  buffer space   230000 words



 **********************************************************************************************************************************
 DATASETS  * FILE   NREC   LENGTH (MB)   RECORD NAMES
              1      21       19.66       500      610      700      900      950      970     1000      129      960     1100   
                                          VAR    BASINP    GEOM    SYMINP    ZMAT    AOBASIS   BASIS     P2S    ABASIS      S 
                                         1400     1410     1420     1200     1210     1080     1600     1650     1300     1700   
                                         EKIN       V       ECP      H0       H01     AOSYM     SMH    MOLCAS    ERIS     OPER   
                                         1380   
                                         JKOP   

              2       7       10.28       700     1000      520     4202     5202     2101     2200   
                                         GEOM     BASIS   MCVARS     RHF     MCSCF     RHF      UHF  

 PROGRAMS   *        TOTAL      MRCC       UHF       RHF     MULTI       RHF       INT
 CPU TIMES  *       271.46    269.11      0.02      0.01      0.02      0.04      2.12
 REAL TIME  *       302.94 SEC
 DISK USED  *        34.13 MB      
 **********************************************************************************************************************************
 SETTING POSTHF(I)      =       -24.13949439  AU                              
                                                                                                                                                                                                                                                                

        SCF            POSTHF        EKIN          POT
    -23.90587962   -24.13949439   18.53356163   -8.84157597
                                                  

 CCSDT(Q)/USERDEF energy=    -24.139494386845

        CCSDT(Q)        RHF-SCF         MULTI           RHF-SCF 
    -24.13949439    -23.90587962    -23.90587962    -23.90787065
 **********************************************************************************************************************************
 Variable memory released
