
 Primary working directories    : /global/cscratch1/sd/aannabe
 Secondary working directories  : /global/cscratch1/sd/aannabe
 Wavefunction directory         : /global/homes/a/aannabe/wfu/
 Main file repository           : /global/cscratch1/sd/aannabe/

 SHA1      : 2873118e99aab1bc19f5b6fc1784693c06d15c95
 NAME      : 2015.1.8
 ARCHNAME  : linux/x86_64
 FC        : /opt/cray/pe/craype/2.5.5/bin/ftn
 BLASLIB   : -Wl,-_start-group /opt/intel/compilers_and_libraries_2016.3.210/linux/mkl/lib/intel64/libmkl_intel_ilp64.a /opt/intel/compilers_and_libraries_2016.3.210/linux/mkl/lib/intel64/libmkl_intel_thread.a /opt/intel/compilers_and_libraries_2016.3.210/linux/mkl/lib/intel64/libmkl_core.a -Wl,-_end-group
 id        : lbl

 Nodes     nprocs
 nid00477     1

 Using customized tuning parameters: mindgm=8; mindgv=16; mindgc=4; mindgr=1; noblas=0; minvec=7
 default implementation of scratch files=df  

 ***,Co
 memory,512,m
 gthresh,twoint=1.e-12
 
 gprint,basis,orbitals
 gexpec,ekin,pot
 
 angstrom
 geometry={
 1                                                                               ! Number of atoms
 Co 0.0 0.0 0.0
 }
 
 basis={
 Including file /global/homes/a/aannabe/docs/accurate/ccECP_Kh/pps/Co.pp
                                              !include,/global/homes/a/aannabe/docs/accurate/ccECP_Kh/basis/aug-cc-pVnZ/Co_tz.basis
 Including file /global/homes/a/aannabe/docs/accurate/ccECP_Kh/basis/cc-pVnZ/Co_tz.basis
 }
 
 {rhf
  start,atden
  print,orbitals=2
  wf,17,1,3
  occ,4,1,1,1,1,1,1,0
  open,1.4,1.6,1.7
  sym,1,1,1,3,2
  orbital,4202.2
 }
 pop
 {multi
  start,4202.2
  occ,4,1,1,1,1,1,1,0
  closed,2,1,1,0,1,0,0
  wf,17,1,3;state,1
  wf,17,4,3;state,3
  wf,17,6,3;state,3
  wf,17,7,3;state,3
  natorb,ci,print
  orbital,5202.2
 }
 {rhf,nitord=1,maxit=0
  start,5202.2
  wf,17,1,3
  occ,4,1,1,1,1,1,1,0
  open,1.4,1.6,1.7
 }
 
 scf(i)=energy
 
 _CC_NORM_MAX=2.0
 {rccsd(t)
 maxit,100
 core
 }
 posthf(i)=energy
 
 table,scf,posthf,ekin,pot
 save,3.csv,new
 
 

 Variables initialized (889), CPU time= 0.01 sec
 Commands  initialized (702), CPU time= 0.01 sec, 572 directives.
 Default parameters read. Elapsed time= 0.18 sec

 Checking input...
 Passed
1


                                         ***  PROGRAM SYSTEM MOLPRO  ***
                                       Copyright, TTI GmbH Stuttgart, 2015
                                    Version 2015.1 linked Sep  7 2016 23:09:38


 **********************************************************************************************************************************
 LABEL *   Co                                                                            
  64 bit serial version                                                                  DATE: 13-Nov-18          TIME: 22:23:04  
 **********************************************************************************************************************************

 SHA1:             2873118e99aab1bc19f5b6fc1784693c06d15c95
 **********************************************************************************************************************************

 THRESHOLDS:

 ZERO    =  1.00D-12  ONEINT  =  1.00D-12  TWOINT  =  1.00D-12  PREFAC  =  1.00D-14  LOCALI  =  1.00D-09  EORDER  =  1.00D-04
 ENERGY  =  0.00D+00  ETEST   =  0.00D+00  EDENS   =  0.00D+00  THRDEDEF=  1.00D-06  GRADIENT=  1.00D-02  STEP    =  1.00D-03
 ORBITAL =  1.00D-05  CIVEC   =  1.00D-05  COEFF   =  1.00D-04  PRINTCI =  5.00D-02  PUNCHCI =  9.90D+01  OPTGRAD =  3.00D-04
 OPTENERG=  1.00D-06  OPTSTEP =  3.00D-04  THRGRAD =  1.00D-10  COMPRESS=  1.00D-11  VARMIN  =  1.00D-07  VARMAX  =  1.00D-03
 THRDOUB =  0.00D+00  THRDIV  =  1.00D-05  THRRED  =  1.00D-07  THRPSP  =  1.00D+00  THRDC   =  1.00D-10  THRCS   =  1.00D-10
 THRNRM  =  1.00D-08  THREQ   =  0.00D+00  THRDE   =  1.00D+00  THRREF  =  1.00D-05  SPARFAC =  1.00D+00  THRDLP  =  1.00D-07
 THRDIA  =  1.00D-10  THRDLS  =  1.00D-07  THRGPS  =  0.00D+00  THRKEX  =  0.00D+00  THRDIS  =  2.00D-01  THRVAR  =  1.00D-10
 THRLOC  =  1.00D-06  THRGAP  =  1.00D-06  THRLOCT = -1.00D+00  THRGAPT = -1.00D+00  THRORB  =  1.00D-06  THRMLTP =  0.00D+00
 THRCPQCI=  1.00D-10  KEXTA   =  0.00D+00  THRCOARS=  0.00D+00  SYMTOL  =  1.00D-06  GRADTOL =  1.00D-06  THROVL  =  1.00D-08
 THRORTH =  1.00D-08  GRID    =  1.00D-06  GRIDMAX =  1.00D-03  DTMAX   =  0.00D+00  THROCCDE=  1.00D-01  THROCCDE=  1.00D-01



 ZUNIT=ANG
 

Geometry recognized as XYZ


 Variable memory set to  512000000 words,  buffer space   230000 words

 SETTING BASIS          =    USERDEF


 Recomputing integrals since basis changed


 Using spherical harmonics



 PROGRAM * SEWARD (Integral evaluation for generally contracted gaussian basis sets)     Author: Roland Lindh, 1990

 Geometry written to block  1 of record 700

 Orientation using atomic masses  
 Molecule type: Atom
 Symmetry elements: X,Y,Z
 Rotational constants:       0.0000000      0.0000000      0.0000000 GHz  (calculated with average atomic masses)

 Point group  D2h 



 ATOMIC COORDINATES

 NR  ATOM    CHARGE       X              Y              Z

   1  CO     17.00    0.000000000    0.000000000    0.000000000


          CO  CORE POTENTIAL

          d POTENTIAL

 POWERS             1              3              2              2
 EXPONENTIALS   25.00124       22.83490       23.47468       10.33795    
 COEFFICIENTS   17.00000       425.0211      -195.4821      -2.815729    

          s - d POTENTIAL

 POWERS             2              2
 EXPONENTIALS   23.41427       10.76932    
 COEFFICIENTS   271.7771       54.26461    

          p - d POTENTIAL

 POWERS             2              2
 EXPONENTIALS   25.47446       10.68405    
 COEFFICIENTS   201.5343       38.99232    


 BASIS DATA

   Nr Sym  Nuc  Type         Exponents   Contraction coefficients

    1.1 Ag    1  1s          90.663831     0.000774   -0.000154   -0.000047   -0.000231    0.000000
    2.1 Ag                   46.961414    -0.011316    0.002525    0.003654    0.007536    0.000000
    3.1 Ag                   24.110274     0.101209   -0.024443   -0.046132   -0.097298    0.000000
    4.1 Ag                   14.430881    -0.081642    0.022200    0.036483    0.111611    0.000000
    5.1 Ag                    8.757423    -0.354812    0.088416    0.217265    0.403621    0.000000
                              4.484459    -0.090362    0.016820   -0.011883   -0.048324    0.000000
                              2.519739     0.498174   -0.134582   -0.324688   -1.157600    0.000000
                              1.236850     0.604123   -0.231295   -0.680581   -0.756839    0.000000
                              0.601882     0.190775   -0.163986    0.256936    2.313683    0.000000
                              0.223338     0.006578    0.121337    1.224005    0.253074    0.000000
                              0.123422    -0.000905    0.402414    0.236837   -1.991466    0.000000
                              0.059941     0.000171    0.506113   -0.604064    0.166942    0.000000
                              0.027978    -0.000025    0.145436   -0.574947    0.917221    1.000000
    6.1 Ag    1  1s           1.447389     1.000000
    7.1 Ag    1  1s           3.880139     1.000000
    8.1 Ag    1  3d0        160.444504     0.000034
                             52.598830     0.006553
                             27.491581     0.036185
                             12.745988     0.083026
                              6.184310     0.176960
                              3.029146     0.263990
                              1.474099     0.292447
                              0.714391     0.249597
                              0.348520     0.171637
                              0.174166     0.080649
                              0.087891     0.041212
    9.1 Ag    1  3d2+       160.444504     0.000034
                             52.598830     0.006553
                             27.491581     0.036185
                             12.745988     0.083026
                              6.184310     0.176960
                              3.029146     0.263990
                              1.474099     0.292447
                              0.714391     0.249597
                              0.348520     0.171637
                              0.174166     0.080649
                              0.087891     0.041212
   10.1 Ag    1  3d0        160.444504    -0.000031
                             52.598830    -0.007869
                             27.491581    -0.041992
                             12.745988    -0.101388
                              6.184310    -0.216996
                              3.029146    -0.283962
                              1.474099    -0.127179
                              0.714391     0.177125
                              0.348520     0.375596
                              0.174166     0.284631
                              0.087891     0.200277
   11.1 Ag    1  3d2+       160.444504    -0.000031
                             52.598830    -0.007869
                             27.491581    -0.041992
                             12.745988    -0.101388
                              6.184310    -0.216996
                              3.029146    -0.283962
                              1.474099    -0.127179
                              0.714391     0.177125
                              0.348520     0.375596
                              0.174166     0.284631
                              0.087891     0.200277
   12.1 Ag    1  3d0        160.444504     0.000048
                             52.598830     0.010531
                             27.491581     0.055559
                             12.745988     0.140758
                              6.184310     0.305785
                              3.029146     0.242812
                              1.474099    -0.285044
                              0.714391    -0.594819
                              0.348520    -0.017937
                              0.174166     0.348150
                              0.087891     0.455170
   13.1 Ag    1  3d2+       160.444504     0.000048
                             52.598830     0.010531
                             27.491581     0.055559
                             12.745988     0.140758
                              6.184310     0.305785
                              3.029146     0.242812
                              1.474099    -0.285044
                              0.714391    -0.594819
                              0.348520    -0.017937
                              0.174166     0.348150
                              0.087891     0.455170
   14.1 Ag    1  3d0        160.444504     0.000000
                             52.598830     0.000000
                             27.491581     0.000000
                             12.745988     0.000000
                              6.184310     0.000000
                              3.029146     0.000000
                              1.474099     0.000000
                              0.714391     0.000000
                              0.348520     0.000000
                              0.174166     0.000000
                              0.087891     1.000000
   15.1 Ag    1  3d2+       160.444504     0.000000
                             52.598830     0.000000
                             27.491581     0.000000
                             12.745988     0.000000
                              6.184310     0.000000
                              3.029146     0.000000
                              1.474099     0.000000
                              0.714391     0.000000
                              0.348520     0.000000
                              0.174166     0.000000
                              0.087891     1.000000
   16.1 Ag    1  3d0          2.363138     1.000000
   17.1 Ag    1  3d2+         2.363138     1.000000
   18.1 Ag    1  3d0          4.221080     1.000000
   19.1 Ag    1  3d2+         4.221080     1.000000
   20.1 Ag    1  5g0          2.525364     1.000000
   21.1 Ag    1  5g4+         2.525364     1.000000
   22.1 Ag    1  5g2+         2.525364     1.000000
   23.1 Ag    1  5g0          6.296469     1.000000
   24.1 Ag    1  5g4+         6.296469     1.000000
   25.1 Ag    1  5g2+         6.296469     1.000000
    1.2 B3u   1  2px        139.038145     0.000075    0.000025   -0.000238   -0.000055    0.000000
    2.2 B3u                  71.928971    -0.000627   -0.000084    0.001489   -0.000017    0.000000
    3.2 B3u                  37.806311     0.005719   -0.000485   -0.008723    0.004320    0.000000
    4.2 B3u                  21.054252    -0.009310    0.000095    0.024538   -0.021339    0.000000
    5.2 B3u                  12.973193    -0.083857    0.022402    0.060856   -0.127134    0.000000
                              6.791461     0.012394   -0.011534   -0.020380    0.157208    0.000000
                              3.794018     0.281987   -0.056866   -0.430195    0.794927    0.000000
                              1.960649     0.434179   -0.126070   -0.407692    0.233574    0.000000
                              1.006283     0.313409   -0.060889    0.085326   -1.666033    0.000000
                              0.509539     0.089778   -0.035086    1.073326    0.282716    0.000000
                              0.233091     0.007405    0.351847    0.015067    1.335625    0.000000
                              0.083890     0.000980    0.510449   -0.719631   -0.885469    0.000000
                              0.039802     0.000274    0.289707   -0.024603   -0.130340    1.000000
    6.2 B3u   1  2px          1.784890     1.000000
    7.2 B3u   1  2px          6.847001     1.000000
    8.2 B3u   1  4f1+         0.975120     1.000000
    9.2 B3u   1  4f3+         0.975120     1.000000
   10.2 B3u   1  4f1+         3.957052     1.000000
   11.2 B3u   1  4f3+         3.957052     1.000000
   12.2 B3u   1  4f1+         8.206890     1.000000
   13.2 B3u   1  4f3+         8.206890     1.000000
    1.3 B2u   1  2py        139.038145     0.000075    0.000025   -0.000238   -0.000055    0.000000
    2.3 B2u                  71.928971    -0.000627   -0.000084    0.001489   -0.000017    0.000000
    3.3 B2u                  37.806311     0.005719   -0.000485   -0.008723    0.004320    0.000000
    4.3 B2u                  21.054252    -0.009310    0.000095    0.024538   -0.021339    0.000000
    5.3 B2u                  12.973193    -0.083857    0.022402    0.060856   -0.127134    0.000000
                              6.791461     0.012394   -0.011534   -0.020380    0.157208    0.000000
                              3.794018     0.281987   -0.056866   -0.430195    0.794927    0.000000
                              1.960649     0.434179   -0.126070   -0.407692    0.233574    0.000000
                              1.006283     0.313409   -0.060889    0.085326   -1.666033    0.000000
                              0.509539     0.089778   -0.035086    1.073326    0.282716    0.000000
                              0.233091     0.007405    0.351847    0.015067    1.335625    0.000000
                              0.083890     0.000980    0.510449   -0.719631   -0.885469    0.000000
                              0.039802     0.000274    0.289707   -0.024603   -0.130340    1.000000
    6.3 B2u   1  2py          1.784890     1.000000
    7.3 B2u   1  2py          6.847001     1.000000
    8.3 B2u   1  4f1-         0.975120     1.000000
    9.3 B2u   1  4f3-         0.975120     1.000000
   10.3 B2u   1  4f1-         3.957052     1.000000
   11.3 B2u   1  4f3-         3.957052     1.000000
   12.3 B2u   1  4f1-         8.206890     1.000000
   13.3 B2u   1  4f3-         8.206890     1.000000
    1.4 B1g   1  3d2-       160.444504     0.000034   -0.000031    0.000048    0.000000
    2.4 B1g                  52.598830     0.006553   -0.007869    0.010531    0.000000
    3.4 B1g                  27.491581     0.036185   -0.041992    0.055559    0.000000
    4.4 B1g                  12.745988     0.083026   -0.101388    0.140758    0.000000
                              6.184310     0.176960   -0.216996    0.305785    0.000000
                              3.029146     0.263990   -0.283962    0.242812    0.000000
                              1.474099     0.292447   -0.127179   -0.285044    0.000000
                              0.714391     0.249597    0.177125   -0.594819    0.000000
                              0.348520     0.171637    0.375596   -0.017937    0.000000
                              0.174166     0.080649    0.284631    0.348150    0.000000
                              0.087891     0.041212    0.200277    0.455170    1.000000
    5.4 B1g   1  3d2-         2.363138     1.000000
    6.4 B1g   1  3d2-         4.221080     1.000000
    7.4 B1g   1  5g2-         2.525364     1.000000
    8.4 B1g   1  5g4-         2.525364     1.000000
    9.4 B1g   1  5g2-         6.296469     1.000000
   10.4 B1g   1  5g4-         6.296469     1.000000
    1.5 B1u   1  2pz        139.038145     0.000075    0.000025   -0.000238   -0.000055    0.000000
    2.5 B1u                  71.928971    -0.000627   -0.000084    0.001489   -0.000017    0.000000
    3.5 B1u                  37.806311     0.005719   -0.000485   -0.008723    0.004320    0.000000
    4.5 B1u                  21.054252    -0.009310    0.000095    0.024538   -0.021339    0.000000
    5.5 B1u                  12.973193    -0.083857    0.022402    0.060856   -0.127134    0.000000
                              6.791461     0.012394   -0.011534   -0.020380    0.157208    0.000000
                              3.794018     0.281987   -0.056866   -0.430195    0.794927    0.000000
                              1.960649     0.434179   -0.126070   -0.407692    0.233574    0.000000
                              1.006283     0.313409   -0.060889    0.085326   -1.666033    0.000000
                              0.509539     0.089778   -0.035086    1.073326    0.282716    0.000000
                              0.233091     0.007405    0.351847    0.015067    1.335625    0.000000
                              0.083890     0.000980    0.510449   -0.719631   -0.885469    0.000000
                              0.039802     0.000274    0.289707   -0.024603   -0.130340    1.000000
    6.5 B1u   1  2pz          1.784890     1.000000
    7.5 B1u   1  2pz          6.847001     1.000000
    8.5 B1u   1  4f0          0.975120     1.000000
    9.5 B1u   1  4f2+         0.975120     1.000000
   10.5 B1u   1  4f0          3.957052     1.000000
   11.5 B1u   1  4f2+         3.957052     1.000000
   12.5 B1u   1  4f0          8.206890     1.000000
   13.5 B1u   1  4f2+         8.206890     1.000000
    1.6 B2g   1  3d1+       160.444504     0.000034   -0.000031    0.000048    0.000000
    2.6 B2g                  52.598830     0.006553   -0.007869    0.010531    0.000000
    3.6 B2g                  27.491581     0.036185   -0.041992    0.055559    0.000000
    4.6 B2g                  12.745988     0.083026   -0.101388    0.140758    0.000000
                              6.184310     0.176960   -0.216996    0.305785    0.000000
                              3.029146     0.263990   -0.283962    0.242812    0.000000
                              1.474099     0.292447   -0.127179   -0.285044    0.000000
                              0.714391     0.249597    0.177125   -0.594819    0.000000
                              0.348520     0.171637    0.375596   -0.017937    0.000000
                              0.174166     0.080649    0.284631    0.348150    0.000000
                              0.087891     0.041212    0.200277    0.455170    1.000000
    5.6 B2g   1  3d1+         2.363138     1.000000
    6.6 B2g   1  3d1+         4.221080     1.000000
    7.6 B2g   1  5g1+         2.525364     1.000000
    8.6 B2g   1  5g3+         2.525364     1.000000
    9.6 B2g   1  5g1+         6.296469     1.000000
   10.6 B2g   1  5g3+         6.296469     1.000000
    1.7 B3g   1  3d1-       160.444504     0.000034   -0.000031    0.000048    0.000000
    2.7 B3g                  52.598830     0.006553   -0.007869    0.010531    0.000000
    3.7 B3g                  27.491581     0.036185   -0.041992    0.055559    0.000000
    4.7 B3g                  12.745988     0.083026   -0.101388    0.140758    0.000000
                              6.184310     0.176960   -0.216996    0.305785    0.000000
                              3.029146     0.263990   -0.283962    0.242812    0.000000
                              1.474099     0.292447   -0.127179   -0.285044    0.000000
                              0.714391     0.249597    0.177125   -0.594819    0.000000
                              0.348520     0.171637    0.375596   -0.017937    0.000000
                              0.174166     0.080649    0.284631    0.348150    0.000000
                              0.087891     0.041212    0.200277    0.455170    1.000000
    5.7 B3g   1  3d1-         2.363138     1.000000
    6.7 B3g   1  3d1-         4.221080     1.000000
    7.7 B3g   1  5g1-         2.525364     1.000000
    8.7 B3g   1  5g3-         2.525364     1.000000
    9.7 B3g   1  5g1-         6.296469     1.000000
   10.7 B3g   1  5g3-         6.296469     1.000000
    1.8 Au    1  4f2-         0.975120     1.000000
    2.8 Au    1  4f2-         3.957052     1.000000
    3.8 Au    1  4f2-         8.206890     1.000000

 NUCLEAR CHARGE:                   17
 NUMBER OF PRIMITIVE AOS:         198
 NUMBER OF SYMMETRY AOS:          164
 NUMBER OF CONTRACTIONS:           97   (  25Ag  +  13B3u +  13B2u +  10B1g +  13B1u +  10B2g +  10B3g +   3Au  )
 NUMBER OF CORE ORBITALS:           4   (   1Ag  +   1B3u +   1B2u +   0B1g +   1B1u +   0B2g +   0B3g +   0Au  )
 NUMBER OF VALENCE ORBITALS:        6   (   3Ag  +   0B3u +   0B2u +   1B1g +   0B1u +   1B2g +   1B3g +   0Au  )


 NUCLEAR REPULSION ENERGY    0.00000000

 EXTRA SYMMETRY OF AOS IN SYMMETRY 1:   1 1 1 1 1 1 1 2 3 2   3 2 3 2 3 2 3 2 3 4   5 6 4 5 6
 EXTRA SYMMETRY OF AOS IN SYMMETRY 2:   1 1 1 1 1 1 1 2 3 2   3 2 3
 EXTRA SYMMETRY OF AOS IN SYMMETRY 3:   1 1 1 1 1 1 1 2 3 2   3 2 3
 EXTRA SYMMETRY OF AOS IN SYMMETRY 4:   1 1 1 1 1 1 2 3 2 3
 EXTRA SYMMETRY OF AOS IN SYMMETRY 5:   1 1 1 1 1 1 1 2 3 2   3 2 3
 EXTRA SYMMETRY OF AOS IN SYMMETRY 6:   1 1 1 1 1 1 2 3 2 3
 EXTRA SYMMETRY OF AOS IN SYMMETRY 7:   1 1 1 1 1 1 2 3 2 3

 Eigenvalues of metric

         1 0.294E-02 0.110E-01 0.239E-01 0.239E-01 0.403E-01 0.403E-01 0.132E+00 0.132E+00
         2 0.302E-02 0.645E-01 0.212E+00 0.212E+00 0.218E+00 0.761E+00 0.912E+00 0.912E+00
         3 0.302E-02 0.645E-01 0.212E+00 0.212E+00 0.218E+00 0.761E+00 0.912E+00 0.912E+00
         4 0.239E-01 0.403E-01 0.132E+00 0.426E+00 0.426E+00 0.108E+01 0.157E+01 0.157E+01
         5 0.302E-02 0.645E-01 0.212E+00 0.212E+00 0.218E+00 0.761E+00 0.912E+00 0.912E+00
         6 0.239E-01 0.403E-01 0.132E+00 0.426E+00 0.426E+00 0.108E+01 0.157E+01 0.157E+01
         7 0.239E-01 0.403E-01 0.132E+00 0.426E+00 0.426E+00 0.108E+01 0.157E+01 0.157E+01
         8 0.212E+00 0.912E+00 0.188E+01


 Contracted 2-electron integrals neglected if value below      1.0D-12
 AO integral compression algorithm  1   Integral accuracy      1.0D-12

     14.418 MB (compressed) written to integral file ( 65.0%)


 NUMBER OF SORTED TWO-ELECTRON INTEGRALS:    1497820.     BUFFER LENGTH:  32768
 NUMBER OF SEGMENTS:   1  SEGMENT LENGTH:    1497820      RECORD LENGTH: 524288

 Memory used in sort:       2.05 MW

 SORT1 READ     2746375. AND WROTE     1138997. INTEGRALS IN      4 RECORDS. CPU TIME:     0.08 SEC, REAL TIME:     0.12 SEC
 SORT2 READ     1138997. AND WROTE     1497820. INTEGRALS IN     55 RECORDS. CPU TIME:     0.10 SEC, REAL TIME:     0.19 SEC

 FILE SIZES:   FILE 1:    33.7 MBYTE,  FILE 4:    16.8 MBYTE,   TOTAL:     50.6 MBYTE

 OPERATOR DM      FOR CENTER  0  COORDINATES:    0.000000    0.000000    0.000000
 OPERATOR EKIN    FOR CENTER  0  COORDINATES:    0.000000    0.000000    0.000000
 OPERATOR POT     FOR CENTER  0  COORDINATES:    0.000000    0.000000    0.000000


 **********************************************************************************************************************************
 DATASETS  * FILE   NREC   LENGTH (MB)   RECORD NAMES
              1      20       26.94       500      610      700      900      950      970     1000      129      960     1100   
                                          VAR    BASINP    GEOM    SYMINP    ZMAT    AOBASIS   BASIS     P2S    ABASIS      S 
                                         1400     1410     1420     1200     1210     1080     1600     1650     1300     1700   
                                         EKIN       V       ECP      H0       H01     AOSYM     SMH    MOLCAS    ERIS     OPER   

 PROGRAMS   *        TOTAL       INT
 CPU TIMES  *         1.94      1.82
 REAL TIME  *         3.67 SEC
 DISK USED  *        50.86 MB      
 **********************************************************************************************************************************


 PROGRAM * RHF-SCF (OPEN SHELL)       Authors: W. Meyer, H.-J. Werner


 NUMBER OF ELECTRONS:      10+    7-    SPACE SYMMETRY=1    SPIN SYMMETRY: Quartet 
 CONVERGENCE THRESHOLDS:    1.00E-05 (Density)    1.00E-07 (Energy)
 MAX. NUMBER OF ITERATIONS:       60
 INTERPOLATION TYPE:            DIIS
 INTERPOLATION STEPS:              2 (START)      1 (STEP)
 LEVEL SHIFTS:                 -0.60 (CLOSED) -0.30 (OPEN) 


 Singly occupied orbitals:      1.4       1.6       1.7
 
 Extra symmetries of mos in symmetry 1:   1   1   3   2

   Atom=CO basis=ECP10MDF_GUESS    lmin=0  lmax=2

 Orbital guess generated from atomic densities. Full valence occupancy:    4   1   1   1   1   1   1   0


 Molecular orbital dump at record        4202.2

 ITERATION    DDIFF          GRAD             ENERGY        2-EL.EN.            DIPOLE MOMENTS         DIIS   ORB.
    1      0.000D+00      0.000D+00      -144.24978218    216.761617    0.00000    0.00000    0.00000    0    start
    2      0.000D+00      0.320D-01      -144.31175651    225.646584    0.00000    0.00000    0.00000    1    diag,B
    3      0.102D-01      0.225D-01      -144.32979494    223.346000    0.00000    0.00000    0.00000    2    diag,B
    4      0.308D-02      0.386D-02      -144.33097619    223.206092    0.00000    0.00000    0.00000    3    diag,B
    5      0.110D-02      0.666D-03      -144.33110548    223.200630    0.00000    0.00000    0.00000    4    diag,B
    6      0.739D-03      0.214D-03      -144.33113048    223.166213    0.00000    0.00000    0.00000    5    diag,B
    7      0.392D-03      0.808D-04      -144.33113544    223.149682    0.00000    0.00000    0.00000    6    fixocc
    8      0.316D-03      0.345D-04      -144.33113665    223.141374    0.00000    0.00000    0.00000    7    diag,B
    9      0.545D-03      0.120D-04      -144.33113680    223.138319    0.00000    0.00000    0.00000    8    diag,B
   10      0.287D-03      0.304D-05      -144.33113680    223.138040    0.00000    0.00000    0.00000    9    orth
   11      0.531D-04      0.623D-06      -144.33113680    223.137951    0.00000    0.00000    0.00000    9    diag,B
   12      0.573D-05      0.113D-06      -144.33113680    223.137942    0.00000    0.00000    0.00000    0    orth

 Final alpha occupancy:   4   1   1   1   1   1   1   0
 Final beta  occupancy:   4   1   1   0   1   0   0   0

 !RHF STATE 1.1 Energy               -144.331136804501
 Nuclear energy                         0.00000000
 One-electron energy                 -255.90010766
 Two-electron energy                  111.56897085
 Virial quotient                       -1.63342672
 !RHF STATE 1.1 Dipole moment           0.00000000     0.00000000     0.00000000
 Dipole moment /Debye                   0.00000000     0.00000000     0.00000000
 

 !RHF expec          <1.1|EKIN|1.1>    88.360949832186
 
 !RHF expec           <1.1|POT|1.1>   -21.147183570812

 ELECTRON ORBITALS
 =================


   Orb  Occ    Energy  Couls-En    Coefficients

                                   1 1s      1 1s      1 1s      1 1s      1 1s      1 1s      1 1s      1 3d0     1 3d2+    1 3d0  
                                   1 3d2+    1 3d0     1 3d2+    1 3d0     1 3d2+    1 3d0     1 3d2+    1 3d0     1 3d2+    1 5g0  
                                   1 5g4+    1 5g2+    1 5g0     1 5g4+    1 5g2+ 

   1.1   2    -4.6571  -23.9239  0.999895  0.000191  0.000042  0.000113 -0.000136  0.000197 -0.000091 -0.000000 -0.000000  0.000000
                                 0.000000  0.000000  0.000000 -0.000000 -0.000000  0.000000  0.000000 -0.000000 -0.000000  0.000710
                                 0.000600 -0.000000  0.000153  0.000130  0.000000

   2.1   2    -0.2713   -6.4622 -0.000148  0.999859 -0.000507 -0.000054  0.000172  0.000069 -0.000037  0.000000 -0.000000  0.000000
                                -0.000000  0.000000 -0.000000 -0.000000  0.000000 -0.000000 -0.000000  0.000000 -0.000000  0.000134
                                 0.000113  0.000000  0.000021  0.000018  0.000000

   3.1   2    -0.6222  -14.8050 -0.000000 -0.000000  0.000000 -0.000000  0.000000  0.000000 -0.000000  0.052745  1.003911 -0.002794
                                -0.053187 -0.000894 -0.017021 -0.000622 -0.011834 -0.000208 -0.003952  0.000003  0.000061  0.000016
                                -0.000019 -0.000464  0.000003 -0.000004 -0.000096

   4.1   2    -0.6222  -14.8050 -0.000000 -0.000000  0.000000 -0.000000  0.000000  0.000000 -0.000000  1.003911 -0.052745 -0.053187
                                 0.002794 -0.017021  0.000894 -0.011834  0.000622 -0.003952  0.000208  0.000061 -0.000003  0.000299
                                -0.000354  0.000024  0.000062 -0.000074  0.000005

   5.1   0     0.0811   -2.7897 -0.625755 -2.924367  0.725021 -0.283983  3.426779  0.122700 -0.148276 -0.000000  0.000000  0.000000
                                 0.000000  0.000000  0.000000 -0.000000 -0.000000  0.000000  0.000000 -0.000000 -0.000000  0.000107
                                 0.000091  0.000000 -0.000135 -0.000114  0.000000

   6.1   0     0.2553   -3.5650  0.000000  0.000000 -0.000000  0.000000 -0.000000 -0.000000  0.000000 -0.000223 -0.222203 -0.000232
                                -0.231470 -0.000159 -0.158806  0.001276  1.272808 -0.000088 -0.087405  0.000029  0.028536  0.000000
                                -0.000000 -0.000244  0.000000 -0.000000 -0.000092

                                   1 2px     1 2px     1 2px     1 2px     1 2px     1 2px     1 2px     1 4f1+    1 4f3+    1 4f1+ 
                                   1 4f3+    1 4f1+    1 4f3+ 

   1.2   2    -3.0427  -20.5675  1.005111  0.014278  0.012854 -0.001256 -0.004019 -0.005333  0.000870 -0.003310  0.004273 -0.001842
                                 0.002379 -0.000386  0.000498

   2.2   0     0.0423   -3.7575 -0.133173  0.139554  0.053811  0.043316  0.919454  0.069333 -0.010411  0.000150 -0.000194 -0.000175
                                 0.000225  0.000001 -0.000001

   3.2   0     0.2186   -4.1699  0.475342  2.152249 -0.376086 -0.246908 -2.189744 -0.363972  0.051560  0.000333 -0.000430 -0.000293
                                 0.000378  0.000003 -0.000003

                                   1 2py     1 2py     1 2py     1 2py     1 2py     1 2py     1 2py     1 4f1-    1 4f3-    1 4f1- 
                                   1 4f3-    1 4f1-    1 4f3- 

   1.3   2    -3.0427  -20.5675  1.005111  0.014278  0.012854 -0.001256 -0.004019 -0.005333  0.000870 -0.003310 -0.004273 -0.001842
                                -0.002379 -0.000386 -0.000498

   2.3   0     0.0423   -3.7575 -0.133173  0.139554  0.053811  0.043316  0.919454  0.069333 -0.010411  0.000150  0.000194 -0.000175
                                -0.000225  0.000001  0.000001

   3.3   0     0.2186   -4.1699  0.475342  2.152249 -0.376086 -0.246908 -2.189744 -0.363972  0.051560  0.000333  0.000430 -0.000293
                                -0.000378  0.000003  0.000003

                                   1 3d2-    1 3d2-    1 3d2-    1 3d2-    1 3d2-    1 3d2-    1 5g2-    1 5g4-    1 5g2-    1 5g4- 


   1.4   +    -0.7201  -15.0884  0.999645 -0.086862 -0.026482 -0.004870 -0.002129  0.000640  0.000984 -0.000000  0.000237  0.000000

   2.4   0     0.2534   -3.5385 -0.201479 -0.223184 -0.155208  1.264364 -0.086257  0.028135 -0.000114  0.000000 -0.000044 -0.000000

   3.4   0     0.9397   -5.2745  0.180606  1.935588  1.060020 -1.799419  0.477370 -0.126851 -0.000262  0.000000 -0.000149  0.000000

                                   1 2pz     1 2pz     1 2pz     1 2pz     1 2pz     1 2pz     1 2pz     1 4f0     1 4f2+    1 4f0  
                                   1 4f2+    1 4f0     1 4f2+ 

   1.5   2    -3.0427  -20.5675  1.005111  0.014278  0.012854 -0.001256 -0.004019 -0.005333  0.000870  0.005405 -0.000000  0.003009
                                -0.000000  0.000630  0.000000

   2.5   0     0.0423   -3.7575 -0.133173  0.139554  0.053811  0.043316  0.919454  0.069333 -0.010411 -0.000246  0.000000  0.000285
                                -0.000000 -0.000001  0.000000

   3.5   0     0.2186   -4.1699  0.475342  2.152249 -0.376086 -0.246908 -2.189744 -0.363972  0.051560 -0.000545 -0.000000  0.000479
                                -0.000000 -0.000004 -0.000000

                                   1 3d1+    1 3d1+    1 3d1+    1 3d1+    1 3d1+    1 3d1+    1 5g1+    1 5g3+    1 5g1+    1 5g3+ 


   1.6   +    -0.7201  -15.0884  0.999645 -0.086862 -0.026482 -0.004870 -0.002129  0.000640 -0.000348 -0.000920 -0.000084 -0.000222

   2.6   0     0.2534   -3.5385 -0.201479 -0.223184 -0.155208  1.264364 -0.086257  0.028135  0.000040  0.000107  0.000016  0.000041

   3.6   0     0.9397   -5.2745  0.180606  1.935588  1.060020 -1.799419  0.477370 -0.126851  0.000093  0.000245  0.000053  0.000139

                                   1 3d1-    1 3d1-    1 3d1-    1 3d1-    1 3d1-    1 3d1-    1 5g1-    1 5g3-    1 5g1-    1 5g3- 


   1.7   +    -0.7201  -15.0884  0.999645 -0.086862 -0.026482 -0.004870 -0.002129  0.000640 -0.000348  0.000920 -0.000084  0.000222

   2.7   0     0.2534   -3.5385 -0.201479 -0.223184 -0.155208  1.264364 -0.086257  0.028135  0.000040 -0.000107  0.000016 -0.000041

   3.7   0     0.9397   -5.2745  0.180606  1.935588  1.060020 -1.799419  0.477370 -0.126851  0.000093 -0.000245  0.000053 -0.000139

                                   1 4f2-    1 4f2-    1 4f2- 

   1.8   0     2.9057   -5.0644  0.990471  0.015035  0.029157

   2.8   0    10.9448    5.8234 -0.438691  1.160905 -0.114742

 HOMO      4.1    -0.622224 =     -16.9316eV
 LUMO      2.2     0.042265 =       1.1501eV
 LUMO-HOMO         0.664489 =      18.0817eV


 **********************************************************************************************************************************
 DATASETS  * FILE   NREC   LENGTH (MB)   RECORD NAMES
              1      20       26.94       500      610      700      900      950      970     1000      129      960     1100   
                                          VAR    BASINP    GEOM    SYMINP    ZMAT    AOBASIS   BASIS     P2S    ABASIS      S 
                                         1400     1410     1420     1200     1210     1080     1600     1650     1300     1700   
                                         EKIN       V       ECP      H0       H01     AOSYM     SMH    MOLCAS    ERIS     OPER   

              2       4        2.81       700     1000      520     4202   
                                         GEOM     BASIS   MCVARS     RHF  

 PROGRAMS   *        TOTAL       RHF       INT
 CPU TIMES  *         2.10      0.15      1.82
 REAL TIME  *         4.03 SEC
 DISK USED  *        50.86 MB      
 **********************************************************************************************************************************


 PROGRAM * POP (Mulliken population analysis)

 
 Density matrix read from record         4202.2  Type=RHF/CHARGE (state 1.1)
 
 Population analysis by basis function type

 Unique atom        s        p        d        f        g    Total    Charge
   1  CO      4.00000  5.99968  7.00000  0.00032  0.00001 17.00000  + 0.00000


 **********************************************************************************************************************************
 DATASETS  * FILE   NREC   LENGTH (MB)   RECORD NAMES
              1      20       26.94       500      610      700      900      950      970     1000      129      960     1100   
                                          VAR    BASINP    GEOM    SYMINP    ZMAT    AOBASIS   BASIS     P2S    ABASIS      S 
                                         1400     1410     1420     1200     1210     1080     1600     1650     1300     1700   
                                         EKIN       V       ECP      H0       H01     AOSYM     SMH    MOLCAS    ERIS     OPER   

              2       4        2.81       700     1000      520     4202   
                                         GEOM     BASIS   MCVARS     RHF  

 PROGRAMS   *        TOTAL       POP       RHF       INT
 CPU TIMES  *         2.10      0.00      0.15      1.82
 REAL TIME  *         4.05 SEC
 DISK USED  *        50.86 MB      
 **********************************************************************************************************************************


 PROGRAM * MULTI (Direct Multiconfiguration SCF)       Authors: P.J. Knowles, H.-J. Werner (1984)     S.T. Elbert (1988)


 Number of closed-shell orbitals:   5 (   2   1   1   0   1   0   0   0 )
 Number of active  orbitals:        5 (   2   0   0   1   0   1   1   0 )
 Number of external orbitals:      87 (  21  12  12   9  12   9   9   3 )

 State symmetry 1

 Number of electrons:     7    Spin symmetry=Quartet   Space symmetry=1
 Number of states:        1
 Number of CSFs:          1   (1 determinants, 10 intermediate states)

 State symmetry 2

 Number of electrons:     7    Spin symmetry=Quartet   Space symmetry=4
 Number of states:        3
 Number of CSFs:          3   (3 determinants, 10 intermediate states)

 State symmetry 3

 Number of electrons:     7    Spin symmetry=Quartet   Space symmetry=6
 Number of states:        3
 Number of CSFs:          3   (3 determinants, 10 intermediate states)

 State symmetry 4

 Number of electrons:     7    Spin symmetry=Quartet   Space symmetry=7
 Number of states:        3
 Number of CSFs:          3   (3 determinants, 10 intermediate states)

 Molecular orbitals read from record     4202.2  Type=RHF/CANONICAL (state 1.1)
 *** IN SYMMETRY 1 ORBITAL  1 SYMMETRY CONTAMINATION OF 0.159D-02 HAS BEEN REMOVED
 *** IN SYMMETRY 1 ORBITAL  2 SYMMETRY CONTAMINATION OF 0.285D-03 HAS BEEN REMOVED
 *** IN SYMMETRY 1 ORBITAL  3 SYMMETRY CONTAMINATION OF 0.504D-01 HAS BEEN REMOVED
 *** IN SYMMETRY 1 ORBITAL  4 SYMMETRY CONTAMINATION OF 0.506D-01 HAS BEEN REMOVED

 EXTRA SYMMETRY OF MOS IN SYMMETRY 1:   1 1 3 2 1 3 2 1 2 3   1 3 2 5 6 1 1 3 2 3   2 6 5 4 4
 *** IN SYMMETRY 2 ORBITAL  1 SYMMETRY CONTAMINATION OF 0.120D-01 HAS BEEN REMOVED
 EXTRA SYMMETRY OF MOS IN SYMMETRY 2:   1 1 1 1 2 3 1 2 3 1   2 3 1
 *** IN SYMMETRY 3 ORBITAL  1 SYMMETRY CONTAMINATION OF 0.120D-01 HAS BEEN REMOVED
 EXTRA SYMMETRY OF MOS IN SYMMETRY 3:   1 1 1 1 2 3 1 2 3 1   2 3 1
 *** IN SYMMETRY 4 ORBITAL  1 SYMMETRY CONTAMINATION OF 0.109D-02 HAS BEEN REMOVED
 EXTRA SYMMETRY OF MOS IN SYMMETRY 4:   1 1 1 1 2 3 1 1 2 3
 *** IN SYMMETRY 5 ORBITAL  1 SYMMETRY CONTAMINATION OF 0.859D-02 HAS BEEN REMOVED
 EXTRA SYMMETRY OF MOS IN SYMMETRY 5:   1 1 1 1 3 2 1 3 2 1   3 2 1
 *** IN SYMMETRY 6 ORBITAL  1 SYMMETRY CONTAMINATION OF 0.140D-02 HAS BEEN REMOVED
 EXTRA SYMMETRY OF MOS IN SYMMETRY 6:   1 1 1 1 3 2 1 1 3 2
 *** IN SYMMETRY 7 ORBITAL  1 SYMMETRY CONTAMINATION OF 0.140D-02 HAS BEEN REMOVED
 EXTRA SYMMETRY OF MOS IN SYMMETRY 7:   1 1 1 1 3 2 1 1 3 2

 Wavefunction dump at record             5202.2

 Convergence thresholds  0.10E-01 (gradient)  0.10E-05 (energy)  0.10E-02 (step length)

 Weight factors for state symmetry  1:    0.10000
 Weight factors for state symmetry  2:    0.10000   0.10000   0.10000
 Weight factors for state symmetry  3:    0.10000   0.10000   0.10000
 Weight factors for state symmetry  4:    0.10000   0.10000   0.10000

 Number of orbital rotations:      151   (     4 Core/Active     78 Core/Virtual   0 Active/Active     69 Active/Virtual)
 Total number of variables:        179


 ITER. MIC  NCI  NEG     ENERGY(VAR)     ENERGY(PROJ)   ENERGY CHANGE     GRAD(0)  GRAD(ORB)   GRAD(CI)     STEP       TIME

   1   30   16    0    -144.30016915    -144.30221528   -0.00204612    0.07638751 0.00000000 0.00000000  0.37D-01      0.03
   2   17   20    0    -144.30222310    -144.30222328   -0.00000018    0.00071301 0.00000000 0.00000000  0.44D-03      0.07
   3   41   36    0    -144.30222328    -144.30222328    0.00000000    0.00000009 0.00000000 0.00000000  0.65D-07      0.10

 ** WVFN ****  CONVERGENCE REACHED, FINAL GRADIENT:  0.33D-12



 Results for state 1.1
 =====================

 !MCSCF STATE 1.1 Energy             -144.327330737533
 Nuclear energy                         0.00000000
 Kinetic energy                        88.30106436
 One electron energy                 -255.87380802
 Two electron energy                  111.54647728
 Virial ratio                           2.63449140

 !MCSCF STATE 1.1 Dipole moment         0.00000000     0.00000000     0.00000000
 Dipole moment /Debye                   0.00000000     0.00000000     0.00000000



 Results for state 1.4
 =====================

 !MCSCF STATE 1.4 Energy             -144.327330737533
 Nuclear energy                         0.00000000
 Kinetic energy                        88.30106436
 One electron energy                 -255.87380802
 Two electron energy                  111.54647728
 Virial ratio                           2.63449140

 !MCSCF STATE 1.4 Dipole moment         0.00000000     0.00000000     0.00000000
 Dipole moment /Debye                   0.00000000     0.00000000     0.00000000

 Results for state 2.4
 =====================

 !MCSCF STATE 2.4 Energy             -144.327330737533
 Nuclear energy                         0.00000000
 Kinetic energy                        88.30106436
 One electron energy                 -255.87380802
 Two electron energy                  111.54647728
 Virial ratio                           2.63449140

 !MCSCF STATE 2.4 Dipole moment         0.00000000     0.00000000     0.00000000
 Dipole moment /Debye                   0.00000000     0.00000000     0.00000000

 Results for state 3.4
 =====================

 !MCSCF STATE 3.4 Energy             -144.243639209967
 Nuclear energy                         0.00000000
 Kinetic energy                        88.30106436
 One electron energy                 -255.87380802
 Two electron energy                  111.63016881
 Virial ratio                           2.63354361

 !MCSCF STATE 3.4 Dipole moment         0.00000000     0.00000000     0.00000000
 Dipole moment /Debye                   0.00000000     0.00000000     0.00000000



 Results for state 1.6
 =====================

 !MCSCF STATE 1.6 Energy             -144.327330737533
 Nuclear energy                         0.00000000
 Kinetic energy                        88.30106436
 One electron energy                 -255.87380802
 Two electron energy                  111.54647728
 Virial ratio                           2.63449140

 !MCSCF STATE 1.6 Dipole moment         0.00000000     0.00000000     0.00000000
 Dipole moment /Debye                   0.00000000     0.00000000     0.00000000

 Results for state 2.6
 =====================

 !MCSCF STATE 2.6 Energy             -144.327330737533
 Nuclear energy                         0.00000000
 Kinetic energy                        88.30106436
 One electron energy                 -255.87380802
 Two electron energy                  111.54647728
 Virial ratio                           2.63449140

 !MCSCF STATE 2.6 Dipole moment         0.00000000     0.00000000     0.00000000
 Dipole moment /Debye                   0.00000000     0.00000000     0.00000000

 Results for state 3.6
 =====================

 !MCSCF STATE 3.6 Energy             -144.243639209967
 Nuclear energy                         0.00000000
 Kinetic energy                        88.30106436
 One electron energy                 -255.87380802
 Two electron energy                  111.63016881
 Virial ratio                           2.63354361

 !MCSCF STATE 3.6 Dipole moment         0.00000000     0.00000000     0.00000000
 Dipole moment /Debye                   0.00000000     0.00000000     0.00000000



 Results for state 1.7
 =====================

 !MCSCF STATE 1.7 Energy             -144.327330737533
 Nuclear energy                         0.00000000
 Kinetic energy                        88.30106436
 One electron energy                 -255.87380802
 Two electron energy                  111.54647728
 Virial ratio                           2.63449140

 !MCSCF STATE 1.7 Dipole moment         0.00000000     0.00000000     0.00000000
 Dipole moment /Debye                   0.00000000     0.00000000     0.00000000

 Results for state 2.7
 =====================

 !MCSCF STATE 2.7 Energy             -144.327330737533
 Nuclear energy                         0.00000000
 Kinetic energy                        88.30106436
 One electron energy                 -255.87380802
 Two electron energy                  111.54647728
 Virial ratio                           2.63449140

 !MCSCF STATE 2.7 Dipole moment         0.00000000     0.00000000     0.00000000
 Dipole moment /Debye                   0.00000000     0.00000000     0.00000000

 Results for state 3.7
 =====================

 !MCSCF STATE 3.7 Energy             -144.243639209967
 Nuclear energy                         0.00000000
 Kinetic energy                        88.30106436
 One electron energy                 -255.87380802
 Two electron energy                  111.63016881
 Virial ratio                           2.63354361

 !MCSCF STATE 3.7 Dipole moment         0.00000000     0.00000000     0.00000000
 Dipole moment /Debye                   0.00000000     0.00000000     0.00000000

 State-averaged charge density matrix saved on record  5202.2 (density set 1)

 !MCSCF expec        <1.1|EKIN|1.1>    88.301064362002
 !MCSCF expec        <1.4|EKIN|1.4>    88.301064362001
 !MCSCF expec        <2.4|EKIN|2.4>    88.301064362002
 !MCSCF expec        <3.4|EKIN|3.4>    88.301064362001
 !MCSCF expec        <1.6|EKIN|1.6>    88.301064362001
 !MCSCF expec        <2.6|EKIN|2.6>    88.301064362001
 !MCSCF expec        <3.6|EKIN|3.6>    88.301064362001
 !MCSCF expec        <1.7|EKIN|1.7>    88.301064362001
 !MCSCF expec        <2.7|EKIN|2.7>    88.301064362001
 !MCSCF expec        <3.7|EKIN|3.7>    88.301064362001

 !MCSCF expec         <1.1|POT|1.1>   -21.142663099316
 !MCSCF expec         <1.4|POT|1.4>   -21.142663099316
 !MCSCF expec         <2.4|POT|2.4>   -21.142663099316
 !MCSCF expec         <3.4|POT|3.4>   -21.142663099316
 !MCSCF expec         <1.6|POT|1.6>   -21.142663099316
 !MCSCF expec         <2.6|POT|2.6>   -21.142663099316
 !MCSCF expec         <3.6|POT|3.6>   -21.142663099316
 !MCSCF expec         <1.7|POT|1.7>   -21.142663099316
 !MCSCF expec         <2.7|POT|2.7>   -21.142663099316
 !MCSCF expec         <3.7|POT|3.7>   -21.142663099316


 NATURAL ORBITALS (state averaged)
 =================================

   Orb     Occ        Energy       Coefficients

                                   1 1s      1 1s      1 1s      1 1s      1 1s      1 1s      1 1s      1 3d0     1 3d2+    1 3d0  
                                   1 3d2+    1 3d0     1 3d2+    1 3d0     1 3d2+    1 3d0     1 3d2+    1 3d0     1 3d2+    1 5g0  
                                   1 5g4+    1 5g2+    1 5g0     1 5g4+    1 5g2+ 

   1.1  2.00000    -4.659629     0.999973 -0.000011  0.000004 -0.000006  0.000013  0.000039 -0.000018  0.000000  0.000000  0.000000
                                 0.000000  0.000000  0.000000  0.000000  0.000000  0.000000  0.000000  0.000000  0.000000  0.000000
                                 0.000000  0.000000  0.000000  0.000000  0.000000

   2.1  2.00000    -0.271459    -0.000035  1.000003  0.000035 -0.000023 -0.000003  0.000056 -0.000026  0.000000  0.000000  0.000000
                                 0.000000  0.000000  0.000000  0.000000  0.000000  0.000000  0.000000  0.000000  0.000000  0.000000
                                 0.000000  0.000000  0.000000  0.000000  0.000000

   3.1  1.40000    -0.367162     0.000000  0.000000  0.000000  0.000000  0.000000  0.000000  0.000000  1.003424  0.000000 -0.066222
                                 0.000000 -0.020654  0.000000 -0.009448  0.000000 -0.003375  0.000000  0.000252  0.000000  0.000000
                                 0.000000  0.000000  0.000000  0.000000  0.000000

   4.1  1.40000    -0.367162     0.000000  0.000000  0.000000  0.000000  0.000000  0.000000  0.000000  0.000000  1.003424  0.000000
                                -0.066222  0.000000 -0.020654  0.000000 -0.009448  0.000000 -0.003375  0.000000  0.000252  0.000000
                                 0.000000  0.000000  0.000000  0.000000  0.000000

                                   1 2px     1 2px     1 2px     1 2px     1 2px     1 2px     1 2px     1 4f1+    1 4f3+    1 4f1+ 
                                   1 4f3+    1 4f1+    1 4f3+ 

   1.2  2.00000    -3.044627     1.005127  0.014110  0.012688 -0.001206 -0.003963 -0.005322  0.000864  0.000000  0.000000  0.000000
                                 0.000000  0.000000  0.000000

                                   1 2py     1 2py     1 2py     1 2py     1 2py     1 2py     1 2py     1 4f1-    1 4f3-    1 4f1- 
                                   1 4f3-    1 4f1-    1 4f3- 

   1.3  2.00000    -3.044627     1.005127  0.014110  0.012688 -0.001206 -0.003963 -0.005322  0.000864  0.000000  0.000000  0.000000
                                 0.000000  0.000000  0.000000

                                   1 3d2-    1 3d2-    1 3d2-    1 3d2-    1 3d2-    1 3d2-    1 5g2-    1 5g4-    1 5g2-    1 5g4- 


   1.4  1.40000    -0.367162     1.003424 -0.066222 -0.020654 -0.009448 -0.003375  0.000252  0.000000  0.000000  0.000000  0.000000

                                   1 2pz     1 2pz     1 2pz     1 2pz     1 2pz     1 2pz     1 2pz     1 4f0     1 4f2+    1 4f0  
                                   1 4f2+    1 4f0     1 4f2+ 

   1.5  2.00000    -3.044627     1.005127  0.014110  0.012688 -0.001206 -0.003963 -0.005322  0.000864  0.000000  0.000000  0.000000
                                 0.000000  0.000000  0.000000

                                   1 3d1+    1 3d1+    1 3d1+    1 3d1+    1 3d1+    1 3d1+    1 5g1+    1 5g3+    1 5g1+    1 5g3+ 


   1.6  1.40000    -0.367162     1.003424 -0.066222 -0.020654 -0.009448 -0.003375  0.000252  0.000000  0.000000  0.000000  0.000000

                                   1 3d1-    1 3d1-    1 3d1-    1 3d1-    1 3d1-    1 3d1-    1 5g1-    1 5g3-    1 5g1-    1 5g3- 


   1.7  1.40000    -0.367162     1.003424 -0.066222 -0.020654 -0.009448 -0.003375  0.000252  0.000000  0.000000  0.000000  0.000000
 

 EXTRA SYMMETRY OF MOS IN SYMMETRY 1:   1 1 2 3 1 3 2 1 3 2   1 3 2 5 4 6 1 3 2 3   2 6 4 5 1
 EXTRA SYMMETRY OF MOS IN SYMMETRY 4:   1 1 1 1 3 2 1 1 3 2
 EXTRA SYMMETRY OF MOS IN SYMMETRY 5:   1 1 1 1 3 2 1 2 3 1   2 3 1
 EXTRA SYMMETRY OF MOS IN SYMMETRY 6:   1 1 1 1 3 2 1 1 2 3
 EXTRA SYMMETRY OF MOS IN SYMMETRY 7:   1 1 1 1 3 2 1 1 2 3

 Natural orbital dump (state averaged) at molpro section  5202.2    (Orbital set 2)


 CI vector for state symmetry 1
 ==============================

 22 a a a          1.0000000

 TOTAL ENERGIES                      -144.32733074

 CI vector for state symmetry 2
 ==============================

 2a 2 a a          0.0000000   1.0000000   0.0000000
 a2 2 a a         -0.4472136   0.0000000   0.8944272
 aa a 2 2          0.8944272   0.0000000   0.4472136

 TOTAL ENERGIES                      -144.32733074  -144.32733074  -144.24363921

 CI vector for state symmetry 3
 ==============================

 2a a 2 a         -0.6273645  -0.0800863   0.7745967
 aa 2 a 2          0.4537743   0.7707716   0.4472136
 a2 a 2 a          0.6328528  -0.6320580   0.4472136

 TOTAL ENERGIES                      -144.32733074  -144.32733074  -144.24363921

 CI vector for state symmetry 4
 ==============================

 2a a a 2          0.6291920  -0.0641667   0.7745967
 aa 2 2 a         -0.4731557   0.7590281   0.4472136
 a2 a a 2          0.6166369   0.6478881  -0.4472136

 TOTAL ENERGIES                      -144.32733074  -144.32733074  -144.24363921



 **********************************************************************************************************************************
 DATASETS  * FILE   NREC   LENGTH (MB)   RECORD NAMES
              1      21       27.79       500      610      700      900      950      970     1000      129      960     1100   
                                          VAR    BASINP    GEOM    SYMINP    ZMAT    AOBASIS   BASIS     P2S    ABASIS      S 
                                         1400     1410     1420     1200     1210     1080     1600     1650     1300     1700   
                                         EKIN       V       ECP      H0       H01     AOSYM     SMH    MOLCAS    ERIS     OPER   
                                         1380   
                                         JKOP   

              2       5        5.35       700     1000      520     4202     5202   
                                         GEOM     BASIS   MCVARS     RHF     MCSCF   

 PROGRAMS   *        TOTAL     MULTI       POP       RHF       INT
 CPU TIMES  *         2.32      0.21      0.00      0.15      1.82
 REAL TIME  *         5.46 SEC
 DISK USED  *        50.86 MB      
 **********************************************************************************************************************************


 PROGRAM * RHF-SCF (OPEN SHELL)       Authors: W. Meyer, H.-J. Werner


 NUMBER OF ELECTRONS:      10+    7-    SPACE SYMMETRY=1    SPIN SYMMETRY: Quartet 
 CONVERGENCE THRESHOLDS:    1.00E-05 (Density)    1.00E-07 (Energy)
 MAX. NUMBER OF ITERATIONS:        0
 INTERPOLATION TYPE:            DIIS
 INTERPOLATION STEPS:              2 (START)      1 (STEP)
 LEVEL SHIFTS:                 -0.60 (CLOSED) -0.30 (OPEN) 


 Singly occupied orbitals:      1.4       1.6       1.7
 Molecular orbitals read from record     5202.2  Type=MCSCF/NATURAL (state averaged)

 Molecular orbital dump at record        2101.2

 ITERATION    DDIFF          GRAD             ENERGY        2-EL.EN.            DIPOLE MOMENTS         DIIS   ORB.
    1      0.000D+00      0.000D+00      -144.32733074    223.092955    0.00000    0.00000    0.00000    0    start

 Final alpha occupancy:   4   1   1   1   1   1   1   0
 Final beta  occupancy:   4   1   1   0   1   0   0   0

 !RHF STATE 1.1 Energy               -144.327330737533
 Nuclear energy                         0.00000000
 One-electron energy                 -255.87380802
 Two-electron energy                  111.54647728
 Virial quotient                       -1.63449140
 !RHF STATE 1.1 Dipole moment           0.00000000     0.00000000     0.00000000
 Dipole moment /Debye                   0.00000000     0.00000000     0.00000000
 

 !RHF expec          <1.1|EKIN|1.1>    88.301064362002
 
 !RHF expec           <1.1|POT|1.1>   -21.142663099316

 ELECTRON ORBITALS
 =================


   Orb  Occ    Energy  Couls-En    Coefficients

                                   1 1s      1 1s      1 1s      1 1s      1 1s      1 1s      1 1s      1 3d0     1 3d2+    1 3d0  
                                   1 3d2+    1 3d0     1 3d2+    1 3d0     1 3d2+    1 3d0     1 3d2+    1 3d0     1 3d2+    1 5g0  
                                   1 5g4+    1 5g2+    1 5g0     1 5g4+    1 5g2+ 

   1.1   2    -4.6596  -23.9272  0.999973 -0.000011  0.000004 -0.000006  0.000013  0.000039 -0.000018  0.000000  0.000000  0.000000
                                 0.000000  0.000000  0.000000  0.000000  0.000000  0.000000  0.000000  0.000000  0.000000  0.000000
                                 0.000000  0.000000  0.000000  0.000000  0.000000

   2.1   2    -0.2715   -6.4651 -0.000035  1.000003  0.000035 -0.000023 -0.000003  0.000056 -0.000026  0.000000  0.000000  0.000000
                                 0.000000  0.000000  0.000000  0.000000  0.000000  0.000000  0.000000  0.000000  0.000000  0.000000
                                 0.000000  0.000000  0.000000  0.000000  0.000000

   3.1   2    -0.3672  -14.6234  0.000000  0.000000  0.000000  0.000000  0.000000  0.000000  0.000000  1.003424  0.000000 -0.066222
                                 0.000000 -0.020654  0.000000 -0.009448  0.000000 -0.003375  0.000000  0.000252  0.000000  0.000000
                                 0.000000  0.000000  0.000000  0.000000  0.000000

   4.1   2    -0.3672  -14.6234  0.000000  0.000000  0.000000  0.000000  0.000000  0.000000  0.000000  0.000000  1.003424  0.000000
                                -0.066222  0.000000 -0.020654  0.000000 -0.009448  0.000000 -0.003375  0.000000  0.000252  0.000000
                                 0.000000  0.000000  0.000000  0.000000  0.000000

                                   1 2px     1 2px     1 2px     1 2px     1 2px     1 2px     1 2px     1 4f1+    1 4f3+    1 4f1+ 
                                   1 4f3+    1 4f1+    1 4f3+ 

   1.2   2    -3.0446  -20.5709  1.005127  0.014110  0.012688 -0.001206 -0.003963 -0.005322  0.000864  0.000000  0.000000  0.000000
                                 0.000000  0.000000  0.000000

                                   1 2py     1 2py     1 2py     1 2py     1 2py     1 2py     1 2py     1 4f1-    1 4f3-    1 4f1- 
                                   1 4f3-    1 4f1-    1 4f3- 

   1.3   2    -3.0446  -20.5709  1.005127  0.014110  0.012688 -0.001206 -0.003963 -0.005322  0.000864  0.000000  0.000000  0.000000
                                 0.000000  0.000000  0.000000

                                   1 3d2-    1 3d2-    1 3d2-    1 3d2-    1 3d2-    1 3d2-    1 5g2-    1 5g4-    1 5g2-    1 5g4- 


   1.4   +    -0.3672  -14.6234  1.003424 -0.066222 -0.020654 -0.009448 -0.003375  0.000252  0.000000  0.000000  0.000000  0.000000

                                   1 2pz     1 2pz     1 2pz     1 2pz     1 2pz     1 2pz     1 2pz     1 4f0     1 4f2+    1 4f0  
                                   1 4f2+    1 4f0     1 4f2+ 

   1.5   2    -3.0446  -20.5709  1.005127  0.014110  0.012688 -0.001206 -0.003963 -0.005322  0.000864  0.000000  0.000000  0.000000
                                 0.000000  0.000000  0.000000

                                   1 3d1+    1 3d1+    1 3d1+    1 3d1+    1 3d1+    1 3d1+    1 5g1+    1 5g3+    1 5g1+    1 5g3+ 


   1.6   +    -0.3672  -14.6234  1.003424 -0.066222 -0.020654 -0.009448 -0.003375  0.000252  0.000000  0.000000  0.000000  0.000000

                                   1 3d1-    1 3d1-    1 3d1-    1 3d1-    1 3d1-    1 3d1-    1 5g1-    1 5g3-    1 5g1-    1 5g3- 


   1.7   +    -0.3672  -14.6234  1.003424 -0.066222 -0.020654 -0.009448 -0.003375  0.000252  0.000000  0.000000  0.000000  0.000000

 HOMO      4.1    -0.367162 =      -9.9910eV
 LUMO      2.2     0.044618 =       1.2141eV
 LUMO-HOMO         0.411780 =      11.2051eV


 **********************************************************************************************************************************
 DATASETS  * FILE   NREC   LENGTH (MB)   RECORD NAMES
              1      21       27.79       500      610      700      900      950      970     1000      129      960     1100   
                                          VAR    BASINP    GEOM    SYMINP    ZMAT    AOBASIS   BASIS     P2S    ABASIS      S 
                                         1400     1410     1420     1200     1210     1080     1600     1650     1300     1700   
                                         EKIN       V       ECP      H0       H01     AOSYM     SMH    MOLCAS    ERIS     OPER   
                                         1380   
                                         JKOP   

              2       6        7.96       700     1000      520     4202     5202     2101   
                                         GEOM     BASIS   MCVARS     RHF     MCSCF     RHF  

 PROGRAMS   *        TOTAL       RHF     MULTI       POP       RHF       INT
 CPU TIMES  *         2.36      0.05      0.21      0.00      0.15      1.82
 REAL TIME  *         5.62 SEC
 DISK USED  *        50.86 MB      
 **********************************************************************************************************************************
 SETTING SCF(I)         =      -144.32733074  AU                              
 SETTING _CC_NORM_MAX   =         2.00000000                                  


 PROGRAM * CCSD (Restricted open-shell coupled cluster)     Authors: C. Hampel, H.-J. Werner, 1991, M. Deegan, P.J. Knowles, 1992


 Convergence thresholds:  THRVAR = 1.00D-08  THRDEN = 1.00D-06

 CCSD(T)     terms to be evaluated (factor= 1.000)


 Number of closed-shell orbitals:   7 (   4   1   1   0   1   0   0   0 )
 Number of active  orbitals:        3 (   0   0   0   1   0   1   1   0 )
 Number of external orbitals:      87 (  21  12  12   9  12   9   9   3 )

 Memory could be reduced to 2.23 Mwords without degradation in triples

 Number of N-1 electron functions:              17
 Number of N-2 electron functions:             136
 Number of singly external CSFs:               270
 Number of doubly external CSFs:            107727
 Total number of CSFs:                      107997

 Molecular orbitals read from record     2101.2  Type=RHF/CANONICAL (state 1.1)

 Integral transformation finished. Total CPU:   0.05 sec, npass=  1  Memory used:   0.46 MW

 Starting RMP2 calculation

 Wavefunction is spin-projected

 ITER.      SQ.NORM     CORR.ENERGY   TOTAL ENERGY   ENERGY CHANGE        DEN1      VAR(S)    VAR(P)  DIIS     TIME
   1      1.10152133    -0.71656777  -145.04389850    -0.71656777    -0.00130137  0.71D-05  0.81D-03  1  1     0.06
   2      1.10361524    -0.71795148  -145.04528222    -0.00138372    -0.00001804  0.15D-06  0.18D-04  2  2     0.07
   3      1.10395483    -0.71808256  -145.04541330    -0.00013108    -0.00000009  0.11D-07  0.73D-07  3  3     0.07
   4      1.10396869    -0.71808582  -145.04541656    -0.00000326    -0.00000000  0.53D-09  0.70D-09  4  4     0.07
   5      1.10396876    -0.71808575  -145.04541649     0.00000007    -0.00000000  0.12D-10  0.12D-10  5  5     0.08

 Norm of t1 vector:      0.04557540      S-energy:    -0.00945737      T1 diagnostic:  0.00514186
 Norm of t2 vector:      0.31920470      P-energy:    -0.70862838
                                         Alpha-Beta:  -0.49359186
                                         Alpha-Alpha: -0.15004065
                                         Beta-Beta:   -0.06499587

 Spin contamination <S**2-Sz**2-Sz>     0.00000000
  Reference energy                   -144.327330737533
  RHF-RMP2 correlation energy          -0.718085749748
 !RHF-RMP2 energy                    -145.045416487281
 (NB above energy spin projected)

 Starting RCCSD calculation

 ITER.      SQ.NORM     CORR.ENERGY   TOTAL ENERGY   ENERGY CHANGE        DEN1      VAR(S)    VAR(P)  DIIS     TIME
   1      1.10120593    -0.68316863  -145.01049937    -0.68316863    -0.01696745  0.36D-02  0.36D-02  1  1     0.26
   2      1.11550752    -0.69718205  -145.02451279    -0.01401342    -0.00181275  0.53D-03  0.83D-03  2  2     0.45
   3      1.12577867    -0.70002511  -145.02735585    -0.00284306    -0.00031550  0.18D-03  0.12D-03  3  3     0.62
   4      1.13186215    -0.70165502  -145.02898576    -0.00162991    -0.00003700  0.18D-04  0.14D-04  4  4     0.81
   5      1.13434009    -0.70211496  -145.02944570    -0.00045993    -0.00000264  0.15D-05  0.87D-06  5  5     1.00
   6      1.13476879    -0.70216713  -145.02949786    -0.00005217    -0.00000025  0.74D-07  0.12D-06  6  6     1.19
   7      1.13482443    -0.70217470  -145.02950544    -0.00000758    -0.00000004  0.13D-07  0.18D-07  6  2     1.37
   8      1.13483749    -0.70217523  -145.02950597    -0.00000053    -0.00000000  0.54D-09  0.16D-08  6  1     1.55

 Norm of t1 vector:      0.12293988      S-energy:    -0.01016232      T1 diagnostic:  0.01909101
                                                                       D1 diagnostic:  0.06005045
 Norm of t2 vector:      0.34601051      P-energy:    -0.69201291
                                         Alpha-Beta:  -0.50093585
                                         Alpha-Alpha: -0.13132341
                                         Beta-Beta:   -0.05975365

 Singles amplitudes (print threshold =  0.500E-01):

         I         SYM. A    A   T(IA) [Alpha-Alpha]

         2         1         1     -0.06363094

 Doubles amplitudes (print threshold =  0.500E-01):

         I         J         SYM. A    SYM. B    A         B      T(IJ, AB) [Alpha-Beta]

         2         2         2         2         1         1     -0.07274697
         2         2         2         2         1         2     -0.05457771
         2         2         2         2         2         1     -0.05457771
         2         2         3         3         1         1     -0.07274697
         2         2         3         3         1         2     -0.05457771
         2         2         3         3         2         1     -0.05457771
         2         2         5         5         1         1     -0.07274697
         2         2         5         5         1         2     -0.05457771
         2         2         5         5         2         1     -0.05457771

 Spin contamination <S**2-Sz**2-Sz>     0.00000000

 Memory could be reduced to 2.48 Mwords without degradation in triples
 

  Correlated core orbitals:             1.1       1.2       1.3       1.5
  Orbital energies:                    -4.8044   -3.2205   -3.2205   -3.2205
 
  RCCSD core-core energy               -0.143516618078
  RCCSD core-valence energy            -0.303335494632
  RCCSD valence correlation energy     -0.255323120183
 

 RESULTS
 =======

  Reference energy                   -144.327330737533
  RCCSD singles energy                 -0.010162323116
  RCCSD pair energy                    -0.692012909777
  RCCSD correlation energy             -0.702175232893
  Triples (T) contribution             -0.019485686488
  Total correlation energy             -0.721660919380
 
  RHF-RCCSD energy                   -145.029505970425
  RHF-RCCSD[T] energy                -145.049928340556
  RHF-RCCSD-T energy                 -145.048733343282
 !RHF-RCCSD(T) energy                -145.048991656913

 Program statistics:

 Available memory in ccsd:               511999000
 Min. memory needed in ccsd:                341564
 Max. memory used in ccsd:                  471298
 Max. memory used in cckext:                417884 ( 8 integral passes)
 Max. memory used in cckint:                457544 ( 1 integral passes)



 **********************************************************************************************************************************
 DATASETS  * FILE   NREC   LENGTH (MB)   RECORD NAMES
              1      21       27.79       500      610      700      900      950      970     1000      129      960     1100   
                                          VAR    BASINP    GEOM    SYMINP    ZMAT    AOBASIS   BASIS     P2S    ABASIS      S 
                                         1400     1410     1420     1200     1210     1080     1600     1650     1300     1700   
                                         EKIN       V       ECP      H0       H01     AOSYM     SMH    MOLCAS    ERIS     OPER   
                                         1380   
                                         JKOP   

              2       6        7.96       700     1000      520     4202     5202     2101   
                                         GEOM     BASIS   MCVARS     RHF     MCSCF     RHF  

 PROGRAMS   *        TOTAL  RCCSD(T)       RHF     MULTI       POP       RHF       INT
 CPU TIMES  *         6.11      3.75      0.05      0.21      0.00      0.15      1.82
 REAL TIME  *        11.14 SEC
 DISK USED  *        80.32 MB      
 **********************************************************************************************************************************
 SETTING POSTHF(I)      =      -145.04899166  AU                              
                                                                                                                                                                                                                                                                

         SCF            POSTHF       EKIN           POT
    -144.3273307   -145.0489917   88.30106436   -21.14266310
                                                  

 RCCSD(T)/USERDEF energy=   -145.048991656913

        RCCSD(T)        RHF-SCF         MULTI           RHF-SCF 
   -145.04899166   -144.32733074   -144.24363921   -144.33113680
 **********************************************************************************************************************************
 Variable memory released
