----- GAMESS execution script 'rungms' -----
This job is running on host c409-054.stampede2.tacc.utexas.edu
under operating system Linux at Thu Sep 27 12:43:26 CDT 2018
Available scratch disk space (Kbyte units) at beginning of the job is
Filesystem               1K-blocks  Used Available Use% Mounted on
/dev/mapper/rootvg01-tmp 111414116 42152 111371964   1% /tmp
GAMESS temporary binary files will be written to /tmp
GAMESS supplementary output files will be written to /work/04843/aannabe/stampede2/docs/totals/O/TZ
Copying input file O.inp to your run's scratch directory...

 Distributed Data Interface kickoff program.
 Initiating 1 compute processes on 1 nodes to run the following command:
 /work/04843/aannabe/stampede2/codes/gamess-mcb/gamess/gamess.00.x O 

          ******************************************************
          *         GAMESS VERSION =  1 MAY 2013 (R1)          *
          *             FROM IOWA STATE UNIVERSITY             *
          * M.W.SCHMIDT, K.K.BALDRIDGE, J.A.BOATZ, S.T.ELBERT, *
          *   M.S.GORDON, J.H.JENSEN, S.KOSEKI, N.MATSUNAGA,   *
          *          K.A.NGUYEN, S.J.SU, T.L.WINDUS,           *
          *       TOGETHER WITH M.DUPUIS, J.A.MONTGOMERY       *
          *         J.COMPUT.CHEM.  14, 1347-1363(1993)        *
          **************** 64 BIT INTEL VERSION ****************

  SINCE 1993, STUDENTS AND POSTDOCS WORKING AT IOWA STATE UNIVERSITY
  AND ALSO IN THEIR VARIOUS JOBS AFTER LEAVING ISU HAVE MADE IMPORTANT
  CONTRIBUTIONS TO THE CODE:
     IVANA ADAMOVIC, CHRISTINE AIKENS, YURI ALEXEEV, POOJA ARORA,
     ANDREY ASADCHEV, ROB BELL, PRADIPTA BANDYOPADHYAY, JONATHAN BENTZ,
     BRETT BODE, GALINA CHABAN, WEI CHEN, CHEOL HO CHOI, PAUL DAY,
     ALBERT DEFUSCO, TIM DUDLEY, DMITRI FEDOROV, GRAHAM FLETCHER,
     MARK FREITAG, KURT GLAESEMANN, DAN KEMP, GRANT MERRILL,
     NORIYUKI MINEZAWA, JONATHAN MULLIN, TAKESHI NAGATA,
     SEAN NEDD, HEATHER NETZLOFF, BOSILJKA NJEGIC, RYAN OLSON, MIKE PAK,
     JIM SHOEMAKER, LYUDMILA SLIPCHENKO, SAROM SOK, JIE SONG,
     TETSUYA TAKETSUGU, SIMON WEBB, SOOHAENG YOO, FEDERICO ZAHARIEV

  ADDITIONAL CODE HAS BEEN PROVIDED BY COLLABORATORS IN OTHER GROUPS:
     IOWA STATE UNIVERSITY:
          JOE IVANIC, LAIMUTIS BYTAUTAS, KLAUS RUEDENBERG
     UNIVERSITY OF TOKYO: KIMIHIKO HIRAO, TAKAHITO NAKAJIMA,
          TAKAO TSUNEDA, MUNEAKI KAMIYA, SUSUMU YANAGISAWA,
          KIYOSHI YAGI, MAHITO CHIBA, SEIKEN TOKURA, NAOAKI KAWAKAMI
     UNIVERSITY OF AARHUS: FRANK JENSEN
     UNIVERSITY OF IOWA: VISVALDAS KAIRYS, HUI LI
     NATIONAL INST. OF STANDARDS AND TECHNOLOGY: WALT STEVENS, DAVID GARMER
     UNIVERSITY OF PISA: BENEDETTA MENNUCCI, JACOPO TOMASI
     UNIVERSITY OF MEMPHIS: HENRY KURTZ, PRAKASHAN KORAMBATH
     UNIVERSITY OF ALBERTA: TOBY ZENG, MARIUSZ KLOBUKOWSKI
     UNIVERSITY OF NEW ENGLAND: MARK SPACKMAN
     MIE UNIVERSITY: HIROAKI UMEDA
     MICHIGAN STATE UNIVERSITY:
          KAROL KOWALSKI, MARTA WLOCH, JEFFREY GOUR, JESSE LUTZ,
          WEI LI, PIOTR PIECUCH
     UNIVERSITY OF SILESIA: MONIKA MUSIAL, STANISLAW KUCHARSKI
     FACULTES UNIVERSITAIRES NOTRE-DAME DE LA PAIX:
          OLIVIER QUINET, BENOIT CHAMPAGNE
     UNIVERSITY OF CALIFORNIA - SANTA BARBARA: BERNARD KIRTMAN
     INSTITUTE FOR MOLECULAR SCIENCE:
          KAZUYA ISHIMURA, MICHIO KATOUDA, AND SHIGERU NAGASE
     UNIVERSITY OF NOTRE DAME: DAN CHIPMAN
     KYUSHU UNIVERSITY:
          HARUYUKI NAKANO,
          FENG LONG GU, JACEK KORCHOWIEC, MARCIN MAKOWSKI, AND YURIKO AOKI,
          HIROTOSHI MORI AND EISAKU MIYOSHI
     PENNSYLVANIA STATE UNIVERSITY:
          TZVETELIN IORDANOV, CHET SWALINA, JONATHAN SKONE,
          SHARON HAMMES-SCHIFFER
     WASEDA UNIVERSITY:
          MASATO KOBAYASHI, TOMOKO AKAMA, TSUGUKI TOUMA,
          TAKESHI YOSHIKAWA, YASUHIRO IKABATA, HIROMI NAKAI
     NANJING UNIVERSITY: SHUHUA LI
     UNIVERSITY OF NEBRASKA:
          PEIFENG SU, DEJUN SI, NANDUN THELLAMUREGE, YALI WANG, HUI LI
     UNIVERSITY OF ZURICH:
          ROBERTO PEVERATI, KIM BALDRIDGE
     N. COPERNICUS UNIVERSITY AND JACKSON STATE UNIVERSITY:
          MARIA BARYSZ

 EXECUTION OF GAMESS BEGUN Thu Sep 27 12:43:27 2018

            ECHO OF THE FIRST FEW INPUT CARDS -
 INPUT CARD> $CONTRL                                                                        
 INPUT CARD>     SCFTYP=ROHF                                                                
 INPUT CARD>     MULT=3                                                                     
 INPUT CARD>     ICHARG=0                                                                   
 INPUT CARD>     RUNTYP=ENERGY                                                              
 INPUT CARD>     MAXIT=150                                                                  
 INPUT CARD>     ECP=READ                                                                   
 INPUT CARD>     ISPHER=1                                                                   
 INPUT CARD> $END                                                                           
 INPUT CARD>                                                                                
 INPUT CARD> $SYSTEM                                                                        
 INPUT CARD>     KDIAG=3                                                                    
 INPUT CARD> $END                                                                           
 INPUT CARD>                                                                                
 INPUT CARD> $GUESS                                                                         
 INPUT CARD>    GUESS=HUCKEL                                                                
 INPUT CARD> $END                                                                           
 INPUT CARD>                                                                                
 INPUT CARD>                                                                                
 INPUT CARD> $DATA                                                                          
 INPUT CARD>                                                                                
 INPUT CARD>C1                                                                              
 INPUT CARD>O 8    0. 0. 0.                                                                 
 INPUT CARD>S 9                                                                             
 INPUT CARD>1  54.775216    -0.0012444                                                      
 INPUT CARD>2  25.616801     0.0107330                                                      
 INPUT CARD>3  11.980245     0.0018889                                                      
 INPUT CARD>4   6.992317    -0.1742537                                                      
 INPUT CARD>5   2.620277     0.0017622                                                      
 INPUT CARD>6   1.225429     0.3161846                                                      
 INPUT CARD>7   0.577797     0.4512023                                                      
 INPUT CARD>8   0.268022     0.3121534                                                      
 INPUT CARD>9   0.125346     0.0511167                                                      
 INPUT CARD>S 1                                                                             
 INPUT CARD>1   1.686633     1.0000000                                                      
 INPUT CARD>S 1                                                                             
 INPUT CARD>1   0.237997     1.0000000                                                      
 INPUT CARD>P 9                                                                             
 INPUT CARD>1  22.217266     0.0104866                                                      
 INPUT CARD>2  10.74755      0.0366435                                                      
 INPUT CARD>3   5.315785     0.0803674                                                      
 INPUT CARD>4   2.660761     0.1627010                                                      
 INPUT CARD>5   1.331816     0.2377791                                                      
 INPUT CARD>6   0.678626     0.2811422                                                      
 INPUT CARD>7   0.333673     0.2643189                                                      
 INPUT CARD>8   0.167017     0.1466014                                                      
 INPUT CARD>9   0.083598     0.0458145                                                      
 INPUT CARD>P 1                                                                             
 INPUT CARD>1   0.600621     1.0000000                                                      
 INPUT CARD>P 1                                                                             
    1000000 WORDS OF MEMORY AVAILABLE


     RUN TITLE
     ---------
                                                                                 

 THE POINT GROUP OF THE MOLECULE IS C1      
 THE ORDER OF THE PRINCIPAL AXIS IS     0

 ATOM      ATOMIC                      COORDINATES (BOHR)
           CHARGE         X                   Y                   Z
 O           8.0     0.0000000000        0.0000000000        0.0000000000

          INTERNUCLEAR DISTANCES (ANGS.)
          ------------------------------

                1 O     

   1 O       0.0000000  

  * ... LESS THAN  3.000


     ATOMIC BASIS SET
     ----------------
 THE CONTRACTED PRIMITIVE FUNCTIONS HAVE BEEN UNNORMALIZED
 THE CONTRACTED BASIS FUNCTIONS ARE NOW NORMALIZED TO UNITY

  SHELL TYPE  PRIMITIVE        EXPONENT          CONTRACTION COEFFICIENT(S)

 O         

      1   S       1            54.7752160   -0.001244399967
      1   S       2            25.6168010    0.010732999712
      1   S       3            11.9802450    0.001888899949
      1   S       4             6.9923170   -0.174253695322
      1   S       5             2.6202770    0.001762199953
      1   S       6             1.2254290    0.316184591512
      1   S       7             0.5777970    0.451202287887
      1   S       8             0.2680220    0.312153391620
      1   S       9             0.1253460    0.051116698628

      2   S      10             1.6866330    1.000000000000

      3   S      11             0.2379970    1.000000000000

      4   P      12            22.2172660    0.010486599899
      4   P      13            10.7475500    0.036643499646
      4   P      14             5.3157850    0.080367399224
      4   P      15             2.6607610    0.162700998430
      4   P      16             1.3318160    0.237779097705
      4   P      17             0.6786260    0.281142197287
      4   P      18             0.3336730    0.264318897449
      4   P      19             0.1670170    0.146601398585
      4   P      20             0.0835980    0.045814499558

      5   P      21             0.6006210    1.000000000000

      6   P      22             0.1846960    1.000000000000

      7   D      23             2.4042780    1.000000000000

      8   D      24             0.6693400    1.000000000000

      9   F      25             1.4231040    1.000000000000

 TOTAL NUMBER OF BASIS SET SHELLS             =    9
 NUMBER OF CARTESIAN GAUSSIAN BASIS FUNCTIONS =   34
 NOTE: THIS RUN WILL RESTRICT THE MO VARIATION SPACE TO SPHERICAL HARMONICS.
 THE NUMBER OF ORBITALS KEPT IN THE VARIATIONAL SPACE WILL BE PRINTED LATER.
 NUMBER OF ELECTRONS                          =    8
 CHARGE OF MOLECULE                           =    0
 SPIN MULTIPLICITY                            =    3
 NUMBER OF OCCUPIED ORBITALS (ALPHA)          =    5
 NUMBER OF OCCUPIED ORBITALS (BETA )          =    3
 TOTAL NUMBER OF ATOMS                        =    1
 THE NUCLEAR REPULSION ENERGY IS        0.0000000000
 NOTE THIS RUN IS USING CORE POTENTIALS, AND THE NUMBER OF ELECTRONS,
 OCCUPIED ORBITALS, AND NUCLEAR REPULSION ENERGY WILL BE ADJUSTED BELOW
 AFTER REMOVAL OF THE CORE CHARGES.

 THIS MOLECULE IS RECOGNIZED AS BEING LINEAR,
 ORBITAL LZ DEGENERACY TOLERANCE ETOLLZ= 1.00E-06

     $CONTRL OPTIONS
     ---------------
 SCFTYP=ROHF         RUNTYP=ENERGY       EXETYP=RUN     
 MPLEVL=       0     CITYP =NONE         CCTYP =NONE         VBTYP =NONE    
 DFTTYP=NONE         TDDFT =NONE    
 MULT  =       3     ICHARG=       0     NZVAR =       0     COORD =UNIQUE  
 PP    =READ         RELWFN=NONE         LOCAL =NONE         NUMGRD=       F
 ISPHER=       1     NOSYM =       0     MAXIT =     150     UNITS =ANGS    
 PLTORB=       F     MOLPLT=       F     AIMPAC=       F     FRIEND=        
 NPRINT=       7     IREST =       0     GEOM  =INPUT   
 NORMF =       0     NORMP =       0     ITOL  =      20     ICUT  =       9
 INTTYP=BEST         GRDTYP=BEST         QMTTOL= 1.0E-06

     $SYSTEM OPTIONS
     ---------------
  REPLICATED MEMORY=     1000000 WORDS (ON EVERY NODE).
 DISTRIBUTED MEMDDI=           0 MILLION WORDS IN AGGREGATE,
 MEMDDI DISTRIBUTED OVER   1 PROCESSORS IS           0 WORDS/PROCESSOR.
 TOTAL MEMORY REQUESTED ON EACH PROCESSOR=     1000000 WORDS.
 TIMLIM=      525600.00 MINUTES, OR     365.0 DAYS.
 PARALL= F  BALTYP=  DLB     KDIAG=    3  COREFL= F
 MXSEQ2=     300 MXSEQ3=     150

          --------------
          ECP POTENTIALS
          --------------

 PARAMETERS FOR "O-CCECP " ON ATOM    1 WITH ZCORE   2 AND LMAX  1 ARE
 FOR L= 1      COEFF    N           ZETA
    1        6.00000    1       12.30997
    2       73.85984    3       14.76962
    3      -47.87600    2       13.71419
 FOR L= 0      COEFF    N           ZETA
    1       85.86406    2       13.65512

 THE ECP RUN REMOVES    2 CORE ELECTRONS, AND THE SAME NUMBER OF PROTONS.
 NUMBER OF ELECTRONS KEPT IN THE CALCULATION IS =    6
 NUMBER OF OCCUPIED ORBITALS (ALPHA) KEPT IS    =    4
 NUMBER OF OCCUPIED ORBITALS (BETA ) KEPT IS    =    2
 THE ADJUSTED NUCLEAR REPULSION ENERGY=        0.0000000000
          ECP ANGULAR INTS.........     0.00 SECONDS

          ----------------
          PROPERTIES INPUT
          ----------------

     MOMENTS            FIELD           POTENTIAL          DENSITY
 IEMOM =       1   IEFLD =       0   IEPOT =       0   IEDEN =       0
 WHERE =COMASS     WHERE =NUCLEI     WHERE =NUCLEI     WHERE =NUCLEI  
 OUTPUT=BOTH       OUTPUT=BOTH       OUTPUT=BOTH       OUTPUT=BOTH    
 IEMINT=       0   IEFINT=       0                     IEDINT=       0
                                                       MORB  =       0
          EXTRAPOLATION IN EFFECT
          SOSCF IN EFFECT
 ORBITAL PRINTING OPTION: NPREO=     1    34     2     1

     -------------------------------
     INTEGRAL TRANSFORMATION OPTIONS
     -------------------------------
     NWORD  =            0
     CUTOFF = 1.0E-09     MPTRAN =       0
     DIRTRF =       F     AOINTS =DUP     

          ----------------------
          INTEGRAL INPUT OPTIONS
          ----------------------
 NOPK  =       1 NORDER=       0 SCHWRZ=       F

     ------------------------------------------
     THE POINT GROUP IS C1 , NAXIS= 0, ORDER= 1
     ------------------------------------------

 -- VARIATIONAL SPACE WILL BE RESTRICTED TO PURE SPHERICAL HARMONICS ONLY --
 AFTER EXCLUDING CONTAMINANT COMBINATIONS FROM THE CARTESIAN GAUSSIAN BASIS
 SET, THE NUMBER OF SPHERICAL HARMONICS KEPT IN THE VARIATION SPACE IS   29

     DIMENSIONS OF THE SYMMETRY SUBSPACES ARE
 A   =   29

 ..... DONE SETTING UP THE RUN .....
 STEP CPU TIME =     0.12 TOTAL CPU TIME =        0.1 (    0.0 MIN)
 TOTAL WALL CLOCK TIME=        0.5 SECONDS, CPU UTILIZATION IS  30.43%

          ********************
          1 ELECTRON INTEGRALS
          ********************
 TIME TO DO ORDINARY INTEGRALS=      0.00
 TIME TO DO      ECP INTEGRALS=      0.00
 ...... END OF ONE-ELECTRON INTEGRALS ......
 STEP CPU TIME =     0.01 TOTAL CPU TIME =        0.1 (    0.0 MIN)
 TOTAL WALL CLOCK TIME=        0.5 SECONDS, CPU UTILIZATION IS  27.27%

          -------------
          GUESS OPTIONS
          -------------
          GUESS =HUCKEL            NORB  =       0          NORDER=       0
          MIX   =       F          PRTMO =       F          PUNMO =       F
          TOLZ  = 1.0E-08          TOLE  = 1.0E-05
          SYMDEN=       F          PURIFY=       F

 INITIAL GUESS ORBITALS GENERATED BY HUCKEL   ROUTINE.
 HUCKEL GUESS REQUIRES      9489 WORDS.

 STATISTICS FOR GENERATION OF SYMMETRY ORBITAL -Q- MATRIX
 NUMBER OF CARTESIAN ATOMIC ORBITALS=         34
 NUMBER OF SPHERICAL CONTAMINANTS DROPPED=     5
 NUMBER OF LINEARLY DEPENDENT MOS DROPPED=     0
 TOTAL NUMBER OF MOS IN VARIATION SPACE=      29

 SYMMETRIES FOR INITIAL GUESS ORBITALS FOLLOW.  ALPHA SET(S).
     4 ORBITALS ARE OCCUPIED (    0 CORE ORBITALS).
     1=A        2=A        3=A        4=A        5=A        6=A        7=A   
     8=A        9=A       10=A       11=A       12=A       13=A       14=A   

 SYMMETRIES FOR INITIAL GUESS ORBITALS FOLLOW.   BETA SET(S).
     2 ORBITALS ARE OCCUPIED (    0 CORE ORBITALS).
     1=A        2=A        3=A        4=A        5=A        6=A        7=A   
     8=A        9=A       10=A       11=A       12=A   
 ...... END OF INITIAL ORBITAL SELECTION ......
 STEP CPU TIME =     0.02 TOTAL CPU TIME =        0.2 (    0.0 MIN)
 TOTAL WALL CLOCK TIME=        0.7 SECONDS, CPU UTILIZATION IS  25.76%

                    ----------------------
                    AO INTEGRAL TECHNOLOGY
                    ----------------------
     S,P,L SHELL ROTATED AXIS INTEGRALS, REPROGRAMMED BY
        KAZUYA ISHIMURA (IMS) AND JOSE SIERRA (SYNSTAR).
     S,P,D,L SHELL ROTATED AXIS INTEGRALS PROGRAMMED BY
        KAZUYA ISHIMURA (INSTITUTE FOR MOLECULAR SCIENCE).
     S,P,D,F,G SHELL TO TOTAL QUARTET ANGULAR MOMENTUM SUM 5,
        ERIC PROGRAM BY GRAHAM FLETCHER (ELORET AND NASA ADVANCED
        SUPERCOMPUTING DIVISION, AMES RESEARCH CENTER).
     S,P,D,F,G,L SHELL GENERAL RYS QUADRATURE PROGRAMMED BY
        MICHEL DUPUIS (PACIFIC NORTHWEST NATIONAL LABORATORY).

          --------------------
          2 ELECTRON INTEGRALS
          --------------------

 THE -PK- OPTION IS OFF, THE INTEGRALS ARE NOT IN SUPERMATRIX FORM.
 STORING   15000 INTEGRALS/RECORD ON DISK, USING 12 BYTES/INTEGRAL.
 TWO ELECTRON INTEGRAL EVALUATION REQUIRES   99145 WORDS OF MEMORY.
 II,JST,KST,LST =  1  1  1  1 NREC =         1 INTLOC =    1
 II,JST,KST,LST =  2  1  1  1 NREC =         1 INTLOC =    2
 II,JST,KST,LST =  3  1  1  1 NREC =         1 INTLOC =    7
 II,JST,KST,LST =  4  1  1  1 NREC =         1 INTLOC =   22
 II,JST,KST,LST =  5  1  1  1 NREC =         1 INTLOC =   67
 II,JST,KST,LST =  6  1  1  1 NREC =         1 INTLOC =  214
 II,JST,KST,LST =  7  1  1  1 NREC =         1 INTLOC =  571
 II,JST,KST,LST =  8  1  1  1 NREC =         1 INTLOC = 2257
 II,JST,KST,LST =  9  1  1  1 NREC =         1 INTLOC = 6628
 TOTAL NUMBER OF NONZERO TWO-ELECTRON INTEGRALS =               24016
          2 INTEGRAL RECORDS WERE STORED ON DISK FILE  8.
  ...... END OF TWO-ELECTRON INTEGRALS .....
 STEP CPU TIME =     0.14 TOTAL CPU TIME =        0.3 (    0.0 MIN)
 TOTAL WALL CLOCK TIME=        0.9 SECONDS, CPU UTILIZATION IS  34.83%

          ---------------------------
                 ROHF SCF CALCULATION
          ---------------------------

     NUCLEAR ENERGY =         0.0000000000
     MAXIT =150     NPUNCH=  2     MULT=  3
     EXTRAP=T  DAMP=F  SHIFT=F  RSTRCT=F  DIIS=F  SOSCF=T
     DENSITY MATRIX CONV=  1.00E-05
     ROHF CANONICALIZATION PARAMETERS
             C-C     O-O     V-V
     ALPHA -0.5000  0.5000  1.5000
     BETA   1.5000  0.5000 -0.5000
     SOSCF WILL OPTIMIZE     104 ORBITAL ROTATION ANGLES. SOGTOL= 2.500E-01
     MEMORY REQUIRED FOR UHF/ROHF ITERS=     41484 WORDS.

 ITER EX      TOTAL ENERGY        E CHANGE  DENSITY CHANGE    ORB. GRAD 
   1  0      -15.5793058894   -15.5793058894   0.461080704   0.000000000
          ---------------START SECOND ORDER SCF---------------
   2  1      -15.6848002813    -0.1054943919   0.188663674   0.040875568
   3  2      -15.6875557128    -0.0027554315   0.065076467   0.022513663
   4  3      -15.6892931152    -0.0017374024   0.004876276   0.001664973
   5  4      -15.6892989144    -0.0000057992   0.001958901   0.000363994
   6  5      -15.6892993922    -0.0000004778   0.000056894   0.000015092
   7  6      -15.6892993931    -0.0000000010   0.000006219   0.000002839
   8  7      -15.6892993931    -0.0000000000   0.000001051   0.000000275

          -----------------
          DENSITY CONVERGED
          -----------------
     TIME TO FORM FOCK OPERATORS=       0.0 SECONDS (       0.0 SEC/ITER)
     TIME TO SOLVE SCF EQUATIONS=       0.0 SECONDS (       0.0 SEC/ITER)

 FINAL ROHF ENERGY IS      -15.6892993931 AFTER   8 ITERATIONS

          --------------------
          SPIN SZ   =    1.000
          S-SQUARED =    2.000
          --------------------

 LZ VALUE ANALYSIS FOR THE MOS
 ----------------------------------------
 MO     1 (    1) HAS LZ(WEIGHT)= 0.00(100.0%) 
 MO     2 (    2) HAS LZ(WEIGHT)= 0.00(100.0%) 
 MO     3 (    3) HAS LZ(WEIGHT)= 0.00(100.0%) 
 MO     4 (    3) HAS LZ(WEIGHT)= 0.00(100.0%) 
 MO     5 (    4) HAS LZ(WEIGHT)= 0.00(100.0%) 
 MO     6 (    4) HAS LZ(WEIGHT)= 0.00(100.0%) 
 MO     7 (    5) HAS LZ(WEIGHT)= 0.00(100.0%) 
 MO     8 (    6) HAS LZ(WEIGHT)= 0.00(100.0%) 
 MO     9 (    7) HAS LZ(WEIGHT)= 0.00(100.0%) 
 MO    10 (    7) HAS LZ(WEIGHT)= 0.00(100.0%) 
 MO    11 (    8) HAS LZ(WEIGHT)= 0.00(100.0%) 
 MO    12 (    8) HAS LZ(WEIGHT)= 0.00(100.0%) 
 MO    13 (    9) HAS LZ(WEIGHT)= 0.00(100.0%) 
 MO    14 (   10) HAS LZ(WEIGHT)= 0.00(100.0%) 
 MO    15 (   10) HAS LZ(WEIGHT)= 0.00(100.0%) 
 MO    16 (   11) HAS LZ(WEIGHT)= 0.00(100.0%) 
 MO    17 (   12) HAS LZ(WEIGHT)= 0.00(100.0%) 
 MO    18 (   12) HAS LZ(WEIGHT)= 0.00(100.0%) 
 MO    19 (   13) HAS LZ(WEIGHT)= 0.00(100.0%) 
 MO    20 (   13) HAS LZ(WEIGHT)= 0.00(100.0%) 
 MO    21 (   14) HAS LZ(WEIGHT)= 0.00(100.0%) 
 MO    22 (   14) HAS LZ(WEIGHT)= 0.00(100.0%) 
 MO    23 (   15) HAS LZ(WEIGHT)= 0.00(100.0%) 
 MO    24 (   16) HAS LZ(WEIGHT)= 0.00(100.0%) 
 MO    25 (   16) HAS LZ(WEIGHT)= 0.00(100.0%) 
 MO    26 (   17) HAS LZ(WEIGHT)= 0.00(100.0%) 
 MO    27 (   17) HAS LZ(WEIGHT)= 0.00(100.0%) 
 MO    28 (   18) HAS LZ(WEIGHT)= 0.00(100.0%) 
 MO    29 (   19) HAS LZ(WEIGHT)= 0.00(100.0%) 

          ------------
          EIGENVECTORS
          ------------

                      1          2          3          4          5
                   -0.9255    -0.4882    -0.2687    -0.2687     0.5315
                     A          A          A          A          A   
    1  O  1  S    1.000231   0.000000   0.000000   0.000000   0.000000
    2  O  1  S    0.000063   0.000000   0.000000   0.000000   0.000000
    3  O  1  S   -0.000310   0.000000   0.000000   0.000000   0.000000
    4  O  1  X    0.000000   1.000504   0.000000   0.000000   0.000000
    5  O  1  Y    0.000000   0.000000   1.043567   0.000000  -0.592845
    6  O  1  Z    0.000000   0.000000   0.000000   1.043567   0.000000
    7  O  1  X    0.000000   0.000291   0.000000   0.000000   0.000000
    8  O  1  Y    0.000000   0.000000   0.006711   0.000000  -0.379112
    9  O  1  Z    0.000000   0.000000   0.000000   0.006711   0.000000
   10  O  1  X    0.000000  -0.001104   0.000000   0.000000   0.000000
   11  O  1  Y    0.000000   0.000000  -0.072027   0.000000   1.404837
   12  O  1  Z    0.000000   0.000000   0.000000  -0.072027   0.000000
   13  O  1 XX    0.000484   0.000000   0.000000   0.000000   0.000000
   14  O  1 YY   -0.000242   0.000000   0.000000   0.000000   0.000000
   15  O  1 ZZ   -0.000242   0.000000   0.000000   0.000000   0.000000
   16  O  1 XY    0.000000   0.000000   0.000000   0.000000   0.000000
   17  O  1 XZ    0.000000   0.000000   0.000000   0.000000   0.000000
   18  O  1 YZ    0.000000   0.000000   0.000000   0.000000   0.000000
   19  O  1 XX    0.002818   0.000000   0.000000   0.000000   0.000000
   20  O  1 YY   -0.001409   0.000000   0.000000   0.000000   0.000000
   21  O  1 ZZ   -0.001409   0.000000   0.000000   0.000000   0.000000
   22  O  1 XY    0.000000   0.000000   0.000000   0.000000   0.000000
   23  O  1 XZ    0.000000   0.000000   0.000000   0.000000   0.000000
   24  O  1 YZ    0.000000   0.000000   0.000000   0.000000   0.000000
   25  O  1 XXX   0.000000  -0.004104   0.000000   0.000000   0.000000
   26  O  1 YYY   0.000000   0.000000   0.004390   0.000000  -0.002299
   27  O  1 ZZZ   0.000000   0.000000   0.000000   0.004390   0.000000
   28  O  1 XXY   0.000000   0.000000  -0.007852   0.000000   0.004113
   29  O  1 XXZ   0.000000   0.000000   0.000000  -0.007852   0.000000
   30  O  1 YYX   0.000000   0.002753   0.000000   0.000000   0.000000
   31  O  1 YYZ   0.000000   0.000000   0.000000   0.001963   0.000000
   32  O  1 ZZX   0.000000   0.002753   0.000000   0.000000   0.000000
   33  O  1 ZZY   0.000000   0.000000   0.001963   0.000000  -0.001028
   34  O  1 XYZ   0.000000   0.000000   0.000000   0.000000   0.000000

                      6          7          8          9         10
                    0.5315     0.6071     0.9673     1.5771     1.5771
                     A          A          A          A          A   
    1  O  1  S    0.000000   0.000000  -1.688447   0.000000   0.000000
    2  O  1  S    0.000000   0.000000  -0.330346   0.000000   0.000000
    3  O  1  S    0.000000   0.000000   2.118953   0.000000   0.000000
    4  O  1  X    0.000000  -0.585075   0.000000   0.000000   0.000000
    5  O  1  Y    0.000000   0.000000   0.000000   0.000000   0.000000
    6  O  1  Z   -0.592845   0.000000   0.000000   0.000000   0.000000
    7  O  1  X    0.000000  -0.438643   0.000000   0.000000   0.000000
    8  O  1  Y    0.000000   0.000000   0.000000   0.000000   0.000000
    9  O  1  Z   -0.379112   0.000000   0.000000   0.000000   0.000000
   10  O  1  X    0.000000   1.402111   0.000000   0.000000   0.000000
   11  O  1  Y    0.000000   0.000000   0.000000   0.000000   0.000000
   12  O  1  Z    1.404837   0.000000   0.000000   0.000000   0.000000
   13  O  1 XX    0.000000   0.000000   0.015181   0.000000   0.000000
   14  O  1 YY    0.000000   0.000000  -0.007590   0.000000   0.004324
   15  O  1 ZZ    0.000000   0.000000  -0.007590   0.000000  -0.004324
   16  O  1 XY    0.000000   0.000000   0.000000   0.000000   0.000000
   17  O  1 XZ    0.000000   0.000000   0.000000   0.000000   0.000000
   18  O  1 YZ    0.000000   0.000000   0.000000   0.004993   0.000000
   19  O  1 XX    0.000000   0.000000  -0.009941   0.000000   0.000000
   20  O  1 YY    0.000000   0.000000   0.004970   0.000000   0.863808
   21  O  1 ZZ    0.000000   0.000000   0.004970   0.000000  -0.863808
   22  O  1 XY    0.000000   0.000000   0.000000   0.000000   0.000000
   23  O  1 XZ    0.000000   0.000000   0.000000   0.000000   0.000000
   24  O  1 YZ    0.000000   0.000000   0.000000   0.997439   0.000000
   25  O  1 XXX   0.000000   0.005321   0.000000   0.000000   0.000000
   26  O  1 YYY   0.000000   0.000000   0.000000   0.000000   0.000000
   27  O  1 ZZZ  -0.002299   0.000000   0.000000   0.000000   0.000000
   28  O  1 XXY   0.000000   0.000000   0.000000   0.000000   0.000000
   29  O  1 XXZ   0.004113   0.000000   0.000000   0.000000   0.000000
   30  O  1 YYX   0.000000  -0.003570   0.000000   0.000000   0.000000
   31  O  1 YYZ  -0.001028   0.000000   0.000000   0.000000   0.000000
   32  O  1 ZZX   0.000000  -0.003570   0.000000   0.000000   0.000000
   33  O  1 ZZY   0.000000   0.000000   0.000000   0.000000   0.000000
   34  O  1 XYZ   0.000000   0.000000   0.000000   0.000000   0.000000

                     11         12         13         14         15
                    1.6620     1.6620     1.6866     3.1196     3.1196
                     A          A          A          A          A   
    1  O  1  S    0.000000   0.000000  -0.011565   0.000000   0.000000
    2  O  1  S    0.000000   0.000000   0.001795   0.000000   0.000000
    3  O  1  S    0.000000   0.000000   0.007805   0.000000   0.000000
    4  O  1  X    0.000000   0.000000   0.000000   0.000000   0.000000
    5  O  1  Y    0.000000   0.000000   0.000000  -2.736401   0.000000
    6  O  1  Z    0.000000   0.000000   0.000000   0.000000  -2.736401
    7  O  1  X    0.000000   0.000000   0.000000   0.000000   0.000000
    8  O  1  Y    0.000000   0.000000   0.000000   2.783009   0.000000
    9  O  1  Z    0.000000   0.000000   0.000000   0.000000   2.783009
   10  O  1  X    0.000000   0.000000   0.000000   0.000000   0.000000
   11  O  1  Y    0.000000   0.000000   0.000000   0.197385   0.000000
   12  O  1  Z    0.000000   0.000000   0.000000   0.000000   0.197385
   13  O  1 XX    0.000000   0.000000  -0.005445   0.000000   0.000000
   14  O  1 YY    0.000000   0.000000   0.002723   0.000000   0.000000
   15  O  1 ZZ    0.000000   0.000000   0.002723   0.000000   0.000000
   16  O  1 XY    0.000000  -0.003191   0.000000   0.000000   0.000000
   17  O  1 XZ   -0.003191   0.000000   0.000000   0.000000   0.000000
   18  O  1 YZ    0.000000   0.000000   0.000000   0.000000   0.000000
   19  O  1 XX    0.000000   0.000000   1.002764   0.000000   0.000000
   20  O  1 YY    0.000000   0.000000  -0.501382   0.000000   0.000000
   21  O  1 ZZ    0.000000   0.000000  -0.501382   0.000000   0.000000
   22  O  1 XY    0.000000   1.001627   0.000000   0.000000   0.000000
   23  O  1 XZ    1.001627   0.000000   0.000000   0.000000   0.000000
   24  O  1 YZ    0.000000   0.000000   0.000000   0.000000   0.000000
   25  O  1 XXX   0.000000   0.000000   0.000000   0.000000   0.000000
   26  O  1 YYY   0.000000   0.000000   0.000000   0.004057   0.000000
   27  O  1 ZZZ   0.000000   0.000000   0.000000   0.000000   0.004057
   28  O  1 XXY   0.000000   0.000000   0.000000  -0.007258   0.000000
   29  O  1 XXZ   0.000000   0.000000   0.000000   0.000000  -0.007258
   30  O  1 YYX   0.000000   0.000000   0.000000   0.000000   0.000000
   31  O  1 YYZ   0.000000   0.000000   0.000000   0.000000   0.001814
   32  O  1 ZZX   0.000000   0.000000   0.000000   0.000000   0.000000
   33  O  1 ZZY   0.000000   0.000000   0.000000   0.001814   0.000000
   34  O  1 XYZ   0.000000   0.000000   0.000000   0.000000   0.000000

                     16         17         18         19         20
                    3.2578     5.3314     5.3314     5.3959     5.3959
                     A          A          A          A          A   
    1  O  1  S    0.000000   0.000000   0.000000   0.000000   0.000000
    2  O  1  S    0.000000   0.000000   0.000000   0.000000   0.000000
    3  O  1  S    0.000000   0.000000   0.000000   0.000000   0.000000
    4  O  1  X   -2.754073   0.000000   0.000000   0.000000   0.000000
    5  O  1  Y    0.000000   0.000000   0.000000   0.000000   0.000000
    6  O  1  Z    0.000000   0.000000   0.000000   0.000000   0.000000
    7  O  1  X    2.774220   0.000000   0.000000   0.000000   0.000000
    8  O  1  Y    0.000000   0.000000   0.000000   0.000000   0.000000
    9  O  1  Z    0.000000   0.000000   0.000000   0.000000   0.000000
   10  O  1  X    0.227569   0.000000   0.000000   0.000000   0.000000
   11  O  1  Y    0.000000   0.000000   0.000000   0.000000   0.000000
   12  O  1  Z    0.000000   0.000000   0.000000   0.000000   0.000000
   13  O  1 XX    0.000000   0.000000   0.000000   0.000000   0.000000
   14  O  1 YY    0.000000   0.000000   0.000000   0.000000   0.000000
   15  O  1 ZZ    0.000000   0.000000   0.000000   0.000000   0.000000
   16  O  1 XY    0.000000   0.000000   0.000000   0.000000   0.000000
   17  O  1 XZ    0.000000   0.000000   0.000000   0.000000   0.000000
   18  O  1 YZ    0.000000   0.000000   0.000000   0.000000   0.000000
   19  O  1 XX    0.000000   0.000000   0.000000   0.000000   0.000000
   20  O  1 YY    0.000000   0.000000   0.000000   0.000000   0.000000
   21  O  1 ZZ    0.000000   0.000000   0.000000   0.000000   0.000000
   22  O  1 XY    0.000000   0.000000   0.000000   0.000000   0.000000
   23  O  1 XZ    0.000000   0.000000   0.000000   0.000000   0.000000
   24  O  1 YZ    0.000000   0.000000   0.000000   0.000000   0.000000
   25  O  1 XXX  -0.008011   0.000000   0.000000   0.000000   0.000000
   26  O  1 YYY   0.000000   0.000000  -0.790569   0.000000   0.000000
   27  O  1 ZZZ   0.000000  -0.790569   0.000000   0.000000   0.000000
   28  O  1 XXY   0.000000   0.000000   0.000000   0.000000   0.000000
   29  O  1 XXZ   0.000000   0.000000   0.000000   0.000000   0.000000
   30  O  1 YYX   0.005374   0.000000   0.000000   0.866025   0.000000
   31  O  1 YYZ   0.000000   1.060660   0.000000   0.000000   0.000000
   32  O  1 ZZX   0.005374   0.000000   0.000000  -0.866025   0.000000
   33  O  1 ZZY   0.000000   0.000000   1.060660   0.000000   0.000000
   34  O  1 XYZ   0.000000   0.000000   0.000000   0.000000   1.000000

                     21         22         23         24         25
                    5.4340     5.4340     5.4463     6.6494     6.6494
                     A          A          A          A          A   
    1  O  1  S    0.000000   0.000000   0.000000   0.000000   0.000000
    2  O  1  S    0.000000   0.000000   0.000000   0.000000   0.000000
    3  O  1  S    0.000000   0.000000   0.000000   0.000000   0.000000
    4  O  1  X    0.000000   0.000000  -0.014845   0.000000   0.000000
    5  O  1  Y    0.000000  -0.008424   0.000000   0.000000   0.000000
    6  O  1  Z   -0.008424   0.000000   0.000000   0.000000   0.000000
    7  O  1  X    0.000000   0.000000   0.024562   0.000000   0.000000
    8  O  1  Y    0.000000   0.019912   0.000000   0.000000   0.000000
    9  O  1  Z    0.019912   0.000000   0.000000   0.000000   0.000000
   10  O  1  X    0.000000   0.000000  -0.005643   0.000000   0.000000
   11  O  1  Y    0.000000  -0.004484   0.000000   0.000000   0.000000
   12  O  1  Z   -0.004484   0.000000   0.000000   0.000000   0.000000
   13  O  1 XX    0.000000   0.000000   0.000000   0.000000   0.000000
   14  O  1 YY    0.000000   0.000000   0.000000   0.000000   1.007500
   15  O  1 ZZ    0.000000   0.000000   0.000000   0.000000  -1.007500
   16  O  1 XY    0.000000   0.000000   0.000000   0.000000   0.000000
   17  O  1 XZ    0.000000   0.000000   0.000000   0.000000   0.000000
   18  O  1 YZ    0.000000   0.000000   0.000000   1.163361   0.000000
   19  O  1 XX    0.000000   0.000000   0.000000   0.000000   0.000000
   20  O  1 YY    0.000000   0.000000   0.000000   0.000000  -0.518566
   21  O  1 ZZ    0.000000   0.000000   0.000000   0.000000   0.518566
   22  O  1 XY    0.000000   0.000000   0.000000   0.000000   0.000000
   23  O  1 XZ    0.000000   0.000000   0.000000   0.000000   0.000000
   24  O  1 YZ    0.000000   0.000000   0.000000  -0.598789   0.000000
   25  O  1 XXX   0.000000   0.000000   0.999945   0.000000   0.000000
   26  O  1 YYY   0.000000  -0.612339   0.000000   0.000000   0.000000
   27  O  1 ZZZ  -0.612339   0.000000   0.000000   0.000000   0.000000
   28  O  1 XXY   0.000000   1.095385   0.000000   0.000000   0.000000
   29  O  1 XXZ   1.095385   0.000000   0.000000   0.000000   0.000000
   30  O  1 YYX   0.000000   0.000000  -0.670784   0.000000   0.000000
   31  O  1 YYZ  -0.273846   0.000000   0.000000   0.000000   0.000000
   32  O  1 ZZX   0.000000   0.000000  -0.670784   0.000000   0.000000
   33  O  1 ZZY   0.000000  -0.273846   0.000000   0.000000   0.000000
   34  O  1 XYZ   0.000000   0.000000   0.000000   0.000000   0.000000

                     26         27         28         29
                    6.7578     6.7578     6.7929    15.3113
                     A          A          A          A   
    1  O  1  S    0.000000   0.000000   0.031252   3.514172
    2  O  1  S    0.000000   0.000000  -0.000897  -1.892410
    3  O  1  S    0.000000   0.000000  -0.033884  -2.273884
    4  O  1  X    0.000000   0.000000   0.000000   0.000000
    5  O  1  Y    0.000000   0.000000   0.000000   0.000000
    6  O  1  Z    0.000000   0.000000   0.000000   0.000000
    7  O  1  X    0.000000   0.000000   0.000000   0.000000
    8  O  1  Y    0.000000   0.000000   0.000000   0.000000
    9  O  1  Z    0.000000   0.000000   0.000000   0.000000
   10  O  1  X    0.000000   0.000000   0.000000   0.000000
   11  O  1  Y    0.000000   0.000000   0.000000   0.000000
   12  O  1  Z    0.000000   0.000000   0.000000   0.000000
   13  O  1 XX    0.000000   0.000000   1.163255  -0.003207
   14  O  1 YY    0.000000   0.000000  -0.581628   0.001603
   15  O  1 ZZ    0.000000   0.000000  -0.581628   0.001603
   16  O  1 XY    0.000000   1.163367   0.000000   0.000000
   17  O  1 XZ    1.163367   0.000000   0.000000   0.000000
   18  O  1 YZ    0.000000   0.000000   0.000000   0.000000
   19  O  1 XX    0.000000   0.000000  -0.589732   0.002966
   20  O  1 YY    0.000000   0.000000   0.294866  -0.001483
   21  O  1 ZZ    0.000000   0.000000   0.294866  -0.001483
   22  O  1 XY    0.000000  -0.591758   0.000000   0.000000
   23  O  1 XZ   -0.591758   0.000000   0.000000   0.000000
   24  O  1 YZ    0.000000   0.000000   0.000000   0.000000
   25  O  1 XXX   0.000000   0.000000   0.000000   0.000000
   26  O  1 YYY   0.000000   0.000000   0.000000   0.000000
   27  O  1 ZZZ   0.000000   0.000000   0.000000   0.000000
   28  O  1 XXY   0.000000   0.000000   0.000000   0.000000
   29  O  1 XXZ   0.000000   0.000000   0.000000   0.000000
   30  O  1 YYX   0.000000   0.000000   0.000000   0.000000
   31  O  1 YYZ   0.000000   0.000000   0.000000   0.000000
   32  O  1 ZZX   0.000000   0.000000   0.000000   0.000000
   33  O  1 ZZY   0.000000   0.000000   0.000000   0.000000
   34  O  1 XYZ   0.000000   0.000000   0.000000   0.000000
 ...... END OF ROHF CALCULATION ......
 STEP CPU TIME =     0.08 TOTAL CPU TIME =        0.4 (    0.0 MIN)
 TOTAL WALL CLOCK TIME=        1.1 SECONDS, CPU UTILIZATION IS  34.51%

     ----------------------------------------------------------------
     PROPERTY VALUES FOR THE ROHF  SELF-CONSISTENT FIELD WAVEFUNCTION
     ----------------------------------------------------------------

          -----------------
          ENERGY COMPONENTS
          -----------------

         WAVEFUNCTION NORMALIZATION =       1.0000000000

                ONE ELECTRON ENERGY =     -26.3140737363
                TWO ELECTRON ENERGY =      10.6247743431
           NUCLEAR REPULSION ENERGY =       0.0000000000
                                      ------------------
                       TOTAL ENERGY =     -15.6892993931

 ELECTRON-ELECTRON POTENTIAL ENERGY =      10.6247743431
  NUCLEUS-ELECTRON POTENTIAL ENERGY =     -38.1607539664
   NUCLEUS-NUCLEUS POTENTIAL ENERGY =       0.0000000000
                                      ------------------
             TOTAL POTENTIAL ENERGY =     -27.5359796233
               TOTAL KINETIC ENERGY =      11.8466802301
                 VIRIAL RATIO (V/T) =       2.3243625293

          ---------------------------------------
          MULLIKEN AND LOWDIN POPULATION ANALYSES
          ---------------------------------------

     ATOMIC MULLIKEN POPULATION IN EACH MOLECULAR ORBITAL

                      1          2          3          4

                  2.000000   2.000000   1.000000   1.000000

    1             2.000000   2.000000   1.000000   1.000000

          MULLIKEN SPHERICAL HARMONIC POPULATIONS
       ATOM           S       P       D      F      G      H      I    TOTAL
    1 O             1.00    3.00    0.00   0.00   0.00   0.00   0.00    4.00

          MULLIKEN SPHERICAL HARMONIC POPULATIONS
       ATOM           S       P       D      F      G      H      I    TOTAL
    1 O             1.00    1.00    0.00   0.00   0.00   0.00   0.00    2.00

     ATOMIC SPIN POPULATION (ALPHA MINUS BETA)
       ATOM         MULL.POP.                    LOW.POP.
    1 O             2.000000                     2.000000

               ----- POPULATIONS IN EACH AO -----
                             MULLIKEN      LOWDIN
              1  O  1  S      2.00045     0.46730
              2  O  1  S      0.00010     0.19291
              3  O  1  S     -0.00057     0.32946
              4  O  1  X      2.00099     0.99662
              5  O  1  Y      1.04219     0.51339
              6  O  1  Z      1.04219     0.51339
              7  O  1  X      0.00054     0.36786
              8  O  1  Y      0.00627     0.18629
              9  O  1  Z      0.00627     0.18629
             10  O  1  X     -0.00157     0.20523
             11  O  1  Y     -0.04851     0.07451
             12  O  1  Z     -0.04851     0.07451
             13  O  1 XX      0.00000     0.16919
             14  O  1 YY      0.00000     0.16746
             15  O  1 ZZ      0.00000     0.16746
             16  O  1 XY      0.00000     0.00000
             17  O  1 XZ      0.00000     0.00000
             18  O  1 YZ      0.00000     0.00000
             19  O  1 XX      0.00000     0.17144
             20  O  1 YY      0.00001     0.16738
             21  O  1 ZZ      0.00000     0.16738
             22  O  1 XY      0.00000     0.00000
             23  O  1 XZ      0.00000     0.00000
             24  O  1 YZ      0.00000     0.00000
             25  O  1 XXX     0.00002     0.21761
             26  O  1 YYY     0.00003     0.11851
             27  O  1 ZZZ     0.00001     0.11851
             28  O  1 XXY     0.00002     0.05179
             29  O  1 XXZ     0.00000     0.05179
             30  O  1 YYX     0.00000     0.10634
             31  O  1 YYZ     0.00005     0.05550
             32  O  1 ZZX     0.00000     0.10634
             33  O  1 ZZY     0.00000     0.05550
             34  O  1 XYZ     0.00000     0.00000

          ----- MULLIKEN ATOMIC OVERLAP POPULATIONS -----
          (OFF-DIAGONAL ELEMENTS NEED TO BE MULTIPLIED BY 2)

             1

    1    6.0000000

          TOTAL MULLIKEN AND LOWDIN ATOMIC POPULATIONS
       ATOM         MULL.POP.    CHARGE          LOW.POP.     CHARGE
    1 O             6.000000   -0.000000         6.000000   -0.000000

          MULLIKEN SPHERICAL HARMONIC POPULATIONS
       ATOM           S       P       D      F      G      H      I    TOTAL
    1 O             2.00    4.00    0.00   0.00   0.00   0.00   0.00    6.00

          -------------------------------
          BOND ORDER AND VALENCE ANALYSIS     BOND ORDER THRESHOLD=0.050
          -------------------------------

                   BOND                       BOND                       BOND
  ATOM PAIR DIST  ORDER      ATOM PAIR DIST  ORDER      ATOM PAIR DIST  ORDER

                       TOTAL       BONDED        FREE
      ATOM            VALENCE     VALENCE     VALENCE
    1 O                 2.000       0.000       2.000

          -----------------------------------------
          ATOMIC SPIN DENSITY AT THE NUCLEUS (A.U.)
          -----------------------------------------
                            SPIN DENS    ALPHA DENS     BETA DENS
    1  O            6.0     0.0000000       0.01268       0.01268

          ---------------------
          ELECTROSTATIC MOMENTS
          ---------------------

 POINT   1           X           Y           Z (BOHR)    CHARGE
                 0.000000    0.000000    0.000000       -0.00 (A.U.)
         DX          DY          DZ         /D/  (DEBYE)
     0.000000    0.000000    0.000000    0.000000
 ...... END OF PROPERTY EVALUATION ......
 STEP CPU TIME =     0.02 TOTAL CPU TIME =        0.4 (    0.0 MIN)
 TOTAL WALL CLOCK TIME=        1.2 SECONDS, CPU UTILIZATION IS  34.17%
                580000  WORDS OF DYNAMIC MEMORY USED
 EXECUTION OF GAMESS TERMINATED NORMALLY Thu Sep 27 12:43:28 2018
 DDI: 263624 bytes (0.3 MB / 0 MWords) used by master data server.

 ----------------------------------------
 CPU timing information for all processes
 ========================================
 0: 0.193 + 0.259 = 0.453
 ----------------------------------------
 ddikick.x: exited gracefully.
----- accounting info -----
Files used on the master node c409-054.stampede2.tacc.utexas.edu were:
-rw------- 1 aannabe G-801537    1054 Sep 27 12:43 /tmp/O.F05
-rw------- 1 aannabe G-801537  360032 Sep 27 12:43 /tmp/O.F08
-rw------- 1 aannabe G-801537 2617600 Sep 27 12:43 /tmp/O.F10
Thu Sep 27 12:43:31 CDT 2018
1.154u 0.753s 0:06.42 29.5%	0+0k 6520+40io 33pf+0w
