TACC:  Starting up job 3912517 
TACC:  Starting parallel tasks... 
  Input file(s): Ga.log.qmc.in-wfj.xml 

=====================================================
                    QMCPACK 3.7.9

       (c) Copyright 2003-  QMCPACK developers

                    Please cite:
 J. Kim et al. J. Phys. Cond. Mat. 30 195901 (2018)
      https://doi.org/10.1088/1361-648X/aab9c3

  Git branch: develop
  Last git commit: 9a049a3fb3e0d7110d61a924a52203fd8296522a
  Last git commit date: Mon Jul 1 13:42:43 2019 -0500
  Last git commit subject: Merge pull request #1686 from ye-luo/rename-to-LCAOHDFParser
=====================================================
  Global options 

  Total number of MPI ranks = 1024
  Number of MPI groups      = 1
  MPI group ID              = 0
  Number of ranks in group  = 1024
  MPI ranks per node        = 64
  OMP 1st level threads     = 1
  OMP nested threading disabled or only 1 thread on the 2nd level

  Precision used in this calculation, see definitions in the manual:
  Base precision      = double
  Full precision      = double

  Structure-of-arrays (SoA) optimization enabled

  Input XML = Ga.log.qmc.in-wfj.xml

  Project = Ga.log
  date    = 2019-07-01 18:15:15 CDT
  host    = c402-101.stampede2.tacc.utexas.edu

 Random Number
 -------------
  Offset for the random number seeds based on time: 3

  Range of prime numbers to use as seeds over processors and threads = 11-8209


 Particle Set 
 ------------
  Name: ion0
  All the species have the same mass 1
  Particle set size: 1

 Particle Set 
 ------------
  Name: e
  All the species have the same mass 1
  Particle set size: 3

 Wavefunction setup: 
 ------------------- 
  Name: psi0
  LCAO: SoaAtomicBasisSet<MultiQuintic,1>
Reading BasisSet from HDF5 file:Ga.log.h5
<input node="atomicBasisSet" name="gaussian" expandYlm="pyscf" angular="spherical" elementType="Ga" normalized="no" type="Numerical" expM="0" />
  AO BasisSet for Ga
   Spherical Harmonics contain (-1)^m factor
   Angular momentum m expanded as -l, ... ,l, with the exception of L=1 (1,-1,0)
   Grid is created by the input paremters in h5
    Using log grid ri = 1e-06 rf = 100 npts = 1001
   R(n,l,m,s) 0 0 0 0
   R(n,l,m,s) 1 0 0 0
   R(n,l,m,s) 2 0 0 0
   R(n,l,m,s) 3 1 0 0
   R(n,l,m,s) 4 1 0 0
   R(n,l,m,s) 5 1 0 0
   R(n,l,m,s) 6 2 0 0
   R(n,l,m,s) 7 2 0 0
   R(n,l,m,s) 8 3 0 0
Expanding Ylm as L=1 as (1,-1,0) and L>1 as -l,-l+1,...,l-1,l
   Adding 1 spherical orbitals
   Adding 1 spherical orbitals
   Adding 1 spherical orbitals
   Adding 3 spherical orbitals
   Adding 3 spherical orbitals
   Adding 3 spherical orbitals
   Adding 5 spherical orbitals
   Adding 5 spherical orbitals
   Adding 7 spherical orbitals
  Setting cutoff radius 17.7011

   Maximum Angular Momentum  = 3
   Number of Radial functors = 9
   Basis size                = 29

  Created SPOSet builder named 'LCAOBSet' of type molecularorbital
Reuse SPOSetBuilder "LCAOBSet" type MolecularOrbital
  Building SPOSet '' with '' basis set.
Reuse SPOSetBuilder "LCAOBSet" type MolecularOrbital
  Building SPOSet '' with '' basis set.
  Creating a determinant updet group=0 sposet=updet
  Reusing a SPO set updet
Using DiracDeterminant with DelayedUpdate engine
Using rank-1 Sherman-Morrison Fahy update

  Creating a determinant downdet group=1 sposet=downdet
  Reusing a SPO set downdet
Using DiracDeterminant with DelayedUpdate engine
Using rank-1 Sherman-Morrison Fahy update

  FermionWF = SlaterDet

   Jastrow
   -------
    Name: J2   Type: Two-Body   Function: Bspline

    Radial function for species: u - u
     Number of parameters: 10
     Cusp: -0.25
     Cutoff radius: 10

     Name                        Value Type Recompute Use Index
     ---- ---------------------------- ---- --------- --- -----
     uu_0                 2.412601e-01    1         1  ON     0
     uu_1                 2.746342e-01    1         1  ON     1
     uu_2                 1.183869e-01    1         1  ON     2
     uu_3                 3.805357e-02    1         1  ON     3
     uu_4                -2.376763e-02    1         1  ON     4
     uu_5                -7.152068e-02    1         1  ON     5
     uu_6                -1.037994e-01    1         1  ON     6
     uu_7                -1.187539e-01    1         1  ON     7
     uu_8                -1.093090e-01    1         1  ON     8
     uu_9                -9.287626e-02    1         1  ON     9

    Radial function for species: u - d
     Number of parameters: 10
     Cusp: -0.5
     Cutoff radius: 10

     Name                        Value Type Recompute Use Index
     ---- ---------------------------- ---- --------- --- -----
     ud_0                 1.347995e+00    1         1  ON     0
     ud_1                 1.019638e+00    1         1  ON     1
     ud_2                 7.547291e-01    1         1  ON     2
     ud_3                 5.502432e-01    1         1  ON     3
     ud_4                 3.763521e-01    1         1  ON     4
     ud_5                 2.321574e-01    1         1  ON     5
     ud_6                 1.155453e-01    1         1  ON     6
     ud_7                 2.149693e-02    1         1  ON     7
     ud_8                -3.718970e-02    1         1  ON     8
     ud_9                -7.671014e-02    1         1  ON     9


   Jastrow
   -------
    Name: J1   Type: One-Body   Function: Bspline

    Radial function for element: Ga
     Number of parameters: 10
     Cusp: 0
     Cutoff radius: 10

      Name                        Value Type Recompute Use Index
     ----- ---------------------------- ---- --------- --- -----
     eGa_0                -4.712381e-01    1         1  ON     0
     eGa_1                -4.303240e-01    1         1  ON     1
     eGa_2                -4.816009e-01    1         1  ON     2
     eGa_3                -3.106204e-01    1         1  ON     3
     eGa_4                -1.653577e-01    1         1  ON     4
     eGa_5                -6.283536e-03    1         1  ON     5
     eGa_6                 1.099698e-01    1         1  ON     6
     eGa_7                 2.079626e-01    1         1  ON     7
     eGa_8                 2.674205e-01    1         1  ON     8
     eGa_9                 2.833260e-01    1         1  ON     9


   Jastrow
   -------
    Name: J3   Type: eeI   Function: polynomial

     Ion: Ga   electron-electron: u - u
      Number of parameters for e-e: 3, for e-I: 3
      Cutoff radius: 10

Expected 26 parameters, but found 0 in PolynomialFunctor3D.
         Name                        Value Type Recompute Use Index
      ------- ---------------------------- ---- --------- --- -----
       uuGa_0                 0.000000e+00    1         1  ON     0
       uuGa_1                 0.000000e+00    1         1  ON     1
       uuGa_2                 0.000000e+00    1         1  ON     2
       uuGa_3                 0.000000e+00    1         1  ON     3
       uuGa_4                 0.000000e+00    1         1  ON     4
       uuGa_5                 0.000000e+00    1         1  ON     5
       uuGa_6                 0.000000e+00    1         1  ON     6
       uuGa_7                 0.000000e+00    1         1  ON     7
       uuGa_8                 0.000000e+00    1         1  ON     8
       uuGa_9                 0.000000e+00    1         1  ON     9
      uuGa_10                 0.000000e+00    1         1  ON    10
      uuGa_11                 0.000000e+00    1         1  ON    11
      uuGa_12                 0.000000e+00    1         1  ON    12
      uuGa_13                 0.000000e+00    1         1  ON    13
      uuGa_14                 0.000000e+00    1         1  ON    14
      uuGa_15                 0.000000e+00    1         1  ON    15
      uuGa_16                 0.000000e+00    1         1  ON    16
      uuGa_17                 0.000000e+00    1         1  ON    17
      uuGa_18                 0.000000e+00    1         1  ON    18
      uuGa_19                 0.000000e+00    1         1  ON    19
      uuGa_20                 0.000000e+00    1         1  ON    20
      uuGa_21                 0.000000e+00    1         1  ON    21
      uuGa_22                 0.000000e+00    1         1  ON    22
      uuGa_23                 0.000000e+00    1         1  ON    23
      uuGa_24                 0.000000e+00    1         1  ON    24
      uuGa_25                 0.000000e+00    1         1  ON    25

     Ion: Ga   electron-electron: u - d
      Number of parameters for e-e: 3, for e-I: 3
      Cutoff radius: 10

Expected 26 parameters, but found 0 in PolynomialFunctor3D.
         Name                        Value Type Recompute Use Index
      ------- ---------------------------- ---- --------- --- -----
       udGa_0                 0.000000e+00    1         1  ON     0
       udGa_1                 0.000000e+00    1         1  ON     1
       udGa_2                 0.000000e+00    1         1  ON     2
       udGa_3                 0.000000e+00    1         1  ON     3
       udGa_4                 0.000000e+00    1         1  ON     4
       udGa_5                 0.000000e+00    1         1  ON     5
       udGa_6                 0.000000e+00    1         1  ON     6
       udGa_7                 0.000000e+00    1         1  ON     7
       udGa_8                 0.000000e+00    1         1  ON     8
       udGa_9                 0.000000e+00    1         1  ON     9
      udGa_10                 0.000000e+00    1         1  ON    10
      udGa_11                 0.000000e+00    1         1  ON    11
      udGa_12                 0.000000e+00    1         1  ON    12
      udGa_13                 0.000000e+00    1         1  ON    13
      udGa_14                 0.000000e+00    1         1  ON    14
      udGa_15                 0.000000e+00    1         1  ON    15
      udGa_16                 0.000000e+00    1         1  ON    16
      udGa_17                 0.000000e+00    1         1  ON    17
      udGa_18                 0.000000e+00    1         1  ON    18
      udGa_19                 0.000000e+00    1         1  ON    19
      udGa_20                 0.000000e+00    1         1  ON    20
      udGa_21                 0.000000e+00    1         1  ON    21
      udGa_22                 0.000000e+00    1         1  ON    22
      udGa_23                 0.000000e+00    1         1  ON    23
      udGa_24                 0.000000e+00    1         1  ON    24
      udGa_25                 0.000000e+00    1         1  ON    25

  QMCHamiltonian::addOperator Kinetic to H, physical Hamiltonian 
  QMCHamiltonian::addOperator ElecElec to H, physical Hamiltonian 
QMCHamiltonian::addOperatorType added type coulomb named ElecElec
  CoulombAA for ion0 is not created.  Number of particles == 1 and nonPeriodic

  ECPotential builder for pseudopotential 

  Adding pseudopotential for Ga
   Linear grid  ri=0 rf=10 npts = 10001
    ECPComponentBuilder::buildSemiLocalAndLocal 
    Assuming Hartree unit
   Number of angular momentum channels 4
   Maximum angular momentum channel 3
   Creating a Linear Grid Rmax=5.26
  Using global grid with delta = 0.001
   Making L=3 a local potential with a radial cutoff of 9.999
    Non-local pseudopotential parameters
    Maximum angular mementum = 2
    Number of non-local channels = 3
       l(0)=0
       l(1)=1
       l(2)=2
    Cutoff radius = 5.26
    Spherical grids and weights: 
                        1                 0                 0       0.08333333333
                       -1   1.224646799e-16                 0       0.08333333333
             0.4472135955       0.894427191                 0       0.08333333333
            -0.4472135955      0.7236067977      0.5257311121       0.08333333333
             0.4472135955      0.2763932023      0.8506508084       0.08333333333
            -0.4472135955     -0.2763932023      0.8506508084       0.08333333333
             0.4472135955     -0.7236067977      0.5257311121       0.08333333333
            -0.4472135955      -0.894427191   1.095357397e-16       0.08333333333
             0.4472135955     -0.7236067977     -0.5257311121       0.08333333333
            -0.4472135955     -0.2763932023     -0.8506508084       0.08333333333
             0.4472135955      0.2763932023     -0.8506508084       0.08333333333
            -0.4472135955      0.7236067977     -0.5257311121       0.08333333333
    Maximum cutoff radius 5.26
  QMCHamiltonian::addOperator LocalECP to H, physical Hamiltonian 

  Using NonLocalECP potential 
    Maximum grid on a sphere for NonLocalECPotential: 12
  QMCHamiltonian::addOperator NonLocalECP to H, physical Hamiltonian 
QMCHamiltonian::addOperatorType added type pseudo named PseudoPot

  QMCHamiltonian::add2WalkerProperty added
    4 to P::PropertyList 
    0 to P::Collectables 
    starting Index of the observables in P::PropertyList = 9
ParticleSetPool::randomize 
<init source="ion0" target="e">
</init>
  Initialization Execution time = 0.4576 secs
=========================================================
 Summary of QMC systems 
=========================================================
ParticleSetPool has: 

  ParticleSet 'e' contains 3 particles :  u(2) d(1)

    u  4.9652555610e-01  2.2722720877e-01 -8.7691986401e-02
    u -1.4768611236e-01  3.3228227728e-01  9.0710242276e-01
    d  1.2448373864e+00 -6.2168785532e-01  7.1386519417e-01

  Distance table for dissimilar particles (A-B):
    source: ion0  target: e
    Using structure-of-arrays (SoA) data layout
    Distance computations use open boundary conditions in 3D.

  Distance table for similar particles (A-A):
    source/target: e
    Using structure-of-arrays (SoA) data layout
    Distance computations use open boundary conditions in 3D.


  ParticleSet 'ion0' contains 1 particles :  Ga(1)

    Ga  0.0000000000e+00  0.0000000000e+00  0.0000000000e+00


  Hamiltonian h0
  Kinetic         Kinetic energy
  ElecElec        CoulombAB source=e

  LocalECP        LocalECPotential: ion0
  NonLocalECP     NonLocalECPotential: ion0


=========================================================
  Start VMC
  File Root Ga.log.s000 append = no 
=========================================================
  Adding 1 walkers to 0 existing sets
  Total number of walkers: 1.0240000000e+03
  Total weight: 1.0240000000e+03
  Resetting Properties of the walkers 1 x 13

<vmc function="put">
  qmc_counter=0  my_counter=0
  time step      = 1.5000000000e-01
  blocks         = 200
  steps          = 1
  substeps       = 5
  current        = 0
  target samples = 1.0240000000e+03
  walkers/mpi    = 1

  stepsbetweensamples = 200
<parameter name="blocks" condition="int">200</parameter>
<parameter name="blocks_between_recompute" condition="int">0</parameter>
<parameter name="check_properties" condition="int">100</parameter>
<parameter name="checkproperties" condition="int">100</parameter>
<parameter name="current" condition="int">0</parameter>
<parameter name="dmcwalkersperthread" condition="real">1.0000000000e+00</parameter>
<parameter name="maxcpusecs" condition="real">3.6000000000e+05</parameter>
<parameter name="record_configs" condition="int">0</parameter>
<parameter name="record_walkers" condition="int">200</parameter>
<parameter name="recordconfigs" condition="int">0</parameter>
<parameter name="recordwalkers" condition="int">200</parameter>
<parameter name="rewind" condition="int">0</parameter>
<parameter name="samples" condition="real">1.0240000000e+03</parameter>
<parameter name="samplesperthread" condition="real">1.0000000000e+00</parameter>
<parameter name="steps" condition="int">1</parameter>
<parameter name="stepsbetweensamples" condition="int">200</parameter>
<parameter name="store_configs" condition="int">0</parameter>
<parameter name="storeconfigs" condition="int">0</parameter>
<parameter name="sub_steps" condition="int">5</parameter>
<parameter name="substeps" condition="int">5</parameter>
<parameter name="tau" condition="au">1.5000000000e-01</parameter>
<parameter name="time_step" condition="au">1.5000000000e-01</parameter>
<parameter name="timestep" condition="au">1.5000000000e-01</parameter>
<parameter name="use_drift" condition="string">no</parameter>
<parameter name="usedrift" condition="string">no</parameter>
<parameter name="walkers" condition="int">1</parameter>
<parameter name="warmup_steps" condition="int">100</parameter>
<parameter name="warmupsteps" condition="int">100</parameter>
  DumpConfig==false Nothing (configurations, state) will be saved.
  Walker Samples are dumped every 200 steps.
</vmc>
  Set drift_modifier UNR parameter a = 1.0000000000e+00
  Initial partition of walkers 0 1 

  Using Particle by Particle moves
  Walker moves without drift
  Total Sample Size   =1024
  Walker distribution on root = 0 1 
  Using Locality Approximation
===== Memory Usage after the buffer registration =====
Available memory on node 0, free + buffers : 81846 MB
Memory footprint by rank 0 on node 0       : 69 MB
==================================================
  Anonymous Buffer size per walker : 1184 Bytes.
MEMORY increase 0 MB VMC::resetRun
====================================================
  SimpleFixedNodeBranch::finalize after a VMC block
    QMC counter        = 0
    time step          = 0.15
    reference energy   = -2.02793
    reference variance = 0.022077
====================================================
  QMC Execution time = 1.6761e+00 secs
Loop execution max-interations = 20

=========================================================
  Start QMCFixedSampleLinearOptimize
  File Root Ga.log.s001 append = no 
=========================================================
  Skip QMCDriver::putQMCInfo 
  Resetting Properties of the walkers 1 x 13

=========================================================
  Start VMC
  File Root Ga.log.s001 append = no 
=========================================================
  Using the current 1 walkers.
  Total number of walkers: 1.0240e+03
  Total weight: 1.0240e+03
  Resetting Properties of the walkers 1 x 13

<vmc function="put">
  qmc_counter=0  my_counter=0
  time step      = 1.5000e-01
  blocks         = 500
  steps          = 1
  substeps       = 5
  current        = 0
  target samples = 5.1200e+05
  walkers/mpi    = 1

  stepsbetweensamples = 1
<parameter name="blocks" condition="int">500</parameter>
<parameter name="blocks_between_recompute" condition="int">0</parameter>
<parameter name="check_properties" condition="int">100</parameter>
<parameter name="checkproperties" condition="int">100</parameter>
<parameter name="current" condition="int">0</parameter>
<parameter name="dmcwalkersperthread" condition="real">5.0000e+02</parameter>
<parameter name="maxcpusecs" condition="real">3.6000e+05</parameter>
<parameter name="record_configs" condition="int">0</parameter>
<parameter name="record_walkers" condition="int">1</parameter>
<parameter name="recordconfigs" condition="int">0</parameter>
<parameter name="recordwalkers" condition="int">1</parameter>
<parameter name="rewind" condition="int">0</parameter>
<parameter name="samples" condition="real">5.1200e+05</parameter>
<parameter name="samplesperthread" condition="real">5.0000e+02</parameter>
<parameter name="steps" condition="int">1</parameter>
<parameter name="stepsbetweensamples" condition="int">1</parameter>
<parameter name="store_configs" condition="int">0</parameter>
<parameter name="storeconfigs" condition="int">0</parameter>
<parameter name="sub_steps" condition="int">5</parameter>
<parameter name="substeps" condition="int">5</parameter>
<parameter name="tau" condition="au">1.5000e-01</parameter>
<parameter name="time_step" condition="au">1.5000e-01</parameter>
<parameter name="timestep" condition="au">1.5000e-01</parameter>
<parameter name="use_drift" condition="string">no</parameter>
<parameter name="usedrift" condition="string">no</parameter>
<parameter name="walkers" condition="int">1</parameter>
<parameter name="warmup_steps" condition="int">0</parameter>
<parameter name="warmupsteps" condition="int">0</parameter>
  DumpConfig==false Nothing (configurations, state) will be saved.
  Walker Samples are dumped every 1 steps.
</vmc>
    Restarting, cummulative properties:
      energy     = -2.0279e+00
      variance   = 0.0000e+00
      r2accepted = 1.0000e-10
      r2proposed = 1.0000e-10
  Set drift_modifier UNR parameter a = 1.0000e+00
 Using QMCCostFunction::QMCCostFunction
  Set drift_modifier UNR parameter a = 1.0000e+00
  EstimatorManagerBase::add replace LocalEnergy estimator.
<optimization-report>
<vmc stage="main" blocks="500">
  Cannot make clones again. Use existing 1 clones
  Initial partition of walkers 0 1 

  Using Particle by Particle moves
  Walker moves without drift
  Total Sample Size   =512000
  Walker distribution on root = 0 1 
  Using Locality Approximation
===== Memory Usage after the buffer registration =====
Available memory on node 0, free + buffers : 54544 MB
Memory footprint by rank 0 on node 0       : 70 MB
==================================================
  Anonymous Buffer size per walker : 1184 Bytes.
MEMORY increase 0 MB VMC::resetRun
====================================================
  SimpleFixedNodeBranch::finalize after a VMC block
    QMC counter        = 1
    time step          = 0.15
    reference energy   = -2.01901
    reference variance = 0.0239668
====================================================
  Execution time = 3.0120e+00
</vmc>
<opt stage="setup">
  <log>
   Reading configurations from h5FileRoot Ga.log.s001
  QMCCostFunction is created with 1 threads.
  Using Nonlocal PP in Opt: NonLocalECP
   Number of samples loaded to each thread : 500 
  VMC Eavg = -1.9984e+00
  VMC Evar = 5.0869e-01
  Total weights = 5.1200e+05
  Execution time = 6.5094e-01
  </log>
</opt>
<opt stage="main" walkers="512000">
  <log>

*****************************************
Building overlap and Hamiltonian matrices
*****************************************

Among totally 82 optimized parameters, largest LM parameter change : 4.0734e-02 at parameter 21

******************************************************************************
Init Cost =  -1.8730e+00    New Cost =  -1.8811e+00  Delta Cost =  -8.0541e-03
******************************************************************************

The new set of parameters is valid. Updating the trial wave function!

*****************************************************************************
Applying the update for shift_i =   1.0000e-02     and shift_s =   2.5000e-01
*****************************************************************************
  Execution time = 4.4580e+00
  </log>
  <optVariables href="Ga.log.s001.opt.xml">
   uu_0                 2.472616e-01 1 1  ON 0
   uu_1                 2.735638e-01 1 1  ON 1
   uu_2                 1.304733e-01 1 1  ON 2
   uu_3                 5.550055e-02 1 1  ON 3
   uu_4                -1.476642e-02 1 1  ON 4
   uu_5                -7.279719e-02 1 1  ON 5
   uu_6                -1.049949e-01 1 1  ON 6
   uu_7                -1.193938e-01 1 1  ON 7
   uu_8                -1.053610e-01 1 1  ON 8
   uu_9                -9.065139e-02 1 1  ON 9
   ud_0                 1.364446e+00 1 1  ON 10
   ud_1                 1.015943e+00 1 1  ON 11
   ud_2                 7.557493e-01 1 1  ON 12
   ud_3                 5.496974e-01 1 1  ON 13
   ud_4                 3.901630e-01 1 1  ON 14
   ud_5                 2.555311e-01 1 1  ON 15
   ud_6                 1.349686e-01 1 1  ON 16
   ud_7                 3.998865e-02 1 1  ON 17
   ud_8                -2.125449e-02 1 1  ON 18
   ud_9                -6.478914e-02 1 1  ON 19
  eGa_0                -5.111500e-01 1 1  ON 20
  eGa_1                -3.895900e-01 1 1  ON 21
  eGa_2                -4.765835e-01 1 1  ON 22
  eGa_3                -3.223001e-01 1 1  ON 23
  eGa_4                -1.547553e-01 1 1  ON 24
  eGa_5                -2.491724e-02 1 1  ON 25
  eGa_6                 9.652159e-02 1 1  ON 26
  eGa_7                 1.956107e-01 1 1  ON 27
  eGa_8                 2.597816e-01 1 1  ON 28
  eGa_9                 2.821618e-01 1 1  ON 29
 uuGa_0                 9.238854e-05 1 1  ON 30
 uuGa_1                 1.155038e-04 1 1  ON 31
 uuGa_2                 8.888725e-05 1 1  ON 32
 uuGa_3                -1.589437e-04 1 1  ON 33
 uuGa_4                -4.225059e-05 1 1  ON 34
 uuGa_5                 7.280363e-06 1 1  ON 35
 uuGa_6                -4.375471e-05 1 1  ON 36
 uuGa_7                 2.911626e-04 1 1  ON 37
 uuGa_8                 2.534857e-04 1 1  ON 38
 uuGa_9                -1.959566e-04 1 1  ON 39
uuGa_10                -7.226501e-05 1 1  ON 40
uuGa_11                -2.216596e-04 1 1  ON 41
uuGa_12                -4.626063e-05 1 1  ON 42
uuGa_13                 2.724056e-04 1 1  ON 43
uuGa_14                 6.992472e-05 1 1  ON 44
uuGa_15                -2.553965e-06 1 1  ON 45
uuGa_16                 5.737869e-05 1 1  ON 46
uuGa_17                 2.484403e-04 1 1  ON 47
uuGa_18                 5.663970e-05 1 1  ON 48
uuGa_19                 1.354952e-06 1 1  ON 49
uuGa_20                -1.026996e-04 1 1  ON 50
uuGa_21                -1.328486e-05 1 1  ON 51
uuGa_22                 2.463942e-06 1 1  ON 52
uuGa_23                 2.605567e-05 1 1  ON 53
uuGa_24                 4.385588e-07 1 1  ON 54
uuGa_25                -4.935636e-07 1 1  ON 55
 udGa_0                -5.862893e-05 1 1  ON 56
 udGa_1                -1.822654e-05 1 1  ON 57
 udGa_2                -1.561558e-05 1 1  ON 58
 udGa_3                 1.515101e-04 1 1  ON 59
 udGa_4                 3.431029e-05 1 1  ON 60
 udGa_5                -8.939424e-06 1 1  ON 61
 udGa_6                 1.593979e-04 1 1  ON 62
 udGa_7                -1.565358e-04 1 1  ON 63
 udGa_8                -1.618500e-04 1 1  ON 64
 udGa_9                -2.748008e-05 1 1  ON 65
udGa_10                 8.323576e-05 1 1  ON 66
udGa_11                 8.824811e-05 1 1  ON 67
udGa_12                 4.157492e-05 1 1  ON 68
udGa_13                -1.787616e-04 1 1  ON 69
udGa_14                -5.205825e-05 1 1  ON 70
udGa_15                 1.101610e-06 1 1  ON 71
udGa_16                 1.536962e-04 1 1  ON 72
udGa_17                -2.316354e-04 1 1  ON 73
udGa_18                 1.409067e-05 1 1  ON 74
udGa_19                -1.188797e-05 1 1  ON 75
udGa_20                 2.752659e-05 1 1  ON 76
udGa_21                 5.368775e-06 1 1  ON 77
udGa_22                -1.879819e-07 1 1  ON 78
udGa_23                -3.797636e-06 1 1  ON 79
udGa_24                -1.572014e-07 1 1  ON 80
udGa_25                 9.306353e-08 1 1  ON 81
  </optVariables>
   Restore the number of walkers to 1, removing 0 walkers.
</opt>
</optimization-report>
  QMC Execution time = 4.471 secs
  Reusing QMCFixedSampleLinearOptimize
 Using QMCCostFunction::QMCCostFunction

=========================================================
  Start QMCFixedSampleLinearOptimize
  File Root Ga.log.s002 append = no 
=========================================================
  Skip QMCDriver::putQMCInfo 
  Resetting Properties of the walkers 1 x 13

=========================================================
  Start VMC
  File Root Ga.log.s002 append = no 
=========================================================
Using existing walkers 
  Resetting Properties of the walkers 1 x 13

<vmc function="put">
  qmc_counter=1  my_counter=1
  time step      = 1.5000e-01
  blocks         = 500
  steps          = 1
  substeps       = 5
  current        = 0
  target samples = 5.1200e+05
  walkers/mpi    = 1

  stepsbetweensamples = 1
<parameter name="blocks" condition="int">500</parameter>
<parameter name="blocks_between_recompute" condition="int">0</parameter>
<parameter name="check_properties" condition="int">100</parameter>
<parameter name="checkproperties" condition="int">100</parameter>
<parameter name="current" condition="int">0</parameter>
<parameter name="dmcwalkersperthread" condition="real">5.0000e+02</parameter>
<parameter name="maxcpusecs" condition="real">3.6000e+05</parameter>
<parameter name="record_configs" condition="int">0</parameter>
<parameter name="record_walkers" condition="int">1</parameter>
<parameter name="recordconfigs" condition="int">0</parameter>
<parameter name="recordwalkers" condition="int">1</parameter>
<parameter name="rewind" condition="int">0</parameter>
<parameter name="samples" condition="real">5.1200e+05</parameter>
<parameter name="samplesperthread" condition="real">5.0000e+02</parameter>
<parameter name="steps" condition="int">1</parameter>
<parameter name="stepsbetweensamples" condition="int">1</parameter>
<parameter name="store_configs" condition="int">0</parameter>
<parameter name="storeconfigs" condition="int">0</parameter>
<parameter name="sub_steps" condition="int">5</parameter>
<parameter name="substeps" condition="int">5</parameter>
<parameter name="tau" condition="au">1.5000e-01</parameter>
<parameter name="time_step" condition="au">1.5000e-01</parameter>
<parameter name="timestep" condition="au">1.5000e-01</parameter>
<parameter name="use_drift" condition="string">no</parameter>
<parameter name="usedrift" condition="string">no</parameter>
<parameter name="walkers" condition="int">1</parameter>
<parameter name="warmup_steps" condition="int">0</parameter>
<parameter name="warmupsteps" condition="int">0</parameter>
  DumpConfig==false Nothing (configurations, state) will be saved.
  Walker Samples are dumped every 1 steps.
</vmc>
  Set drift_modifier UNR parameter a = 1.0000e+00
  EstimatorManagerBase::add replace LocalEnergy estimator.
  Set drift_modifier UNR parameter a = 1.0000e+00
  EstimatorManagerBase::add replace LocalEnergy estimator.
<optimization-report>
<vmc stage="main" blocks="500">
  Cannot make clones again. Use existing 1 clones
  Initial partition of walkers 0 1 
  Using Particle by Particle moves
  Walker moves without drift
  Total Sample Size   =512000
  Walker distribution on root = 0 1 
  Using Locality Approximation
===== Memory Usage after the buffer registration =====
Available memory on node 0, free + buffers : 53849 MB
Memory footprint by rank 0 on node 0       : 84 MB
==================================================
====================================================
  SimpleFixedNodeBranch::finalize after a VMC block
    QMC counter        = 2
    time step          = 0.15
    reference energy   = -2.02011
    reference variance = 0.0264323
====================================================
  Execution time = 3.0134e+00
</vmc>
<opt stage="setup">
  <log>
   Reading configurations from h5FileRoot Ga.log.s002
  QMCCostFunction is created with 1 threads.
  Using Nonlocal PP in Opt: NonLocalECP
   Number of samples loaded to each thread : 500 
  VMC Eavg = -1.9997e+00
  VMC Evar = 4.8557e-01
  Total weights = 5.1200e+05
  Execution time = 6.2816e-01
  </log>
</opt>
<opt stage="main" walkers="512000">
  <log>

*****************************************
Building overlap and Hamiltonian matrices
*****************************************

Among totally 82 optimized parameters, largest LM parameter change : 2.2916e-02 at parameter 3

******************************************************************************
Init Cost =  -1.8754e+00    New Cost =  -1.8783e+00  Delta Cost =  -2.8694e-03
******************************************************************************

The new set of parameters is valid. Updating the trial wave function!

*****************************************************************************
Applying the update for shift_i =   1.0000e-02     and shift_s =   6.2500e-02
*****************************************************************************
  Execution time = 4.3987e+00
  </log>
  <optVariables href="Ga.log.s002.opt.xml">
   uu_0                 2.537927e-01 1 1  ON 0
   uu_1                 2.762436e-01 1 1  ON 1
   uu_2                 1.489886e-01 1 1  ON 2
   uu_3                 7.841694e-02 1 1  ON 3
   uu_4                -2.301380e-03 1 1  ON 4
   uu_5                -6.839153e-02 1 1  ON 5
   uu_6                -1.068686e-01 1 1  ON 6
   uu_7                -1.203875e-01 1 1  ON 7
   uu_8                -1.076014e-01 1 1  ON 8
   uu_9                -1.004650e-01 1 1  ON 9
   ud_0                 1.370905e+00 1 1  ON 10
   ud_1                 1.012523e+00 1 1  ON 11
   ud_2                 7.540854e-01 1 1  ON 12
   ud_3                 5.544358e-01 1 1  ON 13
   ud_4                 4.022344e-01 1 1  ON 14
   ud_5                 2.730948e-01 1 1  ON 15
   ud_6                 1.500642e-01 1 1  ON 16
   ud_7                 5.502671e-02 1 1  ON 17
   ud_8                -8.447921e-03 1 1  ON 18
   ud_9                -5.320832e-02 1 1  ON 19
  eGa_0                -5.267109e-01 1 1  ON 20
  eGa_1                -3.851055e-01 1 1  ON 21
  eGa_2                -4.699002e-01 1 1  ON 22
  eGa_3                -3.327762e-01 1 1  ON 23
  eGa_4                -1.574016e-01 1 1  ON 24
  eGa_5                -3.577405e-02 1 1  ON 25
  eGa_6                 9.091509e-02 1 1  ON 26
  eGa_7                 1.893132e-01 1 1  ON 27
  eGa_8                 2.441748e-01 1 1  ON 28
  eGa_9                 2.753283e-01 1 1  ON 29
 uuGa_0                 1.220455e-04 1 1  ON 30
 uuGa_1                 2.127537e-04 1 1  ON 31
 uuGa_2                 9.051201e-05 1 1  ON 32
 uuGa_3                -2.168691e-04 1 1  ON 33
 uuGa_4                -4.940389e-05 1 1  ON 34
 uuGa_5                 1.488158e-06 1 1  ON 35
 uuGa_6                 5.021417e-05 1 1  ON 36
 uuGa_7                 2.589995e-04 1 1  ON 37
 uuGa_8                 2.761899e-04 1 1  ON 38
 uuGa_9                -2.910523e-04 1 1  ON 39
uuGa_10                -1.091977e-04 1 1  ON 40
uuGa_11                -2.047473e-04 1 1  ON 41
uuGa_12                -5.035845e-05 1 1  ON 42
uuGa_13                 3.508213e-04 1 1  ON 43
uuGa_14                 7.544867e-05 1 1  ON 44
uuGa_15                -2.921061e-06 1 1  ON 45
uuGa_16                 9.530010e-05 1 1  ON 46
uuGa_17                 3.206835e-04 1 1  ON 47
uuGa_18                 2.898891e-05 1 1  ON 48
uuGa_19                 1.926053e-06 1 1  ON 49
uuGa_20                -1.298875e-04 1 1  ON 50
uuGa_21                -1.046906e-05 1 1  ON 51
uuGa_22                 2.620326e-06 1 1  ON 52
uuGa_23                 3.204441e-05 1 1  ON 53
uuGa_24                -1.207416e-07 1 1  ON 54
uuGa_25                -5.328806e-07 1 1  ON 55
 udGa_0                -9.752263e-05 1 1  ON 56
 udGa_1                -1.938660e-04 1 1  ON 57
 udGa_2                -3.281796e-05 1 1  ON 58
 udGa_3                 2.750808e-04 1 1  ON 59
 udGa_4                 5.146949e-05 1 1  ON 60
 udGa_5                 1.161554e-05 1 1  ON 61
 udGa_6                 5.917899e-05 1 1  ON 62
 udGa_7                -1.164078e-04 1 1  ON 63
 udGa_8                -2.173437e-04 1 1  ON 64
 udGa_9                 4.389917e-05 1 1  ON 65
udGa_10                 1.467472e-04 1 1  ON 66
udGa_11                 7.717618e-05 1 1  ON 67
udGa_12                 5.621045e-05 1 1  ON 68
udGa_13                -2.907163e-04 1 1  ON 69
udGa_14                -6.422478e-05 1 1  ON 70
udGa_15                 9.637142e-07 1 1  ON 71
udGa_16                 1.686994e-04 1 1  ON 72
udGa_17                -3.345125e-04 1 1  ON 73
udGa_18                 4.482109e-05 1 1  ON 74
udGa_19                -1.781871e-05 1 1  ON 75
udGa_20                 5.271601e-05 1 1  ON 76
udGa_21                 2.347433e-06 1 1  ON 77
udGa_22                 4.167352e-07 1 1  ON 78
udGa_23                -7.598218e-06 1 1  ON 79
udGa_24                 7.731774e-07 1 1  ON 80
udGa_25                -4.881425e-08 1 1  ON 81
  </optVariables>
   Restore the number of walkers to 1, removing 0 walkers.
</opt>
</optimization-report>
  QMC Execution time = 4.411 secs
  Reusing QMCFixedSampleLinearOptimize
 Using QMCCostFunction::QMCCostFunction

=========================================================
  Start QMCFixedSampleLinearOptimize
  File Root Ga.log.s003 append = no 
=========================================================
  Skip QMCDriver::putQMCInfo 
  Resetting Properties of the walkers 1 x 13

=========================================================
  Start VMC
  File Root Ga.log.s003 append = no 
=========================================================
Using existing walkers 
  Resetting Properties of the walkers 1 x 13

<vmc function="put">
  qmc_counter=2  my_counter=2
  time step      = 1.5000e-01
  blocks         = 500
  steps          = 1
  substeps       = 5
  current        = 0
  target samples = 5.1200e+05
  walkers/mpi    = 1

  stepsbetweensamples = 1
<parameter name="blocks" condition="int">500</parameter>
<parameter name="blocks_between_recompute" condition="int">0</parameter>
<parameter name="check_properties" condition="int">100</parameter>
<parameter name="checkproperties" condition="int">100</parameter>
<parameter name="current" condition="int">0</parameter>
<parameter name="dmcwalkersperthread" condition="real">5.0000e+02</parameter>
<parameter name="maxcpusecs" condition="real">3.6000e+05</parameter>
<parameter name="record_configs" condition="int">0</parameter>
<parameter name="record_walkers" condition="int">1</parameter>
<parameter name="recordconfigs" condition="int">0</parameter>
<parameter name="recordwalkers" condition="int">1</parameter>
<parameter name="rewind" condition="int">0</parameter>
<parameter name="samples" condition="real">5.1200e+05</parameter>
<parameter name="samplesperthread" condition="real">5.0000e+02</parameter>
<parameter name="steps" condition="int">1</parameter>
<parameter name="stepsbetweensamples" condition="int">1</parameter>
<parameter name="store_configs" condition="int">0</parameter>
<parameter name="storeconfigs" condition="int">0</parameter>
<parameter name="sub_steps" condition="int">5</parameter>
<parameter name="substeps" condition="int">5</parameter>
<parameter name="tau" condition="au">1.5000e-01</parameter>
<parameter name="time_step" condition="au">1.5000e-01</parameter>
<parameter name="timestep" condition="au">1.5000e-01</parameter>
<parameter name="use_drift" condition="string">no</parameter>
<parameter name="usedrift" condition="string">no</parameter>
<parameter name="walkers" condition="int">1</parameter>
<parameter name="warmup_steps" condition="int">0</parameter>
<parameter name="warmupsteps" condition="int">0</parameter>
  DumpConfig==false Nothing (configurations, state) will be saved.
  Walker Samples are dumped every 1 steps.
</vmc>
  Set drift_modifier UNR parameter a = 1.0000e+00
  EstimatorManagerBase::add replace LocalEnergy estimator.
  Set drift_modifier UNR parameter a = 1.0000e+00
  EstimatorManagerBase::add replace LocalEnergy estimator.
<optimization-report>
<vmc stage="main" blocks="500">
  Cannot make clones again. Use existing 1 clones
  Initial partition of walkers 0 1 
  Using Particle by Particle moves
  Walker moves without drift
  Total Sample Size   =512000
  Walker distribution on root = 0 1 
  Using Locality Approximation
===== Memory Usage after the buffer registration =====
Available memory on node 0, free + buffers : 53842 MB
Memory footprint by rank 0 on node 0       : 87 MB
==================================================
====================================================
  SimpleFixedNodeBranch::finalize after a VMC block
    QMC counter        = 3
    time step          = 0.15
    reference energy   = -2.01441
    reference variance = 0.0302513
====================================================
  Execution time = 3.0255e+00
</vmc>
<opt stage="setup">
  <log>
   Reading configurations from h5FileRoot Ga.log.s003
  QMCCostFunction is created with 1 threads.
  Using Nonlocal PP in Opt: NonLocalECP
   Number of samples loaded to each thread : 500 
  VMC Eavg = -2.0001e+00
  VMC Evar = 4.3939e-01
  Total weights = 5.1200e+05
  Execution time = 6.2704e-01
  </log>
</opt>
<opt stage="main" walkers="512000">
  <log>

*****************************************
Building overlap and Hamiltonian matrices
*****************************************

Among totally 82 optimized parameters, largest LM parameter change : 2.3905e-02 at parameter 25

******************************************************************************
Init Cost =  -1.8781e+00    New Cost =  -1.8788e+00  Delta Cost =  -7.1539e-04
******************************************************************************

The new set of parameters is valid. Updating the trial wave function!

*****************************************************************************
Applying the update for shift_i =   1.0000e-02     and shift_s =   1.5625e-02
*****************************************************************************
  Execution time = 4.3976e+00
  </log>
  <optVariables href="Ga.log.s003.opt.xml">
   uu_0                 2.600325e-01 1 1  ON 0
   uu_1                 2.815533e-01 1 1  ON 1
   uu_2                 1.585014e-01 1 1  ON 2
   uu_3                 8.101181e-02 1 1  ON 3
   uu_4                -2.369893e-04 1 1  ON 4
   uu_5                -6.866087e-02 1 1  ON 5
   uu_6                -1.117130e-01 1 1  ON 6
   uu_7                -1.245909e-01 1 1  ON 7
   uu_8                -1.103523e-01 1 1  ON 8
   uu_9                -9.572032e-02 1 1  ON 9
   ud_0                 1.374798e+00 1 1  ON 10
   ud_1                 1.012471e+00 1 1  ON 11
   ud_2                 7.554331e-01 1 1  ON 12
   ud_3                 5.567446e-01 1 1  ON 13
   ud_4                 4.080517e-01 1 1  ON 14
   ud_5                 2.814840e-01 1 1  ON 15
   ud_6                 1.629178e-01 1 1  ON 16
   ud_7                 6.948598e-02 1 1  ON 17
   ud_8                 3.470528e-03 1 1  ON 18
   ud_9                -3.970520e-02 1 1  ON 19
  eGa_0                -5.325161e-01 1 1  ON 20
  eGa_1                -3.802037e-01 1 1  ON 21
  eGa_2                -4.687638e-01 1 1  ON 22
  eGa_3                -3.434075e-01 1 1  ON 23
  eGa_4                -1.697743e-01 1 1  ON 24
  eGa_5                -5.967932e-02 1 1  ON 25
  eGa_6                 7.274202e-02 1 1  ON 26
  eGa_7                 1.814089e-01 1 1  ON 27
  eGa_8                 2.433849e-01 1 1  ON 28
  eGa_9                 2.772693e-01 1 1  ON 29
 uuGa_0                 1.248495e-04 1 1  ON 30
 uuGa_1                 1.539982e-04 1 1  ON 31
 uuGa_2                 4.984494e-05 1 1  ON 32
 uuGa_3                -2.036175e-04 1 1  ON 33
 uuGa_4                -4.105301e-05 1 1  ON 34
 uuGa_5                 3.125967e-06 1 1  ON 35
 uuGa_6                -5.490922e-05 1 1  ON 36
 uuGa_7                 2.739954e-04 1 1  ON 37
 uuGa_8                 2.356092e-04 1 1  ON 38
 uuGa_9                -2.138253e-04 1 1  ON 39
uuGa_10                -1.008334e-04 1 1  ON 40
uuGa_11                -1.779095e-04 1 1  ON 41
uuGa_12                -4.127982e-05 1 1  ON 42
uuGa_13                 3.247462e-04 1 1  ON 43
uuGa_14                 6.902413e-05 1 1  ON 44
uuGa_15                -3.150155e-06 1 1  ON 45
uuGa_16                 1.941977e-05 1 1  ON 46
uuGa_17                 3.174843e-04 1 1  ON 47
uuGa_18                 1.444614e-05 1 1  ON 48
uuGa_19                 1.130435e-07 1 1  ON 49
uuGa_20                -1.097318e-04 1 1  ON 50
uuGa_21                -8.715668e-06 1 1  ON 51
uuGa_22                 2.639451e-06 1 1  ON 52
uuGa_23                 2.751741e-05 1 1  ON 53
uuGa_24                -1.107299e-07 1 1  ON 54
uuGa_25                -5.371665e-07 1 1  ON 55
 udGa_0                -1.068554e-04 1 1  ON 56
 udGa_1                -3.940007e-04 1 1  ON 57
 udGa_2                -2.994407e-05 1 1  ON 58
 udGa_3                 3.903472e-04 1 1  ON 59
 udGa_4                 6.935024e-05 1 1  ON 60
 udGa_5                 3.004318e-05 1 1  ON 61
 udGa_6                -1.607349e-04 1 1  ON 62
 udGa_7                 3.210492e-05 1 1  ON 63
 udGa_8                -2.381643e-04 1 1  ON 64
 udGa_9                 1.351481e-04 1 1  ON 65
udGa_10                 2.371703e-04 1 1  ON 66
udGa_11                -2.399369e-05 1 1  ON 67
udGa_12                 7.183285e-05 1 1  ON 68
udGa_13                -3.965925e-04 1 1  ON 69
udGa_14                -7.068749e-05 1 1  ON 70
udGa_15                 3.679716e-07 1 1  ON 71
udGa_16                 2.020451e-04 1 1  ON 72
udGa_17                -4.739385e-04 1 1  ON 73
udGa_18                 1.313355e-04 1 1  ON 74
udGa_19                -2.958042e-05 1 1  ON 75
udGa_20                 6.779304e-05 1 1  ON 76
udGa_21                -4.731580e-06 1 1  ON 77
udGa_22                 1.658322e-06 1 1  ON 78
udGa_23                -8.630409e-06 1 1  ON 79
udGa_24                 1.687132e-06 1 1  ON 80
udGa_25                -2.110210e-07 1 1  ON 81
  </optVariables>
   Restore the number of walkers to 1, removing 0 walkers.
</opt>
</optimization-report>
  QMC Execution time = 4.41 secs
  Reusing QMCFixedSampleLinearOptimize
 Using QMCCostFunction::QMCCostFunction

=========================================================
  Start QMCFixedSampleLinearOptimize
  File Root Ga.log.s004 append = no 
=========================================================
  Skip QMCDriver::putQMCInfo 
  Resetting Properties of the walkers 1 x 13

=========================================================
  Start VMC
  File Root Ga.log.s004 append = no 
=========================================================
Using existing walkers 
  Resetting Properties of the walkers 1 x 13

<vmc function="put">
  qmc_counter=3  my_counter=3
  time step      = 1.5000e-01
  blocks         = 500
  steps          = 1
  substeps       = 5
  current        = 0
  target samples = 5.1200e+05
  walkers/mpi    = 1

  stepsbetweensamples = 1
<parameter name="blocks" condition="int">500</parameter>
<parameter name="blocks_between_recompute" condition="int">0</parameter>
<parameter name="check_properties" condition="int">100</parameter>
<parameter name="checkproperties" condition="int">100</parameter>
<parameter name="current" condition="int">0</parameter>
<parameter name="dmcwalkersperthread" condition="real">5.0000e+02</parameter>
<parameter name="maxcpusecs" condition="real">3.6000e+05</parameter>
<parameter name="record_configs" condition="int">0</parameter>
<parameter name="record_walkers" condition="int">1</parameter>
<parameter name="recordconfigs" condition="int">0</parameter>
<parameter name="recordwalkers" condition="int">1</parameter>
<parameter name="rewind" condition="int">0</parameter>
<parameter name="samples" condition="real">5.1200e+05</parameter>
<parameter name="samplesperthread" condition="real">5.0000e+02</parameter>
<parameter name="steps" condition="int">1</parameter>
<parameter name="stepsbetweensamples" condition="int">1</parameter>
<parameter name="store_configs" condition="int">0</parameter>
<parameter name="storeconfigs" condition="int">0</parameter>
<parameter name="sub_steps" condition="int">5</parameter>
<parameter name="substeps" condition="int">5</parameter>
<parameter name="tau" condition="au">1.5000e-01</parameter>
<parameter name="time_step" condition="au">1.5000e-01</parameter>
<parameter name="timestep" condition="au">1.5000e-01</parameter>
<parameter name="use_drift" condition="string">no</parameter>
<parameter name="usedrift" condition="string">no</parameter>
<parameter name="walkers" condition="int">1</parameter>
<parameter name="warmup_steps" condition="int">0</parameter>
<parameter name="warmupsteps" condition="int">0</parameter>
  DumpConfig==false Nothing (configurations, state) will be saved.
  Walker Samples are dumped every 1 steps.
</vmc>
  Set drift_modifier UNR parameter a = 1.0000e+00
  EstimatorManagerBase::add replace LocalEnergy estimator.
  Set drift_modifier UNR parameter a = 1.0000e+00
  EstimatorManagerBase::add replace LocalEnergy estimator.
<optimization-report>
<vmc stage="main" blocks="500">
  Cannot make clones again. Use existing 1 clones
  Initial partition of walkers 0 1 
  Using Particle by Particle moves
  Walker moves without drift
  Total Sample Size   =512000
  Walker distribution on root = 0 1 
  Using Locality Approximation
===== Memory Usage after the buffer registration =====
Available memory on node 0, free + buffers : 53838 MB
Memory footprint by rank 0 on node 0       : 90 MB
==================================================
====================================================
  SimpleFixedNodeBranch::finalize after a VMC block
    QMC counter        = 4
    time step          = 0.15
    reference energy   = -2.0353
    reference variance = 0.0412415
====================================================
  Execution time = 3.0317e+00
</vmc>
<opt stage="setup">
  <log>
   Reading configurations from h5FileRoot Ga.log.s004
  QMCCostFunction is created with 1 threads.
  Using Nonlocal PP in Opt: NonLocalECP
   Number of samples loaded to each thread : 500 
  VMC Eavg = -1.9988e+00
  VMC Evar = 4.5339e-01
  Total weights = 5.1200e+05
  Execution time = 6.4041e-01
  </log>
</opt>
<opt stage="main" walkers="512000">
  <log>

*****************************************
Building overlap and Hamiltonian matrices
*****************************************

Among totally 82 optimized parameters, largest LM parameter change : 1.7368e-02 at parameter 15

******************************************************************************
Init Cost =  -1.8762e+00    New Cost =  -1.8772e+00  Delta Cost =  -1.0179e-03
******************************************************************************

The new set of parameters is valid. Updating the trial wave function!

*****************************************************************************
Applying the update for shift_i =   1.0000e-02     and shift_s =   3.9062e-03
*****************************************************************************
  Execution time = 4.4444e+00
  </log>
  <optVariables href="Ga.log.s004.opt.xml">
   uu_0                 2.655160e-01 1 1  ON 0
   uu_1                 2.862515e-01 1 1  ON 1
   uu_2                 1.672069e-01 1 1  ON 2
   uu_3                 8.972872e-02 1 1  ON 3
   uu_4                 6.489183e-03 1 1  ON 4
   uu_5                -6.725837e-02 1 1  ON 5
   uu_6                -1.088732e-01 1 1  ON 6
   uu_7                -1.198900e-01 1 1  ON 7
   uu_8                -1.089816e-01 1 1  ON 8
   uu_9                -9.457366e-02 1 1  ON 9
   ud_0                 1.379198e+00 1 1  ON 10
   ud_1                 1.012034e+00 1 1  ON 11
   ud_2                 7.609583e-01 1 1  ON 12
   ud_3                 5.700442e-01 1 1  ON 13
   ud_4                 4.235296e-01 1 1  ON 14
   ud_5                 2.988523e-01 1 1  ON 15
   ud_6                 1.757814e-01 1 1  ON 16
   ud_7                 8.026208e-02 1 1  ON 17
   ud_8                 1.187101e-02 1 1  ON 18
   ud_9                -3.386313e-02 1 1  ON 19
  eGa_0                -5.439218e-01 1 1  ON 20
  eGa_1                -3.890941e-01 1 1  ON 21
  eGa_2                -4.726050e-01 1 1  ON 22
  eGa_3                -3.479422e-01 1 1  ON 23
  eGa_4                -1.689503e-01 1 1  ON 24
  eGa_5                -6.298399e-02 1 1  ON 25
  eGa_6                 6.753567e-02 1 1  ON 26
  eGa_7                 1.837338e-01 1 1  ON 27
  eGa_8                 2.399561e-01 1 1  ON 28
  eGa_9                 2.722868e-01 1 1  ON 29
 uuGa_0                 1.303473e-04 1 1  ON 30
 uuGa_1                 1.346878e-04 1 1  ON 31
 uuGa_2                 5.445363e-05 1 1  ON 32
 uuGa_3                -2.074659e-04 1 1  ON 33
 uuGa_4                -4.381139e-05 1 1  ON 34
 uuGa_5                 8.130771e-06 1 1  ON 35
 uuGa_6                -9.513963e-05 1 1  ON 36
 uuGa_7                 3.268859e-04 1 1  ON 37
 uuGa_8                 2.545013e-04 1 1  ON 38
 uuGa_9                -2.147608e-04 1 1  ON 39
uuGa_10                -1.013403e-04 1 1  ON 40
uuGa_11                -2.035959e-04 1 1  ON 41
uuGa_12                -4.402919e-05 1 1  ON 42
uuGa_13                 3.381542e-04 1 1  ON 43
uuGa_14                 7.513348e-05 1 1  ON 44
uuGa_15                -3.461791e-06 1 1  ON 45
uuGa_16                 1.413480e-05 1 1  ON 46
uuGa_17                 3.348052e-04 1 1  ON 47
uuGa_18                 1.994132e-05 1 1  ON 48
uuGa_19                -1.009663e-07 1 1  ON 49
uuGa_20                -1.128944e-04 1 1  ON 50
uuGa_21                -9.707950e-06 1 1  ON 51
uuGa_22                 2.841459e-06 1 1  ON 52
uuGa_23                 2.761991e-05 1 1  ON 53
uuGa_24                -2.645847e-08 1 1  ON 54
uuGa_25                -5.786348e-07 1 1  ON 55
 udGa_0                -7.974026e-06 1 1  ON 56
 udGa_1                -2.760496e-04 1 1  ON 57
 udGa_2                -1.681188e-04 1 1  ON 58
 udGa_3                 2.402831e-04 1 1  ON 59
 udGa_4                 7.298925e-05 1 1  ON 60
 udGa_5                 1.227569e-05 1 1  ON 61
 udGa_6                -2.412677e-04 1 1  ON 62
 udGa_7                -1.357607e-04 1 1  ON 63
 udGa_8                -2.832862e-04 1 1  ON 64
 udGa_9                 2.071855e-04 1 1  ON 65
udGa_10                 1.476510e-04 1 1  ON 66
udGa_11                 1.300807e-04 1 1  ON 67
udGa_12                 6.894849e-05 1 1  ON 68
udGa_13                -2.533810e-04 1 1  ON 69
udGa_14                -6.606153e-05 1 1  ON 70
udGa_15                 7.394534e-08 1 1  ON 71
udGa_16                -4.129356e-05 1 1  ON 72
udGa_17                -2.695105e-04 1 1  ON 73
udGa_18                 2.974811e-05 1 1  ON 74
udGa_19                -2.217341e-05 1 1  ON 75
udGa_20                 6.500066e-05 1 1  ON 76
udGa_21                -1.205042e-07 1 1  ON 77
udGa_22                 1.257116e-06 1 1  ON 78
udGa_23                -7.843494e-06 1 1  ON 79
udGa_24                 1.762788e-06 1 1  ON 80
udGa_25                -2.524902e-07 1 1  ON 81
  </optVariables>
   Restore the number of walkers to 1, removing 0 walkers.
</opt>
</optimization-report>
  QMC Execution time = 4.457 secs
  Reusing QMCFixedSampleLinearOptimize
 Using QMCCostFunction::QMCCostFunction

=========================================================
  Start QMCFixedSampleLinearOptimize
  File Root Ga.log.s005 append = no 
=========================================================
  Skip QMCDriver::putQMCInfo 
  Resetting Properties of the walkers 1 x 13

=========================================================
  Start VMC
  File Root Ga.log.s005 append = no 
=========================================================
Using existing walkers 
  Resetting Properties of the walkers 1 x 13

<vmc function="put">
  qmc_counter=4  my_counter=4
  time step      = 1.5000e-01
  blocks         = 500
  steps          = 1
  substeps       = 5
  current        = 0
  target samples = 5.1200e+05
  walkers/mpi    = 1

  stepsbetweensamples = 1
<parameter name="blocks" condition="int">500</parameter>
<parameter name="blocks_between_recompute" condition="int">0</parameter>
<parameter name="check_properties" condition="int">100</parameter>
<parameter name="checkproperties" condition="int">100</parameter>
<parameter name="current" condition="int">0</parameter>
<parameter name="dmcwalkersperthread" condition="real">5.0000e+02</parameter>
<parameter name="maxcpusecs" condition="real">3.6000e+05</parameter>
<parameter name="record_configs" condition="int">0</parameter>
<parameter name="record_walkers" condition="int">1</parameter>
<parameter name="recordconfigs" condition="int">0</parameter>
<parameter name="recordwalkers" condition="int">1</parameter>
<parameter name="rewind" condition="int">0</parameter>
<parameter name="samples" condition="real">5.1200e+05</parameter>
<parameter name="samplesperthread" condition="real">5.0000e+02</parameter>
<parameter name="steps" condition="int">1</parameter>
<parameter name="stepsbetweensamples" condition="int">1</parameter>
<parameter name="store_configs" condition="int">0</parameter>
<parameter name="storeconfigs" condition="int">0</parameter>
<parameter name="sub_steps" condition="int">5</parameter>
<parameter name="substeps" condition="int">5</parameter>
<parameter name="tau" condition="au">1.5000e-01</parameter>
<parameter name="time_step" condition="au">1.5000e-01</parameter>
<parameter name="timestep" condition="au">1.5000e-01</parameter>
<parameter name="use_drift" condition="string">no</parameter>
<parameter name="usedrift" condition="string">no</parameter>
<parameter name="walkers" condition="int">1</parameter>
<parameter name="warmup_steps" condition="int">0</parameter>
<parameter name="warmupsteps" condition="int">0</parameter>
  DumpConfig==false Nothing (configurations, state) will be saved.
  Walker Samples are dumped every 1 steps.
</vmc>
  Set drift_modifier UNR parameter a = 1.0000e+00
  EstimatorManagerBase::add replace LocalEnergy estimator.
  Set drift_modifier UNR parameter a = 1.0000e+00
  EstimatorManagerBase::add replace LocalEnergy estimator.
<optimization-report>
<vmc stage="main" blocks="500">
  Cannot make clones again. Use existing 1 clones
  Initial partition of walkers 0 1 
  Using Particle by Particle moves
  Walker moves without drift
  Total Sample Size   =512000
  Walker distribution on root = 0 1 
  Using Locality Approximation
===== Memory Usage after the buffer registration =====
Available memory on node 0, free + buffers : 53831 MB
Memory footprint by rank 0 on node 0       : 94 MB
==================================================
====================================================
  SimpleFixedNodeBranch::finalize after a VMC block
    QMC counter        = 5
    time step          = 0.15
    reference energy   = -2.0208
    reference variance = 0.0301361
====================================================
  Execution time = 3.0706e+00
</vmc>
<opt stage="setup">
  <log>
   Reading configurations from h5FileRoot Ga.log.s005
  QMCCostFunction is created with 1 threads.
  Using Nonlocal PP in Opt: NonLocalECP
   Number of samples loaded to each thread : 500 
  VMC Eavg = -2.0009e+00
  VMC Evar = 3.9753e-01
  Total weights = 5.1200e+05
  Execution time = 7.1730e-01
  </log>
</opt>
<opt stage="main" walkers="512000">
  <log>

*****************************************
Building overlap and Hamiltonian matrices
*****************************************

Among totally 82 optimized parameters, largest LM parameter change : 1.3893e-02 at parameter 28

******************************************************************************
Init Cost =  -1.8810e+00    New Cost =  -1.8806e+00  Delta Cost =   4.3154e-04
******************************************************************************

The new set of parameters is valid. Updating the trial wave function!

*****************************************************************************
Applying the update for shift_i =   1.0000e-02     and shift_s =   3.9062e-03
*****************************************************************************
  Execution time = 4.5706e+00
  </log>
  <optVariables href="Ga.log.s005.opt.xml">
   uu_0                 2.716632e-01 1 1  ON 0
   uu_1                 2.888241e-01 1 1  ON 1
   uu_2                 1.721162e-01 1 1  ON 2
   uu_3                 9.795348e-02 1 1  ON 3
   uu_4                 1.609809e-02 1 1  ON 4
   uu_5                -5.670005e-02 1 1  ON 5
   uu_6                -1.020011e-01 1 1  ON 6
   uu_7                -1.198364e-01 1 1  ON 7
   uu_8                -1.082867e-01 1 1  ON 8
   uu_9                -1.001472e-01 1 1  ON 9
   ud_0                 1.384341e+00 1 1  ON 10
   ud_1                 1.017665e+00 1 1  ON 11
   ud_2                 7.692043e-01 1 1  ON 12
   ud_3                 5.758524e-01 1 1  ON 13
   ud_4                 4.313099e-01 1 1  ON 14
   ud_5                 3.034529e-01 1 1  ON 15
   ud_6                 1.808931e-01 1 1  ON 16
   ud_7                 8.887712e-02 1 1  ON 17
   ud_8                 2.109861e-02 1 1  ON 18
   ud_9                -2.608722e-02 1 1  ON 19
  eGa_0                -5.535025e-01 1 1  ON 20
  eGa_1                -4.000038e-01 1 1  ON 21
  eGa_2                -4.739870e-01 1 1  ON 22
  eGa_3                -3.472409e-01 1 1  ON 23
  eGa_4                -1.768665e-01 1 1  ON 24
  eGa_5                -6.333718e-02 1 1  ON 25
  eGa_6                 6.562766e-02 1 1  ON 26
  eGa_7                 1.751564e-01 1 1  ON 27
  eGa_8                 2.260627e-01 1 1  ON 28
  eGa_9                 2.658199e-01 1 1  ON 29
 uuGa_0                 1.287347e-04 1 1  ON 30
 uuGa_1                 1.622186e-04 1 1  ON 31
 uuGa_2                 3.537187e-05 1 1  ON 32
 uuGa_3                -2.216966e-04 1 1  ON 33
 uuGa_4                -4.590496e-05 1 1  ON 34
 uuGa_5                 2.873112e-06 1 1  ON 35
 uuGa_6                -7.663465e-05 1 1  ON 36
 uuGa_7                 2.976301e-04 1 1  ON 37
 uuGa_8                 2.392743e-04 1 1  ON 38
 uuGa_9                -1.963658e-04 1 1  ON 39
uuGa_10                -1.199982e-04 1 1  ON 40
uuGa_11                -1.726777e-04 1 1  ON 41
uuGa_12                -4.523317e-05 1 1  ON 42
uuGa_13                 3.296407e-04 1 1  ON 43
uuGa_14                 7.344922e-05 1 1  ON 44
uuGa_15                -3.220987e-06 1 1  ON 45
uuGa_16                 5.745271e-06 1 1  ON 46
uuGa_17                 3.381664e-04 1 1  ON 47
uuGa_18                 5.902649e-06 1 1  ON 48
uuGa_19                 2.403637e-06 1 1  ON 49
uuGa_20                -1.094273e-04 1 1  ON 50
uuGa_21                -8.576592e-06 1 1  ON 51
uuGa_22                 2.509616e-06 1 1  ON 52
uuGa_23                 2.775866e-05 1 1  ON 53
uuGa_24                -2.663156e-07 1 1  ON 54
uuGa_25                -5.158973e-07 1 1  ON 55
 udGa_0                -5.862648e-05 1 1  ON 56
 udGa_1                 1.076348e-04 1 1  ON 57
 udGa_2                -5.205792e-05 1 1  ON 58
 udGa_3                 1.369157e-04 1 1  ON 59
 udGa_4                 3.942357e-05 1 1  ON 60
 udGa_5                -1.879925e-05 1 1  ON 61
 udGa_6                 4.133589e-04 1 1  ON 62
 udGa_7                -4.141733e-04 1 1  ON 63
 udGa_8                -2.575383e-04 1 1  ON 64
 udGa_9                -1.399711e-04 1 1  ON 65
udGa_10                 4.357747e-05 1 1  ON 66
udGa_11                 2.679140e-04 1 1  ON 67
udGa_12                 5.489024e-05 1 1  ON 68
udGa_13                -1.599871e-04 1 1  ON 69
udGa_14                -8.051054e-05 1 1  ON 70
udGa_15                 2.300597e-06 1 1  ON 71
udGa_16                 2.283600e-04 1 1  ON 72
udGa_17                -2.102954e-04 1 1  ON 73
udGa_18                -9.416919e-05 1 1  ON 74
udGa_19                -6.481916e-06 1 1  ON 75
udGa_20                 1.441722e-05 1 1  ON 76
udGa_21                 2.172572e-05 1 1  ON 77
udGa_22                -2.060113e-06 1 1  ON 78
udGa_23                -9.430645e-08 1 1  ON 79
udGa_24                -2.597089e-06 1 1  ON 80
udGa_25                 4.780995e-07 1 1  ON 81
  </optVariables>
   Restore the number of walkers to 1, removing 0 walkers.
</opt>
</optimization-report>
  QMC Execution time = 4.583 secs
  Reusing QMCFixedSampleLinearOptimize
 Using QMCCostFunction::QMCCostFunction

=========================================================
  Start QMCFixedSampleLinearOptimize
  File Root Ga.log.s006 append = no 
=========================================================
  Skip QMCDriver::putQMCInfo 
  Resetting Properties of the walkers 1 x 13

=========================================================
  Start VMC
  File Root Ga.log.s006 append = no 
=========================================================
Using existing walkers 
  Resetting Properties of the walkers 1 x 13

<vmc function="put">
  qmc_counter=5  my_counter=5
  time step      = 1.5000e-01
  blocks         = 500
  steps          = 1
  substeps       = 5
  current        = 0
  target samples = 5.1200e+05
  walkers/mpi    = 1

  stepsbetweensamples = 1
<parameter name="blocks" condition="int">500</parameter>
<parameter name="blocks_between_recompute" condition="int">0</parameter>
<parameter name="check_properties" condition="int">100</parameter>
<parameter name="checkproperties" condition="int">100</parameter>
<parameter name="current" condition="int">0</parameter>
<parameter name="dmcwalkersperthread" condition="real">5.0000e+02</parameter>
<parameter name="maxcpusecs" condition="real">3.6000e+05</parameter>
<parameter name="record_configs" condition="int">0</parameter>
<parameter name="record_walkers" condition="int">1</parameter>
<parameter name="recordconfigs" condition="int">0</parameter>
<parameter name="recordwalkers" condition="int">1</parameter>
<parameter name="rewind" condition="int">0</parameter>
<parameter name="samples" condition="real">5.1200e+05</parameter>
<parameter name="samplesperthread" condition="real">5.0000e+02</parameter>
<parameter name="steps" condition="int">1</parameter>
<parameter name="stepsbetweensamples" condition="int">1</parameter>
<parameter name="store_configs" condition="int">0</parameter>
<parameter name="storeconfigs" condition="int">0</parameter>
<parameter name="sub_steps" condition="int">5</parameter>
<parameter name="substeps" condition="int">5</parameter>
<parameter name="tau" condition="au">1.5000e-01</parameter>
<parameter name="time_step" condition="au">1.5000e-01</parameter>
<parameter name="timestep" condition="au">1.5000e-01</parameter>
<parameter name="use_drift" condition="string">no</parameter>
<parameter name="usedrift" condition="string">no</parameter>
<parameter name="walkers" condition="int">1</parameter>
<parameter name="warmup_steps" condition="int">0</parameter>
<parameter name="warmupsteps" condition="int">0</parameter>
  DumpConfig==false Nothing (configurations, state) will be saved.
  Walker Samples are dumped every 1 steps.
</vmc>
  Set drift_modifier UNR parameter a = 1.0000e+00
  EstimatorManagerBase::add replace LocalEnergy estimator.
  Set drift_modifier UNR parameter a = 1.0000e+00
  EstimatorManagerBase::add replace LocalEnergy estimator.
<optimization-report>
<vmc stage="main" blocks="500">
  Cannot make clones again. Use existing 1 clones
  Initial partition of walkers 0 1 
  Using Particle by Particle moves
  Walker moves without drift
  Total Sample Size   =512000
  Walker distribution on root = 0 1 
  Using Locality Approximation
===== Memory Usage after the buffer registration =====
Available memory on node 0, free + buffers : 53828 MB
Memory footprint by rank 0 on node 0       : 97 MB
==================================================
====================================================
  SimpleFixedNodeBranch::finalize after a VMC block
    QMC counter        = 6
    time step          = 0.15
    reference energy   = -2.03093
    reference variance = 0.0331801
====================================================
  Execution time = 3.0568e+00
</vmc>
<opt stage="setup">
  <log>
   Reading configurations from h5FileRoot Ga.log.s006
  QMCCostFunction is created with 1 threads.
  Using Nonlocal PP in Opt: NonLocalECP
   Number of samples loaded to each thread : 500 
  VMC Eavg = -1.9980e+00
  VMC Evar = 5.2131e-01
  Total weights = 5.1200e+05
  Execution time = 6.4742e-01
  </log>
</opt>
<opt stage="main" walkers="512000">
  <log>

*****************************************
Building overlap and Hamiltonian matrices
*****************************************

Among totally 82 optimized parameters, largest LM parameter change : 1.6015e-02 at parameter 23

******************************************************************************
Init Cost =  -1.8720e+00    New Cost =  -1.8738e+00  Delta Cost =  -1.7727e-03
******************************************************************************

The new set of parameters is valid. Updating the trial wave function!

*****************************************************************************
Applying the update for shift_i =   1.0000e-02     and shift_s =   3.9062e-03
*****************************************************************************
  Execution time = 4.4810e+00
  </log>
  <optVariables href="Ga.log.s006.opt.xml">
   uu_0                 2.791144e-01 1 1  ON 0
   uu_1                 2.946615e-01 1 1  ON 1
   uu_2                 1.738397e-01 1 1  ON 2
   uu_3                 9.644313e-02 1 1  ON 3
   uu_4                 1.164022e-02 1 1  ON 4
   uu_5                -5.916345e-02 1 1  ON 5
   uu_6                -9.943954e-02 1 1  ON 6
   uu_7                -1.134760e-01 1 1  ON 7
   uu_8                -9.503069e-02 1 1  ON 8
   uu_9                -8.423295e-02 1 1  ON 9
   ud_0                 1.388942e+00 1 1  ON 10
   ud_1                 1.023371e+00 1 1  ON 11
   ud_2                 7.763727e-01 1 1  ON 12
   ud_3                 5.862258e-01 1 1  ON 13
   ud_4                 4.427919e-01 1 1  ON 14
   ud_5                 3.174415e-01 1 1  ON 15
   ud_6                 1.950122e-01 1 1  ON 16
   ud_7                 9.604343e-02 1 1  ON 17
   ud_8                 2.435837e-02 1 1  ON 18
   ud_9                -2.505569e-02 1 1  ON 19
  eGa_0                -5.517159e-01 1 1  ON 20
  eGa_1                -3.973094e-01 1 1  ON 21
  eGa_2                -4.835300e-01 1 1  ON 22
  eGa_3                -3.632556e-01 1 1  ON 23
  eGa_4                -1.884801e-01 1 1  ON 24
  eGa_5                -6.877494e-02 1 1  ON 25
  eGa_6                 7.289832e-02 1 1  ON 26
  eGa_7                 1.734859e-01 1 1  ON 27
  eGa_8                 2.223969e-01 1 1  ON 28
  eGa_9                 2.598068e-01 1 1  ON 29
 uuGa_0                 1.289499e-04 1 1  ON 30
 uuGa_1                 2.355227e-04 1 1  ON 31
 uuGa_2                 8.738231e-05 1 1  ON 32
 uuGa_3                -2.302341e-04 1 1  ON 33
 uuGa_4                -5.358737e-05 1 1  ON 34
 uuGa_5                -1.600572e-06 1 1  ON 35
 uuGa_6                 7.829189e-05 1 1  ON 36
 uuGa_7                 2.695463e-04 1 1  ON 37
 uuGa_8                 2.729415e-04 1 1  ON 38
 uuGa_9                -3.225594e-04 1 1  ON 39
uuGa_10                -1.236659e-04 1 1  ON 40
uuGa_11                -1.977147e-04 1 1  ON 41
uuGa_12                -4.939731e-05 1 1  ON 42
uuGa_13                 3.597225e-04 1 1  ON 43
uuGa_14                 7.482329e-05 1 1  ON 44
uuGa_15                -3.056371e-06 1 1  ON 45
uuGa_16                 1.392708e-04 1 1  ON 46
uuGa_17                 3.262598e-04 1 1  ON 47
uuGa_18                 1.908703e-05 1 1  ON 48
uuGa_19                 1.523332e-06 1 1  ON 49
uuGa_20                -1.396433e-04 1 1  ON 50
uuGa_21                -8.101264e-06 1 1  ON 51
uuGa_22                 2.555322e-06 1 1  ON 52
uuGa_23                 3.407950e-05 1 1  ON 53
uuGa_24                -7.454335e-07 1 1  ON 54
uuGa_25                -4.838825e-07 1 1  ON 55
 udGa_0                -3.575668e-05 1 1  ON 56
 udGa_1                -4.756064e-04 1 1  ON 57
 udGa_2                -1.968902e-04 1 1  ON 58
 udGa_3                 3.620928e-04 1 1  ON 59
 udGa_4                 9.681691e-05 1 1  ON 60
 udGa_5                 3.039656e-05 1 1  ON 61
 udGa_6                -4.552565e-04 1 1  ON 62
 udGa_7                -3.837008e-05 1 1  ON 63
 udGa_8                -3.576186e-04 1 1  ON 64
 udGa_9                 3.396112e-04 1 1  ON 65
udGa_10                 2.275001e-04 1 1  ON 66
udGa_11                 1.094500e-04 1 1  ON 67
udGa_12                 9.399119e-05 1 1  ON 68
udGa_13                -3.872098e-04 1 1  ON 69
udGa_14                -8.622545e-05 1 1  ON 70
udGa_15                -1.574749e-07 1 1  ON 71
udGa_16                -7.797622e-05 1 1  ON 72
udGa_17                -3.925845e-04 1 1  ON 73
udGa_18                 5.445262e-05 1 1  ON 74
udGa_19                -3.180895e-05 1 1  ON 75
udGa_20                 1.078974e-04 1 1  ON 76
udGa_21                 2.396219e-06 1 1  ON 77
udGa_22                 1.491088e-06 1 1  ON 78
udGa_23                -1.680191e-05 1 1  ON 79
udGa_24                 1.280400e-06 1 1  ON 80
udGa_25                -1.854978e-07 1 1  ON 81
  </optVariables>
   Restore the number of walkers to 1, removing 0 walkers.
</opt>
</optimization-report>
  QMC Execution time = 4.493 secs
  Reusing QMCFixedSampleLinearOptimize
 Using QMCCostFunction::QMCCostFunction

=========================================================
  Start QMCFixedSampleLinearOptimize
  File Root Ga.log.s007 append = no 
=========================================================
  Skip QMCDriver::putQMCInfo 
  Resetting Properties of the walkers 1 x 13

=========================================================
  Start VMC
  File Root Ga.log.s007 append = no 
=========================================================
Using existing walkers 
  Resetting Properties of the walkers 1 x 13

<vmc function="put">
  qmc_counter=6  my_counter=6
  time step      = 1.5000e-01
  blocks         = 500
  steps          = 1
  substeps       = 5
  current        = 0
  target samples = 5.1200e+05
  walkers/mpi    = 1

  stepsbetweensamples = 1
<parameter name="blocks" condition="int">500</parameter>
<parameter name="blocks_between_recompute" condition="int">0</parameter>
<parameter name="check_properties" condition="int">100</parameter>
<parameter name="checkproperties" condition="int">100</parameter>
<parameter name="current" condition="int">0</parameter>
<parameter name="dmcwalkersperthread" condition="real">5.0000e+02</parameter>
<parameter name="maxcpusecs" condition="real">3.6000e+05</parameter>
<parameter name="record_configs" condition="int">0</parameter>
<parameter name="record_walkers" condition="int">1</parameter>
<parameter name="recordconfigs" condition="int">0</parameter>
<parameter name="recordwalkers" condition="int">1</parameter>
<parameter name="rewind" condition="int">0</parameter>
<parameter name="samples" condition="real">5.1200e+05</parameter>
<parameter name="samplesperthread" condition="real">5.0000e+02</parameter>
<parameter name="steps" condition="int">1</parameter>
<parameter name="stepsbetweensamples" condition="int">1</parameter>
<parameter name="store_configs" condition="int">0</parameter>
<parameter name="storeconfigs" condition="int">0</parameter>
<parameter name="sub_steps" condition="int">5</parameter>
<parameter name="substeps" condition="int">5</parameter>
<parameter name="tau" condition="au">1.5000e-01</parameter>
<parameter name="time_step" condition="au">1.5000e-01</parameter>
<parameter name="timestep" condition="au">1.5000e-01</parameter>
<parameter name="use_drift" condition="string">no</parameter>
<parameter name="usedrift" condition="string">no</parameter>
<parameter name="walkers" condition="int">1</parameter>
<parameter name="warmup_steps" condition="int">0</parameter>
<parameter name="warmupsteps" condition="int">0</parameter>
  DumpConfig==false Nothing (configurations, state) will be saved.
  Walker Samples are dumped every 1 steps.
</vmc>
  Set drift_modifier UNR parameter a = 1.0000e+00
  EstimatorManagerBase::add replace LocalEnergy estimator.
  Set drift_modifier UNR parameter a = 1.0000e+00
  EstimatorManagerBase::add replace LocalEnergy estimator.
<optimization-report>
<vmc stage="main" blocks="500">
  Cannot make clones again. Use existing 1 clones
  Initial partition of walkers 0 1 
  Using Particle by Particle moves
  Walker moves without drift
  Total Sample Size   =512000
  Walker distribution on root = 0 1 
  Using Locality Approximation
===== Memory Usage after the buffer registration =====
Available memory on node 0, free + buffers : 53824 MB
Memory footprint by rank 0 on node 0       : 100 MB
==================================================
====================================================
  SimpleFixedNodeBranch::finalize after a VMC block
    QMC counter        = 7
    time step          = 0.15
    reference energy   = -2.02432
    reference variance = 0.0310689
====================================================
  Execution time = 3.0506e+00
</vmc>
<opt stage="setup">
  <log>
   Reading configurations from h5FileRoot Ga.log.s007
  QMCCostFunction is created with 1 threads.
  Using Nonlocal PP in Opt: NonLocalECP
   Number of samples loaded to each thread : 500 
  VMC Eavg = -1.9977e+00
  VMC Evar = 4.4235e-01
  Total weights = 5.1200e+05
  Execution time = 6.6926e-01
  </log>
</opt>
<opt stage="main" walkers="512000">
  <log>

*****************************************
Building overlap and Hamiltonian matrices
*****************************************

Among totally 82 optimized parameters, largest LM parameter change : 2.2142e-02 at parameter 26

******************************************************************************
Init Cost =  -1.8757e+00    New Cost =  -1.8762e+00  Delta Cost =  -5.5771e-04
******************************************************************************

The new set of parameters is valid. Updating the trial wave function!

*****************************************************************************
Applying the update for shift_i =   1.0000e-02     and shift_s =   3.9062e-03
*****************************************************************************
  Execution time = 4.5128e+00
  </log>
  <optVariables href="Ga.log.s007.opt.xml">
   uu_0                 2.846892e-01 1 1  ON 0
   uu_1                 2.985925e-01 1 1  ON 1
   uu_2                 1.777346e-01 1 1  ON 2
   uu_3                 1.024738e-01 1 1  ON 3
   uu_4                 1.717587e-02 1 1  ON 4
   uu_5                -6.166732e-02 1 1  ON 5
   uu_6                -1.031068e-01 1 1  ON 6
   uu_7                -1.096325e-01 1 1  ON 7
   uu_8                -9.478388e-02 1 1  ON 8
   uu_9                -7.922583e-02 1 1  ON 9
   ud_0                 1.392721e+00 1 1  ON 10
   ud_1                 1.028631e+00 1 1  ON 11
   ud_2                 7.808919e-01 1 1  ON 12
   ud_3                 5.900224e-01 1 1  ON 13
   ud_4                 4.450720e-01 1 1  ON 14
   ud_5                 3.183756e-01 1 1  ON 15
   ud_6                 1.941277e-01 1 1  ON 16
   ud_7                 1.000207e-01 1 1  ON 17
   ud_8                 3.339952e-02 1 1  ON 18
   ud_9                -1.352517e-02 1 1  ON 19
  eGa_0                -5.516974e-01 1 1  ON 20
  eGa_1                -4.004799e-01 1 1  ON 21
  eGa_2                -4.902341e-01 1 1  ON 22
  eGa_3                -3.720528e-01 1 1  ON 23
  eGa_4                -2.016049e-01 1 1  ON 24
  eGa_5                -8.196919e-02 1 1  ON 25
  eGa_6                 5.075645e-02 1 1  ON 26
  eGa_7                 1.621580e-01 1 1  ON 27
  eGa_8                 2.242055e-01 1 1  ON 28
  eGa_9                 2.654490e-01 1 1  ON 29
 uuGa_0                 1.533518e-04 1 1  ON 30
 uuGa_1                 2.171622e-04 1 1  ON 31
 uuGa_2                 8.495635e-05 1 1  ON 32
 uuGa_3                -2.521854e-04 1 1  ON 33
 uuGa_4                -5.662270e-05 1 1  ON 34
 uuGa_5                 5.724933e-06 1 1  ON 35
 uuGa_6                -5.275035e-06 1 1  ON 36
 uuGa_7                 3.514255e-04 1 1  ON 37
 uuGa_8                 3.082164e-04 1 1  ON 38
 uuGa_9                -3.232617e-04 1 1  ON 39
uuGa_10                -1.281287e-04 1 1  ON 40
uuGa_11                -2.412867e-04 1 1  ON 41
uuGa_12                -5.513531e-05 1 1  ON 42
uuGa_13                 4.010562e-04 1 1  ON 43
uuGa_14                 8.773638e-05 1 1  ON 44
uuGa_15                -3.701620e-06 1 1  ON 45
uuGa_16                 1.151581e-04 1 1  ON 46
uuGa_17                 3.720322e-04 1 1  ON 47
uuGa_18                 2.990863e-05 1 1  ON 48
uuGa_19                 1.618360e-06 1 1  ON 49
uuGa_20                -1.506137e-04 1 1  ON 50
uuGa_21                -1.119486e-05 1 1  ON 51
uuGa_22                 2.982016e-06 1 1  ON 52
uuGa_23                 3.679113e-05 1 1  ON 53
uuGa_24                -3.454586e-07 1 1  ON 54
uuGa_25                -5.788702e-07 1 1  ON 55
 udGa_0                -7.378114e-05 1 1  ON 56
 udGa_1                -3.125293e-04 1 1  ON 57
 udGa_2                -1.104855e-04 1 1  ON 58
 udGa_3                 3.051170e-04 1 1  ON 59
 udGa_4                 7.207873e-05 1 1  ON 60
 udGa_5                 1.494469e-05 1 1  ON 61
[...]
   uu_2                 2.217015e-01 1 1  ON 2
   uu_3                 1.352607e-01 1 1  ON 3
   uu_4                 4.366914e-02 1 1  ON 4
   uu_5                -3.375415e-02 1 1  ON 5
   uu_6                -8.156461e-02 1 1  ON 6
   uu_7                -1.009328e-01 1 1  ON 7
   uu_8                -9.451068e-02 1 1  ON 8
   uu_9                -8.553351e-02 1 1  ON 9
   ud_0                 1.456978e+00 1 1  ON 10
   ud_1                 1.089410e+00 1 1  ON 11
   ud_2                 8.379505e-01 1 1  ON 12
   ud_3                 6.447261e-01 1 1  ON 13
   ud_4                 4.973848e-01 1 1  ON 14
   ud_5                 3.693556e-01 1 1  ON 15
   ud_6                 2.461231e-01 1 1  ON 16
   ud_7                 1.456094e-01 1 1  ON 17
   ud_8                 6.857700e-02 1 1  ON 18
   ud_9                 1.347949e-02 1 1  ON 19
  eGa_0                -6.240698e-01 1 1  ON 20
  eGa_1                -5.099400e-01 1 1  ON 21
  eGa_2                -5.901585e-01 1 1  ON 22
  eGa_3                -4.599443e-01 1 1  ON 23
  eGa_4                -2.850057e-01 1 1  ON 24
  eGa_5                -1.618343e-01 1 1  ON 25
  eGa_6                -1.760485e-02 1 1  ON 26
  eGa_7                 1.051109e-01 1 1  ON 27
  eGa_8                 1.716060e-01 1 1  ON 28
  eGa_9                 2.300338e-01 1 1  ON 29
 uuGa_0                 1.174547e-04 1 1  ON 30
 uuGa_1                 2.149033e-04 1 1  ON 31
 uuGa_2                 9.686903e-05 1 1  ON 32
 uuGa_3                -2.125468e-04 1 1  ON 33
 uuGa_4                -5.232459e-05 1 1  ON 34
 uuGa_5                 3.334605e-07 1 1  ON 35
 uuGa_6                 4.116000e-05 1 1  ON 36
 uuGa_7                 3.355135e-04 1 1  ON 37
 uuGa_8                 2.845410e-04 1 1  ON 38
 uuGa_9                -3.011482e-04 1 1  ON 39
uuGa_10                -1.085807e-04 1 1  ON 40
uuGa_11                -2.346556e-04 1 1  ON 41
uuGa_12                -4.966020e-05 1 1  ON 42
uuGa_13                 3.348631e-04 1 1  ON 43
uuGa_14                 7.879357e-05 1 1  ON 44
uuGa_15                -3.363906e-06 1 1  ON 45
uuGa_16                 1.107836e-04 1 1  ON 46
uuGa_17                 3.092156e-04 1 1  ON 47
uuGa_18                 3.971452e-05 1 1  ON 48
uuGa_19                 2.841844e-07 1 1  ON 49
uuGa_20                -1.222911e-04 1 1  ON 50
uuGa_21                -1.126236e-05 1 1  ON 51
uuGa_22                 2.882592e-06 1 1  ON 52
uuGa_23                 2.863168e-05 1 1  ON 53
uuGa_24                -9.804574e-08 1 1  ON 54
uuGa_25                -5.602968e-07 1 1  ON 55
 udGa_0                -5.011189e-05 1 1  ON 56
 udGa_1                -4.127988e-04 1 1  ON 57
 udGa_2                -1.072310e-04 1 1  ON 58
 udGa_3                 3.470123e-04 1 1  ON 59
 udGa_4                 7.668771e-05 1 1  ON 60
 udGa_5                 3.675617e-05 1 1  ON 61
 udGa_6                -2.703143e-04 1 1  ON 62
 udGa_7                -2.713124e-05 1 1  ON 63
 udGa_8                -2.771980e-04 1 1  ON 64
 udGa_9                 1.726068e-04 1 1  ON 65
udGa_10                 2.101741e-04 1 1  ON 66
udGa_11                 5.407344e-05 1 1  ON 67
udGa_12                 7.656755e-05 1 1  ON 68
udGa_13                -3.368317e-04 1 1  ON 69
udGa_14                -7.383880e-05 1 1  ON 70
udGa_15                 2.366535e-07 1 1  ON 71
udGa_16                 1.096768e-04 1 1  ON 72
udGa_17                -3.831492e-04 1 1  ON 73
udGa_18                 6.827098e-05 1 1  ON 74
udGa_19                -2.676551e-05 1 1  ON 75
udGa_20                 6.183972e-05 1 1  ON 76
udGa_21                 2.253630e-06 1 1  ON 77
udGa_22                 1.024077e-06 1 1  ON 78
udGa_23                -6.624244e-06 1 1  ON 79
udGa_24                 5.548195e-07 1 1  ON 80
udGa_25                -6.645828e-08 1 1  ON 81
  </optVariables>
   Restore the number of walkers to 1, removing 0 walkers.
</opt>
</optimization-report>
  QMC Execution time = 4.474 secs

=========================================================
  Start VMC
  File Root Ga.log.s021 append = no 
=========================================================
  Using the current 1 walkers.
  Total number of walkers: 1024
  Total weight: 1024
  Resetting Properties of the walkers 1 x 13

<vmc function="put">
  qmc_counter=0  my_counter=0
  time step      = 0.15
  blocks         = 200
  steps          = 1
  substeps       = 30
  current        = 0
  target samples = 4096
  walkers/mpi    = 1

  stepsbetweensamples = 50
<parameter name="blocks" condition="int">200</parameter>
<parameter name="blocks_between_recompute" condition="int">0</parameter>
<parameter name="check_properties" condition="int">100</parameter>
<parameter name="checkproperties" condition="int">100</parameter>
<parameter name="current" condition="int">0</parameter>
<parameter name="dmcwalkersperthread" condition="real">4</parameter>
<parameter name="maxcpusecs" condition="real">3.6e+05</parameter>
<parameter name="record_configs" condition="int">0</parameter>
<parameter name="record_walkers" condition="int">50</parameter>
<parameter name="recordconfigs" condition="int">0</parameter>
<parameter name="recordwalkers" condition="int">50</parameter>
<parameter name="rewind" condition="int">0</parameter>
<parameter name="samples" condition="real">4096</parameter>
<parameter name="samplesperthread" condition="real">4</parameter>
<parameter name="steps" condition="int">1</parameter>
<parameter name="stepsbetweensamples" condition="int">50</parameter>
<parameter name="store_configs" condition="int">0</parameter>
<parameter name="storeconfigs" condition="int">0</parameter>
<parameter name="sub_steps" condition="int">30</parameter>
<parameter name="substeps" condition="int">30</parameter>
<parameter name="tau" condition="au">0.15</parameter>
<parameter name="time_step" condition="au">0.15</parameter>
<parameter name="timestep" condition="au">0.15</parameter>
<parameter name="use_drift" condition="string">no</parameter>
<parameter name="usedrift" condition="string">no</parameter>
<parameter name="walkers" condition="int">1</parameter>
<parameter name="warmup_steps" condition="int">100</parameter>
<parameter name="warmupsteps" condition="int">100</parameter>
  DumpConfig==true Configurations are dumped to config.h5 with a period of 200 blocks
  Walker Samples are dumped every 50 steps.
</vmc>
  Set drift_modifier UNR parameter a = 1
  EstimatorManagerBase::add replace LocalEnergy estimator.
  Cannot make clones again. Use existing 1 clones
  Initial partition of walkers 0 1 

  Using Particle by Particle moves
  Walker moves without drift
  Total Sample Size   =4096
  Walker distribution on root = 0 1 
  Using Locality Approximation
===== Memory Usage after the buffer registration =====
Available memory on node 0, free + buffers : 53764 MB
Memory footprint by rank 0 on node 0       : 144 MB
==================================================
  Anonymous Buffer size per walker : 1184 Bytes.
MEMORY increase 0 MB VMC::resetRun
  samples are written to the config.h5
====================================================
  SimpleFixedNodeBranch::finalize after a VMC block
    QMC counter        = 21
    time step          = 0.15
    reference energy   = -2.01933
    reference variance = 0.0385175
====================================================
  QMC Execution time = 2.028 secs

=========================================================
  Start DMC
  File Root Ga.log.s022 append = no 
=========================================================
Using existing walkers 
  Resetting Properties of the walkers 1 x 13
  Set drift_modifier UNR parameter a = 1
  EstimatorManagerBase::add replace LocalEnergy estimator.
  Cannot make clones again. Use existing 1 clones
  Total number of walkers: 4096
  Total weight: 4096
  Creating WalkerController: target  number of walkers = 4096
  Using WalkerControlMPI for dynamic population control.
  START ALL OVER 
  WalkerControlBase parameters 
    maxCopy = 2
    Max Walkers per MPI rank 9
    Min Walkers per MPI rank 1
    Using non-blocking send/recv
  QMC counter      = 22
  time step        = 0.02
  effective time step = 0.02
  trial energy     = -2.019
  reference energy = -2.019
  Feedback = 1
  reference variance = 0.03852
  target walkers = 4096
  branching cutoff scheme classic
  branch cutoff = 50 75
  Max and minimum walkers per node= 9 1
  QMC Status (BranchMode) = 0000001101
  Initial partition of walkers on a node: 0 4 
  Updates by particle-by-particle moves
  DMC moves are rejected when a node crossing is detected
  Using Non-local T-moves v1, M. Casula et al., JCP 132, 154113 (2010)
===== Memory Usage after the buffer registration =====
Available memory on node 0, free + buffers : 53701 MB
Memory footprint by rank 0 on node 0       : 158 MB
==================================================
SimpleFixedNodeBranch::checkParameters 
  Average Energy of a population  = -2.02632
  Energy Variance = 0.0357425

  Fluctuating population
  Persistent walkers are killed after 1 MC sweeps
  BranchInterval = 1
  Steps per block = 50
  Number of blocks = 150

  DMC Engine Initialization = 0.03776 secs

 Warmup is completed after 200

  TauEff     = 0.01996
 TauEff/Tau = 0.9978
  Etrial     = -2.037
 Running average of energy = -2.035
                  Variance = 0.04384
branch cutoff = 10 15
====================================================
  SimpleFixedNodeBranch::finalize after a DMC block
    QMC counter                   = 22
    time step                     = 0.02
    effective time step           = 0.0199558
    trial energy                  = -2.03847
    reference energy              = -2.03871
    reference variance            = 0.0438364
    target walkers                = 4096
    branch cutoff                 = 10 15
    Max and minimum walkers per node= 9 1
    Feedback                      = 1
    QMC Status (BranchMode)       = 0000001111
====================================================
  QMC Execution time = 150.6 secs
  Reusing DMC
BRANCH resetRun
 SimpleFixedNodeBranch::resetRun detected changes in <parameter>'s 
 BranchMode : 0000001111 0000001111
  WalkerControlBase parameters 
    maxCopy = 2
    Max Walkers per MPI rank 9
    Min Walkers per MPI rank 1
    Using non-blocking send/recv
 iParam (old):                  0                 1                22              4096                 9                 1                 1                 0
 iParam (new):                100                 1                22              4096                 9                 1                 1                 0
 vParam (old):               0.02     0.01995578252      -2.038470822      -2.038714993      -2.036110786                15                10               0.2     0.04383635095      -14884.65556              7301                 1                10                 1                 1                 1                 1
 vParam (new):               0.01     0.01995578252      -2.038470822      -2.038714993      -2.036110786                15                10               0.2     0.04383635095      -14884.65556              7301                 1                10                 1                 1                 1                 1

 Using branching cutoff scheme classic
SimpleFixedNodeBranch::checkParameters 
  Average Energy of a population  = -2.03575
  Energy Variance = 0.0440539

  Using Non-local T-moves v1, M. Casula et al., JCP 132, 154113 (2010)
===== Memory Usage after the buffer registration =====
Available memory on node 0, free + buffers : 53695 MB
Memory footprint by rank 0 on node 0       : 160 MB
==================================================

=========================================================
  Start DMC
  File Root Ga.log.s023 append = no 
=========================================================
Using existing walkers 
  Resetting Properties of the walkers 1 x 13
  Set drift_modifier UNR parameter a = 1
  EstimatorManagerBase::add replace LocalEnergy estimator.
  Cannot make clones again. Use existing 1 clones
SimpleFixedNodeBranch::checkParameters 
  Average Energy of a population  = -2.03565
  Energy Variance = 0.0440668

  Fluctuating population
  Persistent walkers are killed after 1 MC sweeps
  BranchInterval = 1
  Steps per block = 100
  Number of blocks = 200

  DMC Engine Initialization = 0.0003371238708 secs

 Warmup is completed after 100

  TauEff     = 0.009991473431
 TauEff/Tau = 0.9991473431
  Etrial     = -2.038115161
 Running average of energy = -2.03773954
                  Variance = 0.04642354532
branch cutoff = 10 15
====================================================
  SimpleFixedNodeBranch::finalize after a DMC block
    QMC counter                   = 23
    time step                     = 0.01
    effective time step           = 0.00999201
    trial energy                  = -2.03955
    reference energy              = -2.03882
    reference variance            = 0.0464235
    target walkers                = 4096
    branch cutoff                 = 10 15
    Max and minimum walkers per node= 9 1
    Feedback                      = 1
    QMC Status (BranchMode)       = 0000001111
====================================================
  QMC Execution time = 400.9 secs
  Reusing DMC
BRANCH resetRun
 SimpleFixedNodeBranch::resetRun detected changes in <parameter>'s 
 BranchMode : 0000001111 0000001111
  WalkerControlBase parameters 
    maxCopy = 2
    Max Walkers per MPI rank 9
    Min Walkers per MPI rank 1
    Using non-blocking send/recv
 iParam (old):                  0                 1                23              4096                 9                 1                 1                 0
 iParam (new):                200                 1                23              4096                 9                 1                 1                 0
 vParam (old):               0.01    0.009992007936       -2.03954772      -2.038815566      -2.036004341                15                10               0.2     0.04642354532      -40574.46576             19901                 1                10                 1                 1                 1                 1
 vParam (new):              0.005    0.009992007936       -2.03954772      -2.038815566      -2.036004341                15                10               0.2     0.04642354532      -40574.46576             19901                 1                10                 1                 1                 1                 1

 Using branching cutoff scheme classic
SimpleFixedNodeBranch::checkParameters 
  Average Energy of a population  = -2.03607
  Energy Variance = 0.0431034

  Using Non-local T-moves v1, M. Casula et al., JCP 132, 154113 (2010)
===== Memory Usage after the buffer registration =====
Available memory on node 0, free + buffers : 53676 MB
Memory footprint by rank 0 on node 0       : 163 MB
==================================================

=========================================================
  Start DMC
  File Root Ga.log.s024 append = no 
=========================================================
Using existing walkers 
  Resetting Properties of the walkers 1 x 13
  Set drift_modifier UNR parameter a = 1
  EstimatorManagerBase::add replace LocalEnergy estimator.
  Cannot make clones again. Use existing 1 clones
SimpleFixedNodeBranch::checkParameters 
  Average Energy of a population  = -2.03617
  Energy Variance = 0.0430619

  Fluctuating population
  Persistent walkers are killed after 1 MC sweeps
  BranchInterval = 1
  Steps per block = 200
  Number of blocks = 250

  DMC Engine Initialization = 0.0003001689911 secs

 Warmup is completed after 200

  TauEff     = 0.004998433852
 TauEff/Tau = 0.9996867704
  Etrial     = -1.898755863
 Running average of energy = -2.038928679
                  Variance = 0.04855932613
branch cutoff = 10 15
====================================================
  SimpleFixedNodeBranch::finalize after a DMC block
    QMC counter                   = 24
    time step                     = 0.005
    effective time step           = 0.00499857
    trial energy                  = -2.03986
    reference energy              = -2.03889
    reference variance            = 0.0485593
    target walkers                = 4096
    branch cutoff                 = 10 15
    Max and minimum walkers per node= 9 1
    Feedback                      = 1
    QMC Status (BranchMode)       = 0000001111
====================================================
  QMC Execution time = 993.2 secs
  Reusing DMC
BRANCH resetRun
 SimpleFixedNodeBranch::resetRun detected changes in <parameter>'s 
 BranchMode : 0000001111 0000001111
  WalkerControlBase parameters 
    maxCopy = 2
    Max Walkers per MPI rank 9
    Min Walkers per MPI rank 1
    Using non-blocking send/recv
 iParam (old):                  0                 1                24              4096                 9                 1                 1                 0
 iParam (new):                400                 1                24              4096                 9                 1                 1                 0
 vParam (old):              0.005    0.004998572745      -2.039862507      -2.038886421      -2.039977301                15                10               0.2     0.04855932613      -101538.5838             49801                 1                10                 1                 1                 1                 1
 vParam (new):             0.0025    0.004998572745      -2.039862507      -2.038886421      -2.039977301                15                10               0.2     0.04855932613      -101538.5838             49801                 1                10                 1                 1                 1                 1

 Using branching cutoff scheme classic
SimpleFixedNodeBranch::checkParameters 
  Average Energy of a population  = -2.04011
  Energy Variance = 0.046637

  Using Non-local T-moves v1, M. Casula et al., JCP 132, 154113 (2010)
===== Memory Usage after the buffer registration =====
Available memory on node 0, free + buffers : 53653 MB
Memory footprint by rank 0 on node 0       : 166 MB
==================================================

=========================================================
  Start DMC
  File Root Ga.log.s025 append = no 
=========================================================
Using existing walkers 
  Resetting Properties of the walkers 1 x 13
  Set drift_modifier UNR parameter a = 1
  EstimatorManagerBase::add replace LocalEnergy estimator.
  Cannot make clones again. Use existing 1 clones
SimpleFixedNodeBranch::checkParameters 
  Average Energy of a population  = -2.04009
  Energy Variance = 0.0466112

  Fluctuating population
  Persistent walkers are killed after 1 MC sweeps
  BranchInterval = 1
  Steps per block = 400
  Number of blocks = 300

  DMC Engine Initialization = 0.0003519058228 secs

 Warmup is completed after 400

  TauEff     = 0.002499750581
 TauEff/Tau = 0.9999002324
  Etrial     = -2.041125253
 Running average of energy = -2.04119977
                  Variance = 0.04952837484
branch cutoff = 10 15
====================================================
  SimpleFixedNodeBranch::finalize after a DMC block
    QMC counter                   = 25
    time step                     = 0.0025
    effective time step           = 0.00249974
    trial energy                  = -2.04478
    reference energy              = -2.0387
    reference variance            = 0.0495284
    target walkers                = 4096
    branch cutoff                 = 10 15
    Max and minimum walkers per node= 9 1
    Feedback                      = 1
    QMC Status (BranchMode)       = 0000001111
====================================================
  QMC Execution time = 2378 secs
  Total Execution time = 4016 secs

=========================================================
  A new xml input file : Ga.log.s025.cont.xml
TACC:  Shutdown complete. Exiting. 
