----- GAMESS execution script 'rungms' -----
This job is running on host c401-114.stampede2.tacc.utexas.edu
under operating system Linux at Tue Dec 4 11:46:34 CST 2018
Available scratch disk space (Kbyte units) at beginning of the job is
Filesystem               1K-blocks  Used Available Use% Mounted on
/dev/mapper/rootvg01-tmp 111414116 44896 111369220   1% /tmp
GAMESS temporary binary files will be written to /tmp
GAMESS supplementary output files will be written to /work/04843/aannabe/stampede2/docs/accurate/qpack/Fe/gamess_attempt/QZ
Copying input file Fe.inp to your run's scratch directory...

 Distributed Data Interface kickoff program.
 Initiating 1 compute processes on 1 nodes to run the following command:
 /work/04843/aannabe/stampede2/codes/gamess-mcb/gamess/gamess.00.x Fe 

          ******************************************************
          *         GAMESS VERSION =  1 MAY 2013 (R1)          *
          *             FROM IOWA STATE UNIVERSITY             *
          * M.W.SCHMIDT, K.K.BALDRIDGE, J.A.BOATZ, S.T.ELBERT, *
          *   M.S.GORDON, J.H.JENSEN, S.KOSEKI, N.MATSUNAGA,   *
          *          K.A.NGUYEN, S.J.SU, T.L.WINDUS,           *
          *       TOGETHER WITH M.DUPUIS, J.A.MONTGOMERY       *
          *         J.COMPUT.CHEM.  14, 1347-1363(1993)        *
          **************** 64 BIT INTEL VERSION ****************

  SINCE 1993, STUDENTS AND POSTDOCS WORKING AT IOWA STATE UNIVERSITY
  AND ALSO IN THEIR VARIOUS JOBS AFTER LEAVING ISU HAVE MADE IMPORTANT
  CONTRIBUTIONS TO THE CODE:
     IVANA ADAMOVIC, CHRISTINE AIKENS, YURI ALEXEEV, POOJA ARORA,
     ANDREY ASADCHEV, ROB BELL, PRADIPTA BANDYOPADHYAY, JONATHAN BENTZ,
     BRETT BODE, GALINA CHABAN, WEI CHEN, CHEOL HO CHOI, PAUL DAY,
     ALBERT DEFUSCO, TIM DUDLEY, DMITRI FEDOROV, GRAHAM FLETCHER,
     MARK FREITAG, KURT GLAESEMANN, DAN KEMP, GRANT MERRILL,
     NORIYUKI MINEZAWA, JONATHAN MULLIN, TAKESHI NAGATA,
     SEAN NEDD, HEATHER NETZLOFF, BOSILJKA NJEGIC, RYAN OLSON, MIKE PAK,
     JIM SHOEMAKER, LYUDMILA SLIPCHENKO, SAROM SOK, JIE SONG,
     TETSUYA TAKETSUGU, SIMON WEBB, SOOHAENG YOO, FEDERICO ZAHARIEV

  ADDITIONAL CODE HAS BEEN PROVIDED BY COLLABORATORS IN OTHER GROUPS:
     IOWA STATE UNIVERSITY:
          JOE IVANIC, LAIMUTIS BYTAUTAS, KLAUS RUEDENBERG
     UNIVERSITY OF TOKYO: KIMIHIKO HIRAO, TAKAHITO NAKAJIMA,
          TAKAO TSUNEDA, MUNEAKI KAMIYA, SUSUMU YANAGISAWA,
          KIYOSHI YAGI, MAHITO CHIBA, SEIKEN TOKURA, NAOAKI KAWAKAMI
     UNIVERSITY OF AARHUS: FRANK JENSEN
     UNIVERSITY OF IOWA: VISVALDAS KAIRYS, HUI LI
     NATIONAL INST. OF STANDARDS AND TECHNOLOGY: WALT STEVENS, DAVID GARMER
     UNIVERSITY OF PISA: BENEDETTA MENNUCCI, JACOPO TOMASI
     UNIVERSITY OF MEMPHIS: HENRY KURTZ, PRAKASHAN KORAMBATH
     UNIVERSITY OF ALBERTA: TOBY ZENG, MARIUSZ KLOBUKOWSKI
     UNIVERSITY OF NEW ENGLAND: MARK SPACKMAN
     MIE UNIVERSITY: HIROAKI UMEDA
     MICHIGAN STATE UNIVERSITY:
          KAROL KOWALSKI, MARTA WLOCH, JEFFREY GOUR, JESSE LUTZ,
          WEI LI, PIOTR PIECUCH
     UNIVERSITY OF SILESIA: MONIKA MUSIAL, STANISLAW KUCHARSKI
     FACULTES UNIVERSITAIRES NOTRE-DAME DE LA PAIX:
          OLIVIER QUINET, BENOIT CHAMPAGNE
     UNIVERSITY OF CALIFORNIA - SANTA BARBARA: BERNARD KIRTMAN
     INSTITUTE FOR MOLECULAR SCIENCE:
          KAZUYA ISHIMURA, MICHIO KATOUDA, AND SHIGERU NAGASE
     UNIVERSITY OF NOTRE DAME: DAN CHIPMAN
     KYUSHU UNIVERSITY:
          HARUYUKI NAKANO,
          FENG LONG GU, JACEK KORCHOWIEC, MARCIN MAKOWSKI, AND YURIKO AOKI,
          HIROTOSHI MORI AND EISAKU MIYOSHI
     PENNSYLVANIA STATE UNIVERSITY:
          TZVETELIN IORDANOV, CHET SWALINA, JONATHAN SKONE,
          SHARON HAMMES-SCHIFFER
     WASEDA UNIVERSITY:
          MASATO KOBAYASHI, TOMOKO AKAMA, TSUGUKI TOUMA,
          TAKESHI YOSHIKAWA, YASUHIRO IKABATA, HIROMI NAKAI
     NANJING UNIVERSITY: SHUHUA LI
     UNIVERSITY OF NEBRASKA:
          PEIFENG SU, DEJUN SI, NANDUN THELLAMUREGE, YALI WANG, HUI LI
     UNIVERSITY OF ZURICH:
          ROBERTO PEVERATI, KIM BALDRIDGE
     N. COPERNICUS UNIVERSITY AND JACKSON STATE UNIVERSITY:
          MARIA BARYSZ

 EXECUTION OF GAMESS BEGUN Tue Dec  4 11:46:35 2018

            ECHO OF THE FIRST FEW INPUT CARDS -
 INPUT CARD> $CONTRL                                                                        
 INPUT CARD>     SCFTYP=ROHF                                                                
 INPUT CARD>     MULT=5                                                                     
 INPUT CARD>     ICHARG=0                                                                   
 INPUT CARD>     RUNTYP=ENERGY                                                              
 INPUT CARD>     MAXIT=150                                                                  
 INPUT CARD>     ECP=READ                                                                   
 INPUT CARD>     ISPHER=1                                                                   
 INPUT CARD> $END                                                                           
 INPUT CARD>                                                                                
 INPUT CARD> $SYSTEM                                                                        
 INPUT CARD>     KDIAG=3                                                                    
 INPUT CARD>     MWORDS=1000                                                                
 INPUT CARD> $END                                                                           
 INPUT CARD>                                                                                
 INPUT CARD> $SCF                                                                           
 INPUT CARD>!     DIRSCF=.t.                                                                
 INPUT CARD>!     DIIS=.t.                                                                  
 INPUT CARD>!     DAMP=.t.                                                                  
 INPUT CARD>!     SHIFT=.t.                                                                 
 INPUT CARD>     RSTRCT=.t.                                                                 
 INPUT CARD> $END                                                                           
 INPUT CARD>                                                                                
 INPUT CARD> $GUESS                                                                         
 INPUT CARD>!    GUESS=HUCKEL                                                               
 INPUT CARD>    GUESS=MOREAD                                                                
 INPUT CARD>    NORB=22                                                                     
 INPUT CARD>    NORDER=1                                                                    
 INPUT CARD>    IORDER(5)=5,7,6,8,9,10                                                      
 INPUT CARD> $END                                                                           
 INPUT CARD>                                                                                
 INPUT CARD>                                                                                
 INPUT CARD> $DATA                                                                          
 INPUT CARD>                                                                                
 INPUT CARD>C1                                                                              
 INPUT CARD>Fe 26 0.0 0.0 0.0                                                               
 INPUT CARD>S  13                                                                           
 INPUT CARD>  1      84.322332  0.00078500                                                  
 INPUT CARD>  2      44.203528  -0.01278100                                                 
 INPUT CARD>  3      23.288963  0.10463500                                                  
 INPUT CARD>  4      13.385163  -0.11938500                                                 
 INPUT CARD>  5       7.518052  -0.33980400                                                 
 INPUT CARD>  6       4.101835  -0.04999400                                                 
 INPUT CARD>  7       2.253571  0.47695500                                                  
 INPUT CARD>  8       1.134924  0.59322200                                                  
 INPUT CARD>  9       0.561550  0.20015100                                                  
 INPUT CARD> 10       0.201961  0.00859100                                                  
 INPUT CARD> 11       0.108698  -0.00218800                                                 
 INPUT CARD> 12       0.053619  0.00067700                                                  
 INPUT CARD> 13       0.025823  -0.00014400                                                 
 1000000000 WORDS OF MEMORY AVAILABLE


     RUN TITLE
     ---------
                                                                                 

 THE POINT GROUP OF THE MOLECULE IS C1      
 THE ORDER OF THE PRINCIPAL AXIS IS     0
 *** WARNING! ATOM   1 SHELL    1 TYPE S HAS NORMALIZATION   1.00000127
 *** WARNING! ATOM   1 SHELL    3 TYPE S HAS NORMALIZATION   1.00000536

 ATOM      ATOMIC                      COORDINATES (BOHR)
           CHARGE         X                   Y                   Z
 FE         26.0     0.0000000000        0.0000000000        0.0000000000

          INTERNUCLEAR DISTANCES (ANGS.)
          ------------------------------

                1 FE    

   1 FE      0.0000000  

  * ... LESS THAN  3.000


     ATOMIC BASIS SET
     ----------------
 THE CONTRACTED PRIMITIVE FUNCTIONS HAVE BEEN UNNORMALIZED
 THE CONTRACTED BASIS FUNCTIONS ARE NOW NORMALIZED TO UNITY

  SHELL TYPE  PRIMITIVE        EXPONENT          CONTRACTION COEFFICIENT(S)

 FE        

      1   S       1            84.3223320    0.000785000994
      1   S       2            44.2035280   -0.012781016184
      1   S       3            23.2889630    0.104635132497
      1   S       4            13.3851630   -0.119385151175
      1   S       5             7.5180520   -0.339804430286
      1   S       6             4.1018350   -0.049994063306
      1   S       7             2.2535710    0.476955603958
      1   S       8             1.1349240    0.593222751184
      1   S       9             0.5615500    0.200151253447
      1   S      10             0.2019610    0.008591010879
      1   S      11             0.1086980   -0.002188002771
      1   S      12             0.0536190    0.000677000857
      1   S      13             0.0258230   -0.000144000182

      2   S      14            84.3223320   -0.000161999994
      2   S      15            44.2035280    0.002920999892
      2   S      16            23.2889630   -0.025465999056
      2   S      17            13.3851630    0.031181998844
      2   S      18             7.5180520    0.086848996779
      2   S      19             4.1018350    0.006845999746
      2   S      20             2.2535710   -0.131855995111
      2   S      21             1.1349240   -0.227745991555
      2   S      22             0.5615500   -0.173078993582
      2   S      23             0.2019610    0.136141994952
      2   S      24             0.1086980    0.434012983906
      2   S      25             0.0536190    0.477554982291
      2   S      26             0.0258230    0.128803995224

      3   S      27            84.3223320    0.000002000011
      3   S      28            44.2035280    0.004103022006
      3   S      29            23.2889630   -0.046840251225
      3   S      30            13.3851630    0.052833283369
      3   S      31             7.5180520    0.218095169742
      3   S      32             4.1018350   -0.044999241351
      3   S      33             2.2535710   -0.287387541388
      3   S      34             1.1349240   -0.713223825340
      3   S      35             0.5615500    0.249175336439
      3   S      36             0.2019610    1.299878971835
      3   S      37             0.1086980    0.192120030426
      3   S      38             0.0536190   -0.658619532472
      3   S      39             0.0258230   -0.521049794624

      4   S      40            84.3223320    0.000012000006
      4   S      41            44.2035280    0.007598003966
      4   S      42            23.2889630   -0.094133049133
      4   S      43            13.3851630    0.127655066630
      4   S      44             7.5180520    0.435598227363
      4   S      45             4.1018350   -0.147911077203
      4   S      46             2.2535710   -1.084477566050
      4   S      47             1.1349240   -0.887003462977
      4   S      48             0.5615500    2.449947278766
      4   S      49             0.2019610    0.167976087676
      4   S      50             0.1086980   -2.114669103766
      4   S      51             0.0536190    0.452579236227
      4   S      52             0.0258230    0.801444418319

      5   S      53            84.3223320    0.003301000752
      5   S      54            44.2035280   -0.029197006652
      5   S      55            23.2889630    0.213227048580
      5   S      56            13.3851630   -0.408109092980
      5   S      57             7.5180520   -0.385651087863
      5   S      58             4.1018350    0.168093038297
      5   S      59             2.2535710    3.102529706854
      5   S      60             1.1349240   -3.360446765615
      5   S      61             0.5615500   -0.531619121120
      5   S      62             0.2019610    4.493982023870
      5   S      63             0.1086980   -3.689750840641
      5   S      64             0.0536190   -0.510604116332
      5   S      65             0.0258230    1.301021296413

      6   S      66             0.0258230    1.000000000000

      7   P      67           125.0927750    0.000055999974
      7   P      68            65.2115890   -0.000571999734
      7   P      69            34.4375990    0.007387996568
      7   P      70            18.9307040   -0.028480986770
      7   P      71            10.8734150   -0.063004970733
      7   P      72             6.0121720    0.024854988454
      7   P      73             3.3722050    0.277473871106
      7   P      74             1.7686410    0.425385802398
      7   P      75             0.9145160    0.314144854072
      7   P      76             0.4608950    0.090421957997
      7   P      77             0.2044900    0.006976996759
      7   P      78             0.0747410    0.001153999464
      7   P      79             0.0356710    0.000302999859

      8   P      80           125.0927750    0.000024999983
      8   P      81            65.2115890   -0.000069999952
      8   P      82            34.4375990   -0.001041999280
      8   P      83            18.9307040    0.005126996459
      8   P      84            10.8734150    0.018403987289
      8   P      85             6.0121720   -0.014691989852
      8   P      86             3.3722050   -0.061306957656
      8   P      87             1.7686410   -0.128637911151
      8   P      88             0.9145160   -0.070636951212
      8   P      89             0.4608950   -0.016313988732
      8   P      90             0.2044900    0.380701737054
      8   P      91             0.0747410    0.523070638722
      8   P      92             0.0356710    0.235764837160

      9   P      93           125.0927750   -0.000196999919
      9   P      94            65.2115890    0.001250999486
      9   P      95            34.4375990   -0.009153996241
      9   P      96            18.9307040    0.038200984312
      9   P      97            10.8734150    0.043096982302
      9   P      98             6.0121720   -0.029474987896
      9   P      99             3.3722050   -0.426995824649
      9   P     100             1.7686410   -0.394839837854
      9   P     101             0.9145160    0.077229968285
      9   P     102             0.4608950    1.119880540107
      9   P     103             0.2044900   -0.066493972693
      9   P     104             0.0747410   -0.721582703673
      9   P     105             0.0356710   -0.005694997661

     10   P     106           125.0927750    0.000263999846
     10   P     107            65.2115890   -0.001075999372
     10   P     108            34.4375990   -0.002590998487
     10   P     109            18.9307040    0.035518979254
     10   P     110            10.8734150    0.119553930170
     10   P     111             6.0121720   -0.204713880428
     10   P     112             3.3722050   -0.760626555725
     10   P     113             1.7686410   -0.262739846536
     10   P     114             0.9145160    1.779028960885
     10   P     115             0.4608950   -0.462741729717
     10   P     116             0.2044900   -1.241029275126
     10   P     117             0.0747410    0.940986450378
     10   P     118             0.0356710    0.083495951231

     11   P     119           125.0927750   -0.000083999994
     11   P     120            65.2115890    0.000767999942
     11   P     121            34.4375990   -0.009484999281
     11   P     122            18.9307040    0.088061993322
     11   P     123            10.8734150    0.156190988156
     11   P     124             6.0121720   -0.619165953048
     11   P     125             3.3722050   -1.385533894935
     11   P     126             1.7686410    2.492124811021
     11   P     127             0.9145160    0.008075999388
     11   P     128             0.4608950   -2.499514810461
     11   P     129             0.2044900    2.265575828201
     11   P     130             0.0747410   -0.748341943253
     11   P     131             0.0356710   -0.211597983954

     12   P     132             0.0356710    1.000000000000

     13   D     133           152.7367420    0.000029000017
     13   D     134            50.7724850    0.005238003073
     13   D     135            26.2535890    0.029325017202
     13   D     136            12.1370220    0.074901043936
     13   D     137             5.8537190    0.163411095855
     13   D     138             2.8562240    0.251057147268
     13   D     139             1.3861320    0.287603168705
     13   D     140             0.6708020    0.251862147740
     13   D     141             0.3302800    0.186736109538
     13   D     142             0.1709070    0.093570054887
     13   D     143             0.0867940    0.073811043297

     14   D     144           152.7367420   -0.000026000007
     14   D     145            50.7724850   -0.006329001603
     14   D     146            26.2535890   -0.034398008711
     14   D     147            12.1370220   -0.091765023239
     14   D     148             5.8537190   -0.201592051053
     14   D     149             2.8562240   -0.283930071905
     14   D     150             1.3861320   -0.161981041021
     14   D     151             0.6708020    0.128822032624
     14   D     152             0.3302800    0.360160091210
     14   D     153             0.1709070    0.277592070300
     14   D     154             0.0867940    0.261403066200

     15   D     155           152.7367420    0.000050999990
     15   D     156            50.7724850    0.008768998302
     15   D     157            26.2535890    0.047920990722
     15   D     158            12.1370220    0.132474974350
     15   D     159             5.8537190    0.297278942441
     15   D     160             2.8562240    0.275017946751
     15   D     161             1.3861320   -0.222841956854
     15   D     162             0.6708020   -0.619066880137
     15   D     163             0.3302800   -0.076289985229
     15   D     164             0.1709070    0.256055950423
     15   D     165             0.0867940    0.541481895159

     16   D     166           152.7367420   -0.000095999986
     16   D     167            50.7724850   -0.012143998168
     16   D     168            26.2535890   -0.066970989898
     16   D     169            12.1370220   -0.196024970430
     16   D     170             5.8537190   -0.469002929253
     16   D     171             2.8562240    0.046559992977
     16   D     172             1.3861320    0.985939851275
     16   D     173             0.6708020   -0.220434966748
     16   D     174             0.3302800   -0.752481886491
     16   D     175             0.1709070   -0.111122983238
     16   D     176             0.0867940    0.753099886398

     17   D     177             0.0867940    1.000000000000

     18   F     178             0.4861220    1.000000000000

     19   F     179             1.6305910    1.000000000000

     20   F     180             5.4694630    1.000000000000

     21   G     181             1.0930140    1.000000000000

     22   G     182             3.8897590    1.000000000000

     23   S     183             1.9379180    1.000000000000

     24   S     184             3.3963510    1.000000000000

     25   P     185             2.4056110    1.000000000000

     26   P     186             7.6503820    1.000000000000

     27   D     187             3.7007290    1.000000000000

     28   D     188             4.2773660    1.000000000000

     29   F     189             3.3627830    1.000000000000

     30   G     190             6.4517130    1.000000000000

 TOTAL NUMBER OF BASIS SET SHELLS             =   30
 NUMBER OF CARTESIAN GAUSSIAN BASIS FUNCTIONS =  159
 NOTE: THIS RUN WILL RESTRICT THE MO VARIATION SPACE TO SPHERICAL HARMONICS.
 THE NUMBER OF ORBITALS KEPT IN THE VARIATIONAL SPACE WILL BE PRINTED LATER.
 NUMBER OF ELECTRONS                          =   26
 CHARGE OF MOLECULE                           =    0
 SPIN MULTIPLICITY                            =    5
 NUMBER OF OCCUPIED ORBITALS (ALPHA)          =   15
 NUMBER OF OCCUPIED ORBITALS (BETA )          =   11
 TOTAL NUMBER OF ATOMS                        =    1
 THE NUCLEAR REPULSION ENERGY IS        0.0000000000
 NOTE THIS RUN IS USING CORE POTENTIALS, AND THE NUMBER OF ELECTRONS,
 OCCUPIED ORBITALS, AND NUCLEAR REPULSION ENERGY WILL BE ADJUSTED BELOW
 AFTER REMOVAL OF THE CORE CHARGES.

 THIS MOLECULE IS RECOGNIZED AS BEING LINEAR,
 ORBITAL LZ DEGENERACY TOLERANCE ETOLLZ= 1.00E-06

     $CONTRL OPTIONS
     ---------------
 SCFTYP=ROHF         RUNTYP=ENERGY       EXETYP=RUN     
 MPLEVL=       0     CITYP =NONE         CCTYP =NONE         VBTYP =NONE    
 DFTTYP=NONE         TDDFT =NONE    
 MULT  =       5     ICHARG=       0     NZVAR =       0     COORD =UNIQUE  
 PP    =READ         RELWFN=NONE         LOCAL =NONE         NUMGRD=       F
 ISPHER=       1     NOSYM =       0     MAXIT =     150     UNITS =ANGS    
 PLTORB=       F     MOLPLT=       F     AIMPAC=       F     FRIEND=        
 NPRINT=       7     IREST =       0     GEOM  =INPUT   
 NORMF =       0     NORMP =       0     ITOL  =      20     ICUT  =       9
 INTTYP=BEST         GRDTYP=BEST         QMTTOL= 1.0E-06

     $SYSTEM OPTIONS
     ---------------
  REPLICATED MEMORY=  1000000000 WORDS (ON EVERY NODE).
 DISTRIBUTED MEMDDI=           0 MILLION WORDS IN AGGREGATE,
 MEMDDI DISTRIBUTED OVER   1 PROCESSORS IS           0 WORDS/PROCESSOR.
 TOTAL MEMORY REQUESTED ON EACH PROCESSOR=  1000000000 WORDS.
 TIMLIM=      525600.00 MINUTES, OR     365.0 DAYS.
 PARALL= F  BALTYP=  DLB     KDIAG=    3  COREFL= F
 MXSEQ2=     300 MXSEQ3=     150

          --------------
          ECP POTENTIALS
          --------------

 PARAMETERS FOR "FE-CCECP" ON ATOM    1 WITH ZCORE  10 AND LMAX  2 ARE
 FOR L= 2      COEFF    N           ZETA
    1       16.00000    1       23.22092
    2      371.53467    3       23.54715
    3     -181.22603    2       23.47256
    4       -2.37305    2        9.85239
 FOR L= 0      COEFF    N           ZETA
    1      277.50033    2       22.21063
    2       46.20496    2        9.51516
 FOR L= 1      COEFF    N           ZETA
    1      194.99875    2       24.57001
    2       31.67945    2        8.86649

 THE ECP RUN REMOVES   10 CORE ELECTRONS, AND THE SAME NUMBER OF PROTONS.
 NUMBER OF ELECTRONS KEPT IN THE CALCULATION IS =   16
 NUMBER OF OCCUPIED ORBITALS (ALPHA) KEPT IS    =   10
 NUMBER OF OCCUPIED ORBITALS (BETA ) KEPT IS    =    6
 THE ADJUSTED NUCLEAR REPULSION ENERGY=        0.0000000000
          ECP ANGULAR INTS.........     0.07 SECONDS

          ----------------
          PROPERTIES INPUT
          ----------------

     MOMENTS            FIELD           POTENTIAL          DENSITY
 IEMOM =       1   IEFLD =       0   IEPOT =       0   IEDEN =       0
 WHERE =COMASS     WHERE =NUCLEI     WHERE =NUCLEI     WHERE =NUCLEI  
 OUTPUT=BOTH       OUTPUT=BOTH       OUTPUT=BOTH       OUTPUT=BOTH    
 IEMINT=       0   IEFINT=       0                     IEDINT=       0
                                                       MORB  =       0
          EXTRAPOLATION IN EFFECT
          RESTRICTION OF ORBITAL MIXING IN EFFECT
          SOSCF IN EFFECT
 ORBITAL PRINTING OPTION: NPREO=     1   159     2     1

     -------------------------------
     INTEGRAL TRANSFORMATION OPTIONS
     -------------------------------
     NWORD  =            0
     CUTOFF = 1.0E-09     MPTRAN =       0
     DIRTRF =       F     AOINTS =DUP     

          ----------------------
          INTEGRAL INPUT OPTIONS
          ----------------------
 NOPK  =       1 NORDER=       0 SCHWRZ=       F

     ------------------------------------------
     THE POINT GROUP IS C1 , NAXIS= 0, ORDER= 1
     ------------------------------------------

 -- VARIATIONAL SPACE WILL BE RESTRICTED TO PURE SPHERICAL HARMONICS ONLY --
 AFTER EXCLUDING CONTAMINANT COMBINATIONS FROM THE CARTESIAN GAUSSIAN BASIS
 SET, THE NUMBER OF SPHERICAL HARMONICS KEPT IN THE VARIATION SPACE IS  122

     DIMENSIONS OF THE SYMMETRY SUBSPACES ARE
 A   =  122

 ..... DONE SETTING UP THE RUN .....
 STEP CPU TIME =     0.41 TOTAL CPU TIME =        0.4 (    0.0 MIN)
 TOTAL WALL CLOCK TIME=        0.7 SECONDS, CPU UTILIZATION IS  56.76%

          ********************
          1 ELECTRON INTEGRALS
          ********************
 TIME TO DO ORDINARY INTEGRALS=      0.06
 TIME TO DO      ECP INTEGRALS=      0.03
 ...... END OF ONE-ELECTRON INTEGRALS ......
 STEP CPU TIME =     0.10 TOTAL CPU TIME =        0.5 (    0.0 MIN)
 TOTAL WALL CLOCK TIME=        0.9 SECONDS, CPU UTILIZATION IS  56.52%

          -------------
          GUESS OPTIONS
          -------------
          GUESS =MOREAD            NORB  =      22          NORDER=       1
          MIX   =       F          PRTMO =       F          PUNMO =       F
          TOLZ  = 1.0E-08          TOLE  = 1.0E-05
          SYMDEN=       F          PURIFY=       F

 INITIAL GUESS ORBITALS GENERATED BY MOREAD   ROUTINE.

 STATISTICS FOR GENERATION OF SYMMETRY ORBITAL -Q- MATRIX
 NUMBER OF CARTESIAN ATOMIC ORBITALS=        159
 NUMBER OF SPHERICAL CONTAMINANTS DROPPED=    37
 NUMBER OF LINEARLY DEPENDENT MOS DROPPED=     0
 TOTAL NUMBER OF MOS IN VARIATION SPACE=     122

 SYMMETRIES FOR INITIAL GUESS ORBITALS FOLLOW.  ALPHA SET(S).
    10 ORBITALS ARE OCCUPIED (    4 CORE ORBITALS).
     5=A        6=A        7=A        8=A        9=A       10=A       11=A   
    12=A       13=A       14=A       15=A       16=A       17=A       18=A   
    19=A       20=A   

 SYMMETRIES FOR INITIAL GUESS ORBITALS FOLLOW.   BETA SET(S).
     6 ORBITALS ARE OCCUPIED (    4 CORE ORBITALS).
     5=A        6=A        7=A        8=A        9=A       10=A       11=A   
    12=A       13=A       14=A       15=A       16=A   
 ...... END OF INITIAL ORBITAL SELECTION ......
 STEP CPU TIME =     0.05 TOTAL CPU TIME =        0.6 (    0.0 MIN)
 TOTAL WALL CLOCK TIME=        1.1 SECONDS, CPU UTILIZATION IS  53.27%

                    ----------------------
                    AO INTEGRAL TECHNOLOGY
                    ----------------------
     S,P,L SHELL ROTATED AXIS INTEGRALS, REPROGRAMMED BY
        KAZUYA ISHIMURA (IMS) AND JOSE SIERRA (SYNSTAR).
     S,P,D,L SHELL ROTATED AXIS INTEGRALS PROGRAMMED BY
        KAZUYA ISHIMURA (INSTITUTE FOR MOLECULAR SCIENCE).
     S,P,D,F,G SHELL TO TOTAL QUARTET ANGULAR MOMENTUM SUM 5,
        ERIC PROGRAM BY GRAHAM FLETCHER (ELORET AND NASA ADVANCED
        SUPERCOMPUTING DIVISION, AMES RESEARCH CENTER).
     S,P,D,F,G,L SHELL GENERAL RYS QUADRATURE PROGRAMMED BY
        MICHEL DUPUIS (PACIFIC NORTHWEST NATIONAL LABORATORY).

          --------------------
          2 ELECTRON INTEGRALS
          --------------------

 THE -PK- OPTION IS OFF, THE INTEGRALS ARE NOT IN SUPERMATRIX FORM.
 STORING   15000 INTEGRALS/RECORD ON DISK, USING 12 BYTES/INTEGRAL.
 TWO ELECTRON INTEGRAL EVALUATION REQUIRES  140190 WORDS OF MEMORY.
 II,JST,KST,LST =  1  1  1  1 NREC =         1 INTLOC =    1
 II,JST,KST,LST =  2  1  1  1 NREC =         1 INTLOC =    2
 II,JST,KST,LST =  3  1  1  1 NREC =         1 INTLOC =    7
 II,JST,KST,LST =  4  1  1  1 NREC =         1 INTLOC =   22
 II,JST,KST,LST =  5  1  1  1 NREC =         1 INTLOC =   56
 II,JST,KST,LST =  6  1  1  1 NREC =         1 INTLOC =  121
 II,JST,KST,LST =  7  1  1  1 NREC =         1 INTLOC =  232
 II,JST,KST,LST =  8  1  1  1 NREC =         1 INTLOC =  367
 II,JST,KST,LST =  9  1  1  1 NREC =         1 INTLOC =  730
 II,JST,KST,LST = 10  1  1  1 NREC =         1 INTLOC = 1429
 II,JST,KST,LST = 11  1  1  1 NREC =         1 INTLOC = 2635
 II,JST,KST,LST = 12  1  1  1 NREC =         1 INTLOC = 4582
 II,JST,KST,LST = 13  1  1  1 NREC =         1 INTLOC = 7567
 II,JST,KST,LST = 14  1  1  1 NREC =         2 INTLOC = 1264
 II,JST,KST,LST = 15  1  1  1 NREC =         3 INTLOC = 2200
 II,JST,KST,LST = 16  1  1  1 NREC =         4 INTLOC =13075
 II,JST,KST,LST = 17  1  1  1 NREC =         7 INTLOC = 7597
 II,JST,KST,LST = 18  1  1  1 NREC =        11 INTLOC = 5482
 II,JST,KST,LST = 19  1  1  1 NREC =        20 INTLOC = 6665
 II,JST,KST,LST = 20  1  1  1 NREC =        34 INTLOC =14707
 II,JST,KST,LST = 21  1  1  1 NREC =        56 INTLOC = 9940
 II,JST,KST,LST = 22  1  1  1 NREC =       106 INTLOC =12760
 II,JST,KST,LST = 23  1  1  1 NREC =       185 INTLOC = 9529
 II,JST,KST,LST = 24  1  1  1 NREC =       192 INTLOC = 9212
 II,JST,KST,LST = 25  1  1  1 NREC =       199 INTLOC =12292
 II,JST,KST,LST = 26  1  1  1 NREC =       220 INTLOC =13885
 II,JST,KST,LST = 27  1  1  1 NREC =       243 INTLOC =11035
 II,JST,KST,LST = 28  1  1  1 NREC =       295 INTLOC = 2017
 II,JST,KST,LST = 29  1  1  1 NREC =       354 INTLOC = 6994
 II,JST,KST,LST = 30  1  1  1 NREC =       469 INTLOC = 6509
 TOTAL NUMBER OF NONZERO TWO-ELECTRON INTEGRALS =            10408120
        694 INTEGRAL RECORDS WERE STORED ON DISK FILE  8.
  ...... END OF TWO-ELECTRON INTEGRALS .....
 STEP CPU TIME =   320.84 TOTAL CPU TIME =      321.4 (    5.4 MIN)
 TOTAL WALL CLOCK TIME=      322.0 SECONDS, CPU UTILIZATION IS  99.82%

          ---------------------------
                 ROHF SCF CALCULATION
          ---------------------------

     NUCLEAR ENERGY =         0.0000000000
     MAXIT =150     NPUNCH=  2     MULT=  5
     EXTRAP=T  DAMP=F  SHIFT=F  RSTRCT=T  DIIS=F  SOSCF=T
     DENSITY MATRIX CONV=  1.00E-05
     ROHF CANONICALIZATION PARAMETERS
             C-C     O-O     V-V
     ALPHA -0.5000  0.5000  1.5000
     BETA   1.5000  0.5000 -0.5000
     SOSCF WILL OPTIMIZE    1144 ORBITAL ROTATION ANGLES. SOGTOL= 2.500E-01
     MEMORY REQUIRED FOR UHF/ROHF ITERS=    266306 WORDS.

 ITER EX      TOTAL ENERGY        E CHANGE  DENSITY CHANGE    ORB. GRAD 
   1  0     -122.5313910926  -122.5313910926   0.331609026   0.000000000
          ---------------START SECOND ORDER SCF---------------
   2  1     -122.5197319116     0.0116591810   0.254799215   0.147878134
   3  2     -122.5441080243    -0.0243761127   0.161290478   0.147858015
   4  3     -122.6460830972    -0.1019750729   0.448682774   0.010906849
   5  4     -122.5475700466     0.0985130506   0.421622021   0.119769050
   6  5     -122.6459694512    -0.0983994046   0.178162113   0.014692643
   7  6     -122.6325331389     0.0134363124   0.233720481   0.055862945
   8  7     -122.6471757982    -0.0146426594   0.009560560   0.006309851
   9  8     -122.6472788304    -0.0001030322   0.003786918   0.001050646
  10  9     -122.6472822112    -0.0000033808   0.000270357   0.000120838
  11 10     -122.6472822784    -0.0000000672   0.000172708   0.000016735
  12 11     -122.6472822826    -0.0000000042   0.000099796   0.000005584
  13 12     -122.6472822829    -0.0000000002   0.000022178   0.000001264
  14 13     -122.6472822829    -0.0000000000   0.000003424   0.000000185
  15 14     -122.6472822829    -0.0000000000   0.000000348   0.000000034

          -----------------
          DENSITY CONVERGED
          -----------------
     TIME TO FORM FOCK OPERATORS=       7.8 SECONDS (       0.5 SEC/ITER)
     TIME TO SOLVE SCF EQUATIONS=       0.3 SECONDS (       0.0 SEC/ITER)

 FINAL ROHF ENERGY IS     -122.6472822829 AFTER  15 ITERATIONS

          --------------------
          SPIN SZ   =    2.000
          S-SQUARED =    6.000
          --------------------

 LZ VALUE ANALYSIS FOR THE MOS
 ----------------------------------------
 MO     1 (    1) HAS LZ(WEIGHT)= 0.00(100.0%) 
 MO     2 (    2) HAS LZ(WEIGHT)= 0.00(100.0%) 
 MO     3 (    3) HAS LZ(WEIGHT)=-1.00( 50.0%)  1.00( 50.0%) 
 MO     4 (    3) HAS LZ(WEIGHT)=-1.00( 50.0%)  1.00( 50.0%) 
 MO     5 (    4) HAS LZ(WEIGHT)= 0.00(100.0%) 
 MO     6 (    5) HAS LZ(WEIGHT)= 0.00(100.0%) 
 MO     7 (    6) HAS LZ(WEIGHT)= 0.00(100.0%) 
 MO     8 (    7) HAS LZ(WEIGHT)= 0.00(100.0%) 
 MO     9 (    8) HAS LZ(WEIGHT)=-1.00( 50.0%)  1.00( 50.0%) 
 MO    10 (    8) HAS LZ(WEIGHT)=-1.00( 50.0%)  1.00( 50.0%) 
 MO    11 (    9) HAS LZ(WEIGHT)=-1.00( 50.0%)  1.00( 50.0%) 
 MO    12 (    9) HAS LZ(WEIGHT)=-1.00( 50.0%)  1.00( 50.0%) 
 MO    13 (   10) HAS LZ(WEIGHT)= 0.00(100.0%) 
 MO    14 (   11) HAS LZ(WEIGHT)= 0.00(100.0%) 
 MO    15 (   12) HAS LZ(WEIGHT)= 0.00(100.0%) 
 MO    16 (   13) HAS LZ(WEIGHT)=-1.00( 50.0%)  1.00( 50.0%) 
 MO    17 (   13) HAS LZ(WEIGHT)=-1.00( 50.0%)  1.00( 50.0%) 
 MO    18 (   14) HAS LZ(WEIGHT)=-1.00( 50.0%)  1.00( 50.0%) 
 MO    19 (   14) HAS LZ(WEIGHT)=-1.00( 50.0%)  1.00( 50.0%) 
 MO    20 (   15) HAS LZ(WEIGHT)= 0.00(100.0%) 
 MO    21 (   16) HAS LZ(WEIGHT)= 0.00(100.0%) 
 MO    22 (   17) HAS LZ(WEIGHT)= 0.00(100.0%) 
 MO    23 (   18) HAS LZ(WEIGHT)= 0.00(100.0%) 
 MO    24 (   19) HAS LZ(WEIGHT)=-1.00( 50.0%)  1.00( 50.0%) 
 MO    25 (   19) HAS LZ(WEIGHT)=-1.00( 50.0%)  1.00( 50.0%) 
 MO    26 (   20) HAS LZ(WEIGHT)= 0.00(100.0%) 
 MO    27 (   21) HAS LZ(WEIGHT)= 0.00(100.0%) 
 MO    28 (   22) HAS LZ(WEIGHT)= 0.00(100.0%) 
 MO    29 (   23) HAS LZ(WEIGHT)= 0.00(100.0%) 
 MO    30 (   24) HAS LZ(WEIGHT)=-1.00( 50.0%)  1.00( 50.0%) 
 MO    31 (   24) HAS LZ(WEIGHT)=-1.00( 50.0%)  1.00( 50.0%) 
 MO    32 (   25) HAS LZ(WEIGHT)= 0.00(100.0%) 
 MO    33 (   26) HAS LZ(WEIGHT)=-1.00( 50.0%)  1.00( 50.0%) 
 MO    34 (   26) HAS LZ(WEIGHT)=-1.00( 50.0%)  1.00( 50.0%) 
 MO    35 (   27) HAS LZ(WEIGHT)= 0.00(100.0%) 
 MO    36 (   28) HAS LZ(WEIGHT)= 0.00(100.0%) 
 MO    37 (   29) HAS LZ(WEIGHT)= 0.00(100.0%) 
 MO    38 (   30) HAS LZ(WEIGHT)= 0.00(100.0%) 
 MO    39 (   31) HAS LZ(WEIGHT)= 0.00(100.0%) 
 MO    40 (   32) HAS LZ(WEIGHT)=-1.00( 50.0%)  1.00( 50.0%) 
 MO    41 (   32) HAS LZ(WEIGHT)=-1.00( 50.0%)  1.00( 50.0%) 
 MO    42 (   33) HAS LZ(WEIGHT)= 0.00(100.0%) 
 MO    43 (   34) HAS LZ(WEIGHT)= 0.00(100.0%) 
 MO    44 (   35) HAS LZ(WEIGHT)= 0.00(100.0%) 
 MO    45 (   36) HAS LZ(WEIGHT)=-0.82( 50.0%)  0.82( 50.0%) 
 MO    46 (   36) HAS LZ(WEIGHT)=-0.82( 50.0%)  0.82( 50.0%) 
 MO    47 (   37) HAS LZ(WEIGHT)=-2.82( 50.0%)  2.82( 50.0%) 
 MO    48 (   37) HAS LZ(WEIGHT)=-2.82( 50.0%)  2.82( 50.0%) 
 MO    49 (   38) HAS LZ(WEIGHT)= 0.00(100.0%) 
 MO    50 (   39) HAS LZ(WEIGHT)=-1.00( 50.0%)  1.00( 50.0%) 
 MO    51 (   39) HAS LZ(WEIGHT)=-1.00( 50.0%)  1.00( 50.0%) 
 MO    52 (   40) HAS LZ(WEIGHT)= 0.00(100.0%) 
 MO    53 (   41) HAS LZ(WEIGHT)= 0.00(100.0%) 
 MO    54 (   42) HAS LZ(WEIGHT)= 0.00(100.0%) 
 MO    55 (   43) HAS LZ(WEIGHT)= 0.00(100.0%) 
 MO    56 (   44) HAS LZ(WEIGHT)=-2.47( 50.0%)  2.47( 50.0%) 
 MO    57 (   44) HAS LZ(WEIGHT)=-2.47( 50.0%)  2.47( 50.0%) 
 MO    58 (   45) HAS LZ(WEIGHT)= 0.00(100.0%) 
 MO    59 (   46) HAS LZ(WEIGHT)= 0.00(100.0%) 
 MO    60 (   47) HAS LZ(WEIGHT)=-0.47( 50.0%)  0.47( 50.0%) 
 MO    61 (   47) HAS LZ(WEIGHT)=-0.47( 50.0%)  0.47( 50.0%) 
 MO    62 (   48) HAS LZ(WEIGHT)=-1.00( 50.0%)  1.00( 50.0%) 
 MO    63 (   48) HAS LZ(WEIGHT)=-1.00( 50.0%)  1.00( 50.0%) 
 MO    64 (   49) HAS LZ(WEIGHT)= 0.00(100.0%) 
 MO    65 (   50) HAS LZ(WEIGHT)= 0.00(100.0%) 
 MO    66 (   51) HAS LZ(WEIGHT)= 0.00(100.0%) 
 MO    67 (   52) HAS LZ(WEIGHT)= 0.00(100.0%) 
 MO    68 (   53) HAS LZ(WEIGHT)= 0.00(100.0%) 
 MO    69 (   54) HAS LZ(WEIGHT)= 0.00(100.0%) 
 MO    70 (   55) HAS LZ(WEIGHT)=-2.78( 50.0%)  2.78( 50.0%) 
 MO    71 (   55) HAS LZ(WEIGHT)=-2.78( 50.0%)  2.78( 50.0%) 
 MO    72 (   56) HAS LZ(WEIGHT)= 0.00(100.0%) 
 MO    73 (   57) HAS LZ(WEIGHT)= 0.00(100.0%) 
 MO    74 (   58) HAS LZ(WEIGHT)=-1.00( 50.0%)  1.00( 50.0%) 
 MO    75 (   58) HAS LZ(WEIGHT)=-1.00( 50.0%)  1.00( 50.0%) 
 MO    76 (   59) HAS LZ(WEIGHT)= 0.00(100.0%) 
 MO    77 (   60) HAS LZ(WEIGHT)= 0.00(100.0%) 
 MO    78 (   61) HAS LZ(WEIGHT)= 0.00(100.0%) 
 MO    79 (   62) HAS LZ(WEIGHT)= 0.00(100.0%) 
 MO    80 (   63) HAS LZ(WEIGHT)=-2.50( 50.0%)  2.50( 50.0%) 
 MO    81 (   63) HAS LZ(WEIGHT)=-2.50( 50.0%)  2.50( 50.0%) 
 MO    82 (   64) HAS LZ(WEIGHT)= 0.00(100.0%) 
 MO    83 (   65) HAS LZ(WEIGHT)=-0.50( 50.0%)  0.50( 50.0%) 
 MO    84 (   65) HAS LZ(WEIGHT)=-0.50( 50.0%)  0.50( 50.0%) 
 MO    85 (   66) HAS LZ(WEIGHT)= 0.00(100.0%) 
 MO    86 (   67) HAS LZ(WEIGHT)=-1.00( 50.0%)  1.00( 50.0%) 
 MO    87 (   67) HAS LZ(WEIGHT)=-1.00( 50.0%)  1.00( 50.0%) 
 MO    88 (   68) HAS LZ(WEIGHT)= 0.00(100.0%) 
 MO    89 (   69) HAS LZ(WEIGHT)= 0.00(100.0%) 
 MO    90 (   70) HAS LZ(WEIGHT)= 0.00(100.0%) 
 MO    91 (   71) HAS LZ(WEIGHT)= 0.00(100.0%) 
 MO    92 (   72) HAS LZ(WEIGHT)=-1.00( 50.0%)  1.00( 50.0%) 
 MO    93 (   72) HAS LZ(WEIGHT)=-1.00( 50.0%)  1.00( 50.0%) 
 MO    94 (   73) HAS LZ(WEIGHT)= 0.00(100.0%) 
 MO    95 (   74) HAS LZ(WEIGHT)= 0.00(100.0%) 
 MO    96 (   75) HAS LZ(WEIGHT)=-1.00( 50.0%)  1.00( 50.0%) 
 MO    97 (   75) HAS LZ(WEIGHT)=-1.00( 50.0%)  1.00( 50.0%) 
 MO    98 (   76) HAS LZ(WEIGHT)= 0.00(100.0%) 
 MO    99 (   77) HAS LZ(WEIGHT)= 0.00(100.0%) 
 MO   100 (   78) HAS LZ(WEIGHT)= 0.00(100.0%) 
 MO   101 (   79) HAS LZ(WEIGHT)= 0.00(100.0%) 
 MO   102 (   80) HAS LZ(WEIGHT)=-0.81( 50.0%)  0.81( 50.0%) 
 MO   103 (   80) HAS LZ(WEIGHT)=-0.81( 50.0%)  0.81( 50.0%) 
 MO   104 (   81) HAS LZ(WEIGHT)=-2.81( 50.0%)  2.81( 50.0%) 
 MO   105 (   81) HAS LZ(WEIGHT)=-2.81( 50.0%)  2.81( 50.0%) 
 MO   106 (   82) HAS LZ(WEIGHT)= 0.00(100.0%) 
 MO   107 (   83) HAS LZ(WEIGHT)= 0.00(100.0%) 
 MO   108 (   84) HAS LZ(WEIGHT)=-2.80( 50.0%)  2.80( 50.0%) 
 MO   109 (   84) HAS LZ(WEIGHT)=-2.80( 50.0%)  2.80( 50.0%) 
 MO   110 (   85) HAS LZ(WEIGHT)= 0.00(100.0%) 
 MO   111 (   86) HAS LZ(WEIGHT)= 0.00(100.0%) 
 MO   112 (   87) HAS LZ(WEIGHT)= 0.00(100.0%) 
 MO   113 (   88) HAS LZ(WEIGHT)= 0.00(100.0%) 
 MO   114 (   89) HAS LZ(WEIGHT)=-2.49( 50.0%)  2.49( 50.0%) 
 MO   115 (   89) HAS LZ(WEIGHT)=-2.49( 50.0%)  2.49( 50.0%) 
 MO   116 (   90) HAS LZ(WEIGHT)= 0.00(100.0%) 
 MO   117 (   91) HAS LZ(WEIGHT)=-0.49( 50.0%)  0.49( 50.0%) 
 MO   118 (   91) HAS LZ(WEIGHT)=-0.49( 50.0%)  0.49( 50.0%) 
 MO   119 (   92) HAS LZ(WEIGHT)= 0.00(100.0%) 
 MO   120 (   93) HAS LZ(WEIGHT)=-0.80( 50.0%)  0.80( 50.0%) 
 MO   121 (   93) HAS LZ(WEIGHT)=-0.80( 50.0%)  0.80( 50.0%) 
 MO   122 (   94) HAS LZ(WEIGHT)= 0.00(100.0%) 

          ------------
          EIGENVECTORS
          ------------

                      1          2          3          4          5
                   -3.9036    -2.2224    -2.3582    -2.3582    -0.4151
                     A          A          A          A          A   
    1  FE 1  S    0.999883   0.000000   0.000000   0.000000   0.000000
    2  FE 1  S    0.002806   0.000000   0.000000   0.000000   0.000000
    3  FE 1  S   -0.000032   0.000000   0.000000   0.000000   0.000000
    4  FE 1  S    0.000003   0.000000   0.000000   0.000000   0.000000
    5  FE 1  S    0.000013   0.000000   0.000000   0.000000   0.000000
    6  FE 1  S   -0.000058   0.000000   0.000000   0.000000  -0.000000
    7  FE 1  X    0.000000   0.000000   1.001055   0.000000   0.000000
    8  FE 1  Y    0.000000   0.000000   0.000000   1.001055   0.000000
    9  FE 1  Z    0.000000   1.000054   0.000000   0.000000   0.000000
   10  FE 1  X    0.000000   0.000000   0.016215   0.000000   0.000000
   11  FE 1  Y    0.000000   0.000000   0.000000   0.016215   0.000000
   12  FE 1  Z    0.000000   0.013436   0.000000   0.000000   0.000000
   13  FE 1  X    0.000000   0.000000   0.013924   0.000000   0.000000
   14  FE 1  Y    0.000000   0.000000   0.000000   0.013924   0.000000
   15  FE 1  Z    0.000000   0.012336   0.000000   0.000000   0.000000
   16  FE 1  X    0.000000   0.000000   0.000606   0.000000   0.000000
   17  FE 1  Y    0.000000   0.000000   0.000000   0.000606   0.000000
   18  FE 1  Z    0.000000   0.001133   0.000000   0.000000   0.000000
   19  FE 1  X    0.000000   0.000000  -0.000969   0.000000   0.000000
   20  FE 1  Y    0.000000   0.000000   0.000000  -0.000969   0.000000
   21  FE 1  Z    0.000000  -0.000692   0.000000   0.000000   0.000000
   22  FE 1  X    0.000000   0.000000  -0.004427   0.000000   0.000000
   23  FE 1  Y    0.000000   0.000000   0.000000  -0.004427   0.000000
   24  FE 1  Z    0.000000  -0.003770   0.000000   0.000000   0.000000
   25  FE 1 XX    0.001119   0.000000   0.000000   0.000000  -0.870258
   26  FE 1 YY    0.001119   0.000000   0.000000   0.000000   0.870258
   27  FE 1 ZZ   -0.002237   0.000000   0.000000   0.000000   0.000000
   28  FE 1 XY    0.000000   0.000000   0.000000   0.000000   0.000000
   29  FE 1 XZ    0.000000   0.000000   0.000000   0.000000   0.000000
   30  FE 1 YZ    0.000000   0.000000   0.000000   0.000000   0.000000
   31  FE 1 XX    0.000306   0.000000   0.000000   0.000000   0.065110
   32  FE 1 YY    0.000306   0.000000   0.000000   0.000000  -0.065110
   33  FE 1 ZZ   -0.000612   0.000000   0.000000   0.000000   0.000000
   34  FE 1 XY    0.000000   0.000000   0.000000   0.000000   0.000000
   35  FE 1 XZ    0.000000   0.000000   0.000000   0.000000   0.000000
   36  FE 1 YZ    0.000000   0.000000   0.000000   0.000000   0.000000
   37  FE 1 XX   -0.000702   0.000000   0.000000   0.000000   0.021253
   38  FE 1 YY   -0.000702   0.000000   0.000000   0.000000  -0.021253
   39  FE 1 ZZ    0.001404   0.000000   0.000000   0.000000   0.000000
   40  FE 1 XY    0.000000   0.000000   0.000000   0.000000   0.000000
   41  FE 1 XZ    0.000000   0.000000   0.000000   0.000000   0.000000
   42  FE 1 YZ    0.000000   0.000000   0.000000   0.000000   0.000000
   43  FE 1 XX   -0.000526   0.000000   0.000000   0.000000   0.003523
   44  FE 1 YY   -0.000526   0.000000   0.000000   0.000000  -0.003523
   45  FE 1 ZZ    0.001052   0.000000   0.000000   0.000000   0.000000
   46  FE 1 XY    0.000000   0.000000   0.000000   0.000000   0.000000
   47  FE 1 XZ    0.000000   0.000000   0.000000   0.000000   0.000000
   48  FE 1 YZ    0.000000   0.000000   0.000000   0.000000   0.000000
   49  FE 1 XX    0.000696   0.000000   0.000000   0.000000   0.014753
   50  FE 1 YY    0.000696   0.000000   0.000000   0.000000  -0.014753
   51  FE 1 ZZ   -0.001393   0.000000   0.000000   0.000000   0.000000
   52  FE 1 XY    0.000000   0.000000   0.000000   0.000000   0.000000
   53  FE 1 XZ    0.000000   0.000000   0.000000   0.000000   0.000000
   54  FE 1 YZ    0.000000   0.000000   0.000000   0.000000   0.000000
   55  FE 1 XXX   0.000000   0.000000   0.002084   0.000000   0.000000
   56  FE 1 YYY   0.000000   0.000000   0.000000   0.002084   0.000000
   57  FE 1 ZZZ   0.000000   0.000620   0.000000   0.000000   0.000000
   58  FE 1 XXY   0.000000   0.000000   0.000000  -0.002640   0.000000
   59  FE 1 XXZ   0.000000  -0.000416   0.000000   0.000000   0.000000
   60  FE 1 YYX   0.000000   0.000000  -0.002640   0.000000   0.000000
   61  FE 1 YYZ   0.000000  -0.000416   0.000000   0.000000   0.000000
   62  FE 1 ZZX   0.000000   0.000000  -0.000157   0.000000   0.000000
   63  FE 1 ZZY   0.000000   0.000000   0.000000  -0.000157   0.000000
   64  FE 1 XYZ   0.000000   0.000000   0.000000   0.000000   0.000000
   65  FE 1 XXX   0.000000   0.000000   0.002250   0.000000   0.000000
   66  FE 1 YYY   0.000000   0.000000   0.000000   0.002250   0.000000
   67  FE 1 ZZZ   0.000000   0.002660   0.000000   0.000000   0.000000
   68  FE 1 XXY   0.000000   0.000000   0.000000  -0.004327   0.000000
   69  FE 1 XXZ   0.000000  -0.001784   0.000000   0.000000   0.000000
   70  FE 1 YYX   0.000000   0.000000  -0.004327   0.000000   0.000000
   71  FE 1 YYZ   0.000000  -0.001784   0.000000   0.000000   0.000000
   72  FE 1 ZZX   0.000000   0.000000   0.001308   0.000000   0.000000
   73  FE 1 ZZY   0.000000   0.000000   0.000000   0.001308   0.000000
   74  FE 1 XYZ   0.000000   0.000000   0.000000   0.000000   0.000000
   75  FE 1 XXX   0.000000   0.000000   0.001115   0.000000   0.000000
   76  FE 1 YYY   0.000000   0.000000   0.000000   0.001115   0.000000
   77  FE 1 ZZZ   0.000000   0.000882   0.000000   0.000000   0.000000
   78  FE 1 XXY   0.000000   0.000000   0.000000  -0.001821   0.000000
   79  FE 1 XXZ   0.000000  -0.000592   0.000000   0.000000   0.000000
   80  FE 1 YYX   0.000000   0.000000  -0.001821   0.000000   0.000000
   81  FE 1 YYZ   0.000000  -0.000592   0.000000   0.000000   0.000000
   82  FE 1 ZZX   0.000000   0.000000   0.000324   0.000000   0.000000
   83  FE 1 ZZY   0.000000   0.000000   0.000000   0.000324   0.000000
   84  FE 1 XYZ   0.000000   0.000000   0.000000   0.000000   0.000000
   85  FE 1XXXX   0.000640   0.000000   0.000000   0.000000   0.000835
   86  FE 1YYYY   0.000640   0.000000   0.000000   0.000000  -0.000835
   87  FE 1ZZZZ   0.000119   0.000000   0.000000   0.000000   0.000000
   88  FE 1XXXY   0.000000   0.000000   0.000000   0.000000   0.000000
   89  FE 1XXXZ   0.000000   0.000000   0.000000   0.000000   0.000000
   90  FE 1YYYX   0.000000   0.000000   0.000000   0.000000   0.000000
   91  FE 1YYYZ   0.000000   0.000000   0.000000   0.000000   0.000000
   92  FE 1ZZZX   0.000000   0.000000   0.000000   0.000000   0.000000
   93  FE 1ZZZY   0.000000   0.000000   0.000000   0.000000   0.000000
   94  FE 1XXYY  -0.001021   0.000000   0.000000   0.000000   0.000000
   95  FE 1XXZZ  -0.000104   0.000000   0.000000   0.000000  -0.001468
   96  FE 1YYZZ  -0.000104   0.000000   0.000000   0.000000   0.001468
   97  FE 1XXYZ   0.000000   0.000000   0.000000   0.000000   0.000000
   98  FE 1YYXZ   0.000000   0.000000   0.000000   0.000000   0.000000
   99  FE 1ZZXY   0.000000   0.000000   0.000000   0.000000   0.000000
  100  FE 1XXXX   0.000160   0.000000   0.000000   0.000000   0.000386
  101  FE 1YYYY   0.000160   0.000000   0.000000   0.000000  -0.000386
  102  FE 1ZZZZ   0.000033   0.000000   0.000000   0.000000   0.000000
  103  FE 1XXXY   0.000000   0.000000   0.000000   0.000000   0.000000
  104  FE 1XXXZ   0.000000   0.000000   0.000000   0.000000   0.000000
  105  FE 1YYYX   0.000000   0.000000   0.000000   0.000000   0.000000
  106  FE 1YYYZ   0.000000   0.000000   0.000000   0.000000   0.000000
  107  FE 1ZZZX   0.000000   0.000000   0.000000   0.000000   0.000000
  108  FE 1ZZZY   0.000000   0.000000   0.000000   0.000000   0.000000
  109  FE 1XXYY  -0.000252   0.000000   0.000000   0.000000   0.000000
  110  FE 1XXZZ  -0.000029   0.000000   0.000000   0.000000  -0.000678
  111  FE 1YYZZ  -0.000029   0.000000   0.000000   0.000000   0.000678
  112  FE 1XXYZ   0.000000   0.000000   0.000000   0.000000   0.000000
  113  FE 1YYXZ   0.000000   0.000000   0.000000   0.000000   0.000000
  114  FE 1ZZXY   0.000000   0.000000   0.000000   0.000000   0.000000
  115  FE 1  S    0.000266   0.000000   0.000000   0.000000   0.000000
  116  FE 1  S   -0.000171   0.000000   0.000000   0.000000   0.000000
  117  FE 1  X    0.000000   0.000000  -0.000780   0.000000   0.000000
  118  FE 1  Y    0.000000   0.000000   0.000000  -0.000780   0.000000
  119  FE 1  Z    0.000000   0.000449   0.000000   0.000000   0.000000
  120  FE 1  X    0.000000   0.000000   0.000173   0.000000   0.000000
  121  FE 1  Y    0.000000   0.000000   0.000000   0.000173   0.000000
  122  FE 1  Z    0.000000  -0.000171   0.000000   0.000000   0.000000
  123  FE 1 XX   -0.000883   0.000000   0.000000   0.000000   0.000646
  124  FE 1 YY   -0.000883   0.000000   0.000000   0.000000  -0.000646
  125  FE 1 ZZ    0.001765   0.000000   0.000000   0.000000   0.000000
  126  FE 1 XY    0.000000   0.000000   0.000000   0.000000   0.000000
  127  FE 1 XZ    0.000000   0.000000   0.000000   0.000000   0.000000
  128  FE 1 YZ    0.000000   0.000000   0.000000   0.000000   0.000000
  129  FE 1 XX    0.000450   0.000000   0.000000   0.000000   0.000232
  130  FE 1 YY    0.000450   0.000000   0.000000   0.000000  -0.000232
  131  FE 1 ZZ   -0.000900   0.000000   0.000000   0.000000   0.000000
  132  FE 1 XY    0.000000   0.000000   0.000000   0.000000   0.000000
  133  FE 1 XZ    0.000000   0.000000   0.000000   0.000000   0.000000
  134  FE 1 YZ    0.000000   0.000000   0.000000   0.000000   0.000000
  135  FE 1 XXX   0.000000   0.000000  -0.000415   0.000000   0.000000
  136  FE 1 YYY   0.000000   0.000000   0.000000  -0.000415   0.000000
  137  FE 1 ZZZ   0.000000   0.000781   0.000000   0.000000   0.000000
  138  FE 1 XXY   0.000000   0.000000   0.000000  -0.000144   0.000000
  139  FE 1 XXZ   0.000000  -0.000524   0.000000   0.000000   0.000000
  140  FE 1 YYX   0.000000   0.000000  -0.000144   0.000000   0.000000
  141  FE 1 YYZ   0.000000  -0.000524   0.000000   0.000000   0.000000
  142  FE 1 ZZX   0.000000   0.000000   0.000701   0.000000   0.000000
  143  FE 1 ZZY   0.000000   0.000000   0.000000   0.000701   0.000000
  144  FE 1 XYZ   0.000000   0.000000   0.000000   0.000000   0.000000
  145  FE 1XXXX   0.000110   0.000000   0.000000   0.000000   0.000040
  146  FE 1YYYY   0.000110   0.000000   0.000000   0.000000  -0.000040
  147  FE 1ZZZZ   0.000023   0.000000   0.000000   0.000000   0.000000
  148  FE 1XXXY   0.000000   0.000000   0.000000   0.000000   0.000000
  149  FE 1XXXZ   0.000000   0.000000   0.000000   0.000000   0.000000
  150  FE 1YYYX   0.000000   0.000000   0.000000   0.000000   0.000000
  151  FE 1YYYZ   0.000000   0.000000   0.000000   0.000000   0.000000
  152  FE 1ZZZX   0.000000   0.000000   0.000000   0.000000   0.000000
  153  FE 1ZZZY   0.000000   0.000000   0.000000   0.000000   0.000000
  154  FE 1XXYY  -0.000173   0.000000   0.000000   0.000000   0.000000
  155  FE 1XXZZ  -0.000020   0.000000   0.000000   0.000000  -0.000070
  156  FE 1YYZZ  -0.000020   0.000000   0.000000   0.000000   0.000070
  157  FE 1XXYZ   0.000000   0.000000   0.000000   0.000000   0.000000
  158  FE 1YYXZ   0.000000   0.000000   0.000000   0.000000   0.000000
  159  FE 1ZZXY   0.000000   0.000000   0.000000   0.000000   0.000000

                      6          7          8          9         10
                   -0.2336    -0.1889    -0.1417    -0.1770    -0.1770
                     A          A          A          A          A   
    1  FE 1  S   -0.002659   0.002003   0.000000   0.000000   0.000000
    2  FE 1  S    1.000088  -0.011529   0.000000   0.000000   0.000000
    3  FE 1  S    0.000637  -0.001140   0.000000   0.000000   0.000000
    4  FE 1  S   -0.000072  -0.000393   0.000000   0.000000   0.000000
    5  FE 1  S    0.000009   0.000041   0.000000   0.000000   0.000000
    6  FE 1  S   -0.000330  -0.000115   0.000000   0.000000   0.000000
    7  FE 1  X    0.000000   0.000000   0.000000   0.000000   0.000000
    8  FE 1  Y    0.000000   0.000000   0.000000   0.000000   0.000000
    9  FE 1  Z    0.000000   0.000000   0.000000   0.000000   0.000000
   10  FE 1  X    0.000000   0.000000   0.000000   0.000000   0.000000
   11  FE 1  Y    0.000000   0.000000   0.000000   0.000000   0.000000
   12  FE 1  Z    0.000000   0.000000   0.000000   0.000000   0.000000
   13  FE 1  X    0.000000   0.000000   0.000000   0.000000   0.000000
   14  FE 1  Y    0.000000   0.000000   0.000000   0.000000   0.000000
   15  FE 1  Z    0.000000   0.000000   0.000000   0.000000   0.000000
   16  FE 1  X    0.000000   0.000000   0.000000   0.000000   0.000000
   17  FE 1  Y    0.000000   0.000000   0.000000   0.000000   0.000000
   18  FE 1  Z    0.000000   0.000000   0.000000   0.000000   0.000000
   19  FE 1  X    0.000000   0.000000   0.000000   0.000000   0.000000
   20  FE 1  Y    0.000000   0.000000   0.000000   0.000000   0.000000
   21  FE 1  Z    0.000000   0.000000   0.000000   0.000000   0.000000
   22  FE 1  X    0.000000   0.000000   0.000000   0.000000   0.000000
   23  FE 1  Y    0.000000   0.000000   0.000000   0.000000   0.000000
   24  FE 1  Z    0.000000   0.000000   0.000000   0.000000   0.000000
   25  FE 1 XX   -0.006464  -0.498445   0.000000   0.000000   0.000000
   26  FE 1 YY   -0.006464  -0.498445   0.000000   0.000000   0.000000
   27  FE 1 ZZ    0.012929   0.996891   0.000000   0.000000   0.000000
   28  FE 1 XY    0.000000   0.000000   0.998982   0.000000   0.000000
   29  FE 1 XZ    0.000000   0.000000   0.000000   0.000000   0.997481
   30  FE 1 YZ    0.000000   0.000000   0.000000   0.997481   0.000000
   31  FE 1 XX   -0.005703   0.066883   0.000000   0.000000   0.000000
   32  FE 1 YY   -0.005703   0.066883   0.000000   0.000000   0.000000
   33  FE 1 ZZ    0.011407  -0.133767   0.000000   0.000000   0.000000
   34  FE 1 XY    0.000000   0.000000  -0.121034   0.000000   0.000000
   35  FE 1 XZ    0.000000   0.000000   0.000000   0.000000  -0.130571
   36  FE 1 YZ    0.000000   0.000000   0.000000  -0.130571   0.000000
   37  FE 1 XX   -0.001287   0.018954   0.000000   0.000000   0.000000
   38  FE 1 YY   -0.001287   0.018954   0.000000   0.000000   0.000000
   39  FE 1 ZZ    0.002574  -0.037908   0.000000   0.000000   0.000000
   40  FE 1 XY    0.000000   0.000000  -0.035275   0.000000   0.000000
   41  FE 1 XZ    0.000000   0.000000   0.000000   0.000000  -0.037278
   42  FE 1 YZ    0.000000   0.000000   0.000000  -0.037278   0.000000
   43  FE 1 XX    0.000111   0.001024   0.000000   0.000000   0.000000
   44  FE 1 YY    0.000111   0.001024   0.000000   0.000000   0.000000
   45  FE 1 ZZ   -0.000222  -0.002048   0.000000   0.000000   0.000000
   46  FE 1 XY    0.000000   0.000000  -0.002560   0.000000   0.000000
   47  FE 1 XZ    0.000000   0.000000   0.000000   0.000000  -0.002195
   48  FE 1 YZ    0.000000   0.000000   0.000000  -0.002195   0.000000
   49  FE 1 XX   -0.000427   0.003558   0.000000   0.000000   0.000000
   50  FE 1 YY   -0.000427   0.003558   0.000000   0.000000   0.000000
   51  FE 1 ZZ    0.000855  -0.007116   0.000000   0.000000   0.000000
   52  FE 1 XY    0.000000   0.000000  -0.009581   0.000000   0.000000
   53  FE 1 XZ    0.000000   0.000000   0.000000   0.000000  -0.007710
   54  FE 1 YZ    0.000000   0.000000   0.000000  -0.007710   0.000000
   55  FE 1 XXX   0.000000   0.000000   0.000000   0.000000   0.000000
   56  FE 1 YYY   0.000000   0.000000   0.000000   0.000000   0.000000
   57  FE 1 ZZZ   0.000000   0.000000   0.000000   0.000000   0.000000
   58  FE 1 XXY   0.000000   0.000000   0.000000   0.000000   0.000000
   59  FE 1 XXZ   0.000000   0.000000   0.000000   0.000000   0.000000
   60  FE 1 YYX   0.000000   0.000000   0.000000   0.000000   0.000000
   61  FE 1 YYZ   0.000000   0.000000   0.000000   0.000000   0.000000
   62  FE 1 ZZX   0.000000   0.000000   0.000000   0.000000   0.000000
   63  FE 1 ZZY   0.000000   0.000000   0.000000   0.000000   0.000000
   64  FE 1 XYZ   0.000000   0.000000   0.000000   0.000000   0.000000
   65  FE 1 XXX   0.000000   0.000000   0.000000   0.000000   0.000000
   66  FE 1 YYY   0.000000   0.000000   0.000000   0.000000   0.000000
   67  FE 1 ZZZ   0.000000   0.000000   0.000000   0.000000   0.000000
   68  FE 1 XXY   0.000000   0.000000   0.000000   0.000000   0.000000
   69  FE 1 XXZ   0.000000   0.000000   0.000000   0.000000   0.000000
   70  FE 1 YYX   0.000000   0.000000   0.000000   0.000000   0.000000
   71  FE 1 YYZ   0.000000   0.000000   0.000000   0.000000   0.000000
   72  FE 1 ZZX   0.000000   0.000000   0.000000   0.000000   0.000000
   73  FE 1 ZZY   0.000000   0.000000   0.000000   0.000000   0.000000
   74  FE 1 XYZ   0.000000   0.000000   0.000000   0.000000   0.000000
   75  FE 1 XXX   0.000000   0.000000   0.000000   0.000000   0.000000
   76  FE 1 YYY   0.000000   0.000000   0.000000   0.000000   0.000000
   77  FE 1 ZZZ   0.000000   0.000000   0.000000   0.000000   0.000000
   78  FE 1 XXY   0.000000   0.000000   0.000000   0.000000   0.000000
   79  FE 1 XXZ   0.000000   0.000000   0.000000   0.000000   0.000000
   80  FE 1 YYX   0.000000   0.000000   0.000000   0.000000   0.000000
   81  FE 1 YYZ   0.000000   0.000000   0.000000   0.000000   0.000000
   82  FE 1 ZZX   0.000000   0.000000   0.000000   0.000000   0.000000
   83  FE 1 ZZY   0.000000   0.000000   0.000000   0.000000   0.000000
   84  FE 1 XYZ   0.000000   0.000000   0.000000   0.000000   0.000000
   85  FE 1XXXX   0.000034   0.002511   0.000000   0.000000   0.000000
   86  FE 1YYYY   0.000034   0.002511   0.000000   0.000000   0.000000
   87  FE 1ZZZZ   0.000047   0.003535   0.000000   0.000000   0.000000
   88  FE 1XXXY   0.000000   0.000000  -0.000902   0.000000   0.000000
   89  FE 1XXXZ   0.000000   0.000000   0.000000   0.000000  -0.003817
   90  FE 1YYYX   0.000000   0.000000  -0.000902   0.000000   0.000000
   91  FE 1YYYZ   0.000000   0.000000   0.000000  -0.003817   0.000000
   92  FE 1ZZZX   0.000000   0.000000   0.000000   0.000000   0.004028
   93  FE 1ZZZY   0.000000   0.000000   0.000000   0.004028   0.000000
   94  FE 1XXYY  -0.000018  -0.001306   0.000000   0.000000   0.000000
   95  FE 1XXZZ  -0.000042  -0.003105   0.000000   0.000000   0.000000
   96  FE 1YYZZ  -0.000042  -0.003105   0.000000   0.000000   0.000000
   97  FE 1XXYZ   0.000000   0.000000   0.000000  -0.000283   0.000000
   98  FE 1YYXZ   0.000000   0.000000   0.000000   0.000000  -0.000283
   99  FE 1ZZXY   0.000000   0.000000   0.002421   0.000000   0.000000
  100  FE 1XXXX   0.000121   0.001353   0.000000   0.000000   0.000000
  101  FE 1YYYY   0.000121   0.001353   0.000000   0.000000   0.000000
  102  FE 1ZZZZ   0.000028   0.001707   0.000000   0.000000   0.000000
  103  FE 1XXXY   0.000000   0.000000  -0.000419   0.000000   0.000000
  104  FE 1XXXZ   0.000000   0.000000   0.000000   0.000000  -0.001942
  105  FE 1YYYX   0.000000   0.000000  -0.000419   0.000000   0.000000
  106  FE 1YYYZ   0.000000   0.000000   0.000000  -0.001942   0.000000
  107  FE 1ZZZX   0.000000   0.000000   0.000000   0.000000   0.001954
  108  FE 1ZZZY   0.000000   0.000000   0.000000   0.001954   0.000000
  109  FE 1XXYY  -0.000189  -0.000877   0.000000   0.000000   0.000000
  110  FE 1XXZZ  -0.000025  -0.001499   0.000000   0.000000   0.000000
  111  FE 1YYZZ  -0.000025  -0.001499   0.000000   0.000000   0.000000
  112  FE 1XXYZ   0.000000   0.000000   0.000000  -0.000016   0.000000
  113  FE 1YYXZ   0.000000   0.000000   0.000000   0.000000  -0.000016
  114  FE 1ZZXY   0.000000   0.000000   0.001123   0.000000   0.000000
  115  FE 1  S    0.000042  -0.000526   0.000000   0.000000   0.000000
  116  FE 1  S   -0.000019   0.000373   0.000000   0.000000   0.000000
  117  FE 1  X    0.000000   0.000000   0.000000   0.000000   0.000000
  118  FE 1  Y    0.000000   0.000000   0.000000   0.000000   0.000000
  119  FE 1  Z    0.000000   0.000000   0.000000   0.000000   0.000000
  120  FE 1  X    0.000000   0.000000   0.000000   0.000000   0.000000
  121  FE 1  Y    0.000000   0.000000   0.000000   0.000000   0.000000
  122  FE 1  Z    0.000000   0.000000   0.000000   0.000000   0.000000
  123  FE 1 XX    0.000040   0.000297   0.000000   0.000000   0.000000
  124  FE 1 YY    0.000040   0.000297   0.000000   0.000000   0.000000
  125  FE 1 ZZ   -0.000080  -0.000594   0.000000   0.000000   0.000000
  126  FE 1 XY    0.000000   0.000000  -0.000422   0.000000   0.000000
  127  FE 1 XZ    0.000000   0.000000   0.000000   0.000000  -0.000562
  128  FE 1 YZ    0.000000   0.000000   0.000000  -0.000562   0.000000
  129  FE 1 XX    0.000006  -0.000380   0.000000   0.000000   0.000000
  130  FE 1 YY    0.000006  -0.000380   0.000000   0.000000   0.000000
  131  FE 1 ZZ   -0.000012   0.000760   0.000000   0.000000   0.000000
  132  FE 1 XY    0.000000   0.000000   0.000338   0.000000   0.000000
  133  FE 1 XZ    0.000000   0.000000   0.000000   0.000000   0.000658
  134  FE 1 YZ    0.000000   0.000000   0.000000   0.000658   0.000000
  135  FE 1 XXX   0.000000   0.000000   0.000000   0.000000   0.000000
  136  FE 1 YYY   0.000000   0.000000   0.000000   0.000000   0.000000
  137  FE 1 ZZZ   0.000000   0.000000   0.000000   0.000000   0.000000
  138  FE 1 XXY   0.000000   0.000000   0.000000   0.000000   0.000000
  139  FE 1 XXZ   0.000000   0.000000   0.000000   0.000000   0.000000
  140  FE 1 YYX   0.000000   0.000000   0.000000   0.000000   0.000000
  141  FE 1 YYZ   0.000000   0.000000   0.000000   0.000000   0.000000
  142  FE 1 ZZX   0.000000   0.000000   0.000000   0.000000   0.000000
  143  FE 1 ZZY   0.000000   0.000000   0.000000   0.000000   0.000000
  144  FE 1 XYZ   0.000000   0.000000   0.000000   0.000000   0.000000
  145  FE 1XXXX  -0.000040   0.000126   0.000000   0.000000   0.000000
  146  FE 1YYYY  -0.000040   0.000126   0.000000   0.000000   0.000000
  147  FE 1ZZZZ  -0.000006   0.000204   0.000000   0.000000   0.000000
  148  FE 1XXXY   0.000000   0.000000  -0.000053   0.000000   0.000000
  149  FE 1XXXZ   0.000000   0.000000   0.000000   0.000000  -0.000204
  150  FE 1YYYX   0.000000   0.000000  -0.000053   0.000000   0.000000
  151  FE 1YYYZ   0.000000   0.000000   0.000000  -0.000204   0.000000
  152  FE 1ZZZX   0.000000   0.000000   0.000000   0.000000   0.000229
  153  FE 1ZZZY   0.000000   0.000000   0.000000   0.000229   0.000000
  154  FE 1XXYY   0.000064  -0.000042   0.000000   0.000000   0.000000
  155  FE 1XXZZ   0.000006  -0.000179   0.000000   0.000000   0.000000
  156  FE 1YYZZ   0.000006  -0.000179   0.000000   0.000000   0.000000
  157  FE 1XXYZ   0.000000   0.000000   0.000000  -0.000034   0.000000
  158  FE 1YYXZ   0.000000   0.000000   0.000000   0.000000  -0.000034
  159  FE 1ZZXY   0.000000   0.000000   0.000142   0.000000   0.000000

                     11         12         13         14         15
                    0.0341     0.0341     0.0284     0.0645     0.1667
                     A          A          A          A          A   
    1  FE 1  S    0.000000   0.000000   0.000000  -0.489960   0.000000
    2  FE 1  S    0.000000   0.000000   0.000000  -3.726040   0.000000
    3  FE 1  S    0.000000   0.000000   0.000000   1.133517   0.000000
    4  FE 1  S    0.000000   0.000000   0.000000  -0.533806   0.000000
    5  FE 1  S    0.000000   0.000000   0.000000  -0.151092   0.000000
    6  FE 1  S    0.000000   0.000000   0.000000   4.342064   0.000000
    7  FE 1  X    0.007933   0.000000   0.000000   0.000000   0.000000
    8  FE 1  Y    0.000000   0.007933   0.000000   0.000000   0.000000
    9  FE 1  Z    0.000000   0.000000   0.006084   0.000000   0.225010
   10  FE 1  X    0.128563   0.000000   0.000000   0.000000   0.000000
   11  FE 1  Y    0.000000   0.128563   0.000000   0.000000   0.000000
   12  FE 1  Z    0.000000   0.000000   0.218266   0.000000  -2.188419
   13  FE 1  X    0.055986   0.000000   0.000000   0.000000   0.000000
   14  FE 1  Y    0.000000   0.055986   0.000000   0.000000   0.000000
   15  FE 1  Z    0.000000   0.000000   0.052587   0.000000   0.343331
   16  FE 1  X   -0.063749   0.000000   0.000000   0.000000   0.000000
   17  FE 1  Y    0.000000  -0.063749   0.000000   0.000000   0.000000
   18  FE 1  Z    0.000000   0.000000  -0.056951   0.000000  -0.330529
   19  FE 1  X    0.030998   0.000000   0.000000   0.000000   0.000000
   20  FE 1  Y    0.000000   0.030998   0.000000   0.000000   0.000000
   21  FE 1  Z    0.000000   0.000000   0.027520   0.000000   0.151397
   22  FE 1  X    0.941889   0.000000   0.000000   0.000000   0.000000
   23  FE 1  Y    0.000000   0.941889   0.000000   0.000000   0.000000
   24  FE 1  Z    0.000000   0.000000   0.856007   0.000000   2.274584
   25  FE 1 XX    0.000000   0.000000   0.000000   0.000624   0.000000
   26  FE 1 YY    0.000000   0.000000   0.000000   0.000624   0.000000
   27  FE 1 ZZ    0.000000   0.000000   0.000000  -0.001248   0.000000
   28  FE 1 XY    0.000000   0.000000   0.000000   0.000000   0.000000
   29  FE 1 XZ    0.000000   0.000000   0.000000   0.000000   0.000000
   30  FE 1 YZ    0.000000   0.000000   0.000000   0.000000   0.000000
   31  FE 1 XX    0.000000   0.000000   0.000000   0.004334   0.000000
   32  FE 1 YY    0.000000   0.000000   0.000000   0.004334   0.000000
   33  FE 1 ZZ    0.000000   0.000000   0.000000  -0.008668   0.000000
   34  FE 1 XY    0.000000   0.000000   0.000000   0.000000   0.000000
   35  FE 1 XZ    0.000000   0.000000   0.000000   0.000000   0.000000
   36  FE 1 YZ    0.000000   0.000000   0.000000   0.000000   0.000000
   37  FE 1 XX    0.000000   0.000000   0.000000   0.000355   0.000000
   38  FE 1 YY    0.000000   0.000000   0.000000   0.000355   0.000000
   39  FE 1 ZZ    0.000000   0.000000   0.000000  -0.000711   0.000000
   40  FE 1 XY    0.000000   0.000000   0.000000   0.000000   0.000000
   41  FE 1 XZ    0.000000   0.000000   0.000000   0.000000   0.000000
   42  FE 1 YZ    0.000000   0.000000   0.000000   0.000000   0.000000
   43  FE 1 XX    0.000000   0.000000   0.000000  -0.000238   0.000000
   44  FE 1 YY    0.000000   0.000000   0.000000  -0.000238   0.000000
   45  FE 1 ZZ    0.000000   0.000000   0.000000   0.000477   0.000000
   46  FE 1 XY    0.000000   0.000000   0.000000   0.000000   0.000000
   47  FE 1 XZ    0.000000   0.000000   0.000000   0.000000   0.000000
   48  FE 1 YZ    0.000000   0.000000   0.000000   0.000000   0.000000
   49  FE 1 XX    0.000000   0.000000   0.000000   0.000589   0.000000
   50  FE 1 YY    0.000000   0.000000   0.000000   0.000589   0.000000
   51  FE 1 ZZ    0.000000   0.000000   0.000000  -0.001178   0.000000
   52  FE 1 XY    0.000000   0.000000   0.000000   0.000000   0.000000
   53  FE 1 XZ    0.000000   0.000000   0.000000   0.000000   0.000000
   54  FE 1 YZ    0.000000   0.000000   0.000000   0.000000   0.000000
   55  FE 1 XXX  -0.003229   0.000000   0.000000   0.000000   0.000000
   56  FE 1 YYY   0.000000  -0.003229   0.000000   0.000000   0.000000
   57  FE 1 ZZZ   0.000000   0.000000   0.003150   0.000000  -0.004407
   58  FE 1 XXY   0.000000   0.001228   0.000000   0.000000   0.000000
   59  FE 1 XXZ   0.000000   0.000000  -0.002113   0.000000   0.002956
   60  FE 1 YYX   0.001228   0.000000   0.000000   0.000000   0.000000
   61  FE 1 YYZ   0.000000   0.000000  -0.002113   0.000000   0.002956
   62  FE 1 ZZX   0.003104   0.000000   0.000000   0.000000   0.000000
   63  FE 1 ZZY   0.000000   0.003104   0.000000   0.000000   0.000000
   64  FE 1 XYZ   0.000000   0.000000   0.000000   0.000000   0.000000
   65  FE 1 XXX   0.000428   0.000000   0.000000   0.000000   0.000000
   66  FE 1 YYY   0.000000   0.000428   0.000000   0.000000   0.000000
   67  FE 1 ZZZ   0.000000   0.000000  -0.000520   0.000000   0.000553
   68  FE 1 XXY   0.000000  -0.000060   0.000000   0.000000   0.000000
   69  FE 1 XXZ   0.000000   0.000000   0.000349   0.000000  -0.000371
   70  FE 1 YYX  -0.000060   0.000000   0.000000   0.000000   0.000000
   71  FE 1 YYZ   0.000000   0.000000   0.000349   0.000000  -0.000371
   72  FE 1 ZZX  -0.000514   0.000000   0.000000   0.000000   0.000000
   73  FE 1 ZZY   0.000000  -0.000514   0.000000   0.000000   0.000000
   74  FE 1 XYZ   0.000000   0.000000   0.000000   0.000000   0.000000
   75  FE 1 XXX   0.000339   0.000000   0.000000   0.000000   0.000000
   76  FE 1 YYY   0.000000   0.000339   0.000000   0.000000   0.000000
   77  FE 1 ZZZ   0.000000   0.000000  -0.000268   0.000000   0.000312
   78  FE 1 XXY   0.000000  -0.000165   0.000000   0.000000   0.000000
   79  FE 1 XXZ   0.000000   0.000000   0.000180   0.000000  -0.000209
   80  FE 1 YYX  -0.000165   0.000000   0.000000   0.000000   0.000000
   81  FE 1 YYZ   0.000000   0.000000   0.000180   0.000000  -0.000209
   82  FE 1 ZZX  -0.000290   0.000000   0.000000   0.000000   0.000000
   83  FE 1 ZZY   0.000000  -0.000290   0.000000   0.000000   0.000000
   84  FE 1 XYZ   0.000000   0.000000   0.000000   0.000000   0.000000
   85  FE 1XXXX   0.000000   0.000000   0.000000   0.000646   0.000000
   86  FE 1YYYY   0.000000   0.000000   0.000000   0.000646   0.000000
   87  FE 1ZZZZ   0.000000   0.000000   0.000000   0.000120   0.000000
   88  FE 1XXXY   0.000000   0.000000   0.000000   0.000000   0.000000
   89  FE 1XXXZ   0.000000   0.000000   0.000000   0.000000   0.000000
   90  FE 1YYYX   0.000000   0.000000   0.000000   0.000000   0.000000
   91  FE 1YYYZ   0.000000   0.000000   0.000000   0.000000   0.000000
   92  FE 1ZZZX   0.000000   0.000000   0.000000   0.000000   0.000000
   93  FE 1ZZZY   0.000000   0.000000   0.000000   0.000000   0.000000
   94  FE 1XXYY   0.000000   0.000000   0.000000  -0.001029   0.000000
   95  FE 1XXZZ   0.000000   0.000000   0.000000  -0.000106   0.000000
   96  FE 1YYZZ   0.000000   0.000000   0.000000  -0.000106   0.000000
   97  FE 1XXYZ   0.000000   0.000000   0.000000   0.000000   0.000000
   98  FE 1YYXZ   0.000000   0.000000   0.000000   0.000000   0.000000
   99  FE 1ZZXY   0.000000   0.000000   0.000000   0.000000   0.000000
  100  FE 1XXXX   0.000000   0.000000   0.000000  -0.000159   0.000000
  101  FE 1YYYY   0.000000   0.000000   0.000000  -0.000159   0.000000
  102  FE 1ZZZZ   0.000000   0.000000   0.000000  -0.000023   0.000000
  103  FE 1XXXY   0.000000   0.000000   0.000000   0.000000   0.000000
  104  FE 1XXXZ   0.000000   0.000000   0.000000   0.000000   0.000000
  105  FE 1YYYX   0.000000   0.000000   0.000000   0.000000   0.000000
  106  FE 1YYYZ   0.000000   0.000000   0.000000   0.000000   0.000000
  107  FE 1ZZZX   0.000000   0.000000   0.000000   0.000000   0.000000
  108  FE 1ZZZY   0.000000   0.000000   0.000000   0.000000   0.000000
  109  FE 1XXYY   0.000000   0.000000   0.000000   0.000259   0.000000
  110  FE 1XXZZ   0.000000   0.000000   0.000000   0.000020   0.000000
  111  FE 1YYZZ   0.000000   0.000000   0.000000   0.000020   0.000000
  112  FE 1XXYZ   0.000000   0.000000   0.000000   0.000000   0.000000
  113  FE 1YYXZ   0.000000   0.000000   0.000000   0.000000   0.000000
  114  FE 1ZZXY   0.000000   0.000000   0.000000   0.000000   0.000000
  115  FE 1  S    0.000000   0.000000   0.000000  -0.478921   0.000000
  116  FE 1  S    0.000000   0.000000   0.000000   0.201872   0.000000
  117  FE 1  X   -0.093741   0.000000   0.000000   0.000000   0.000000
  118  FE 1  Y    0.000000  -0.093741   0.000000   0.000000   0.000000
  119  FE 1  Z    0.000000   0.000000  -0.083531   0.000000  -0.440988
  120  FE 1  X    0.015490   0.000000   0.000000   0.000000   0.000000
  121  FE 1  Y    0.000000   0.015490   0.000000   0.000000   0.000000
  122  FE 1  Z    0.000000   0.000000   0.013815   0.000000   0.075100
  123  FE 1 XX    0.000000   0.000000   0.000000   0.000005   0.000000
  124  FE 1 YY    0.000000   0.000000   0.000000   0.000005   0.000000
  125  FE 1 ZZ    0.000000   0.000000   0.000000  -0.000010   0.000000
  126  FE 1 XY    0.000000   0.000000   0.000000   0.000000   0.000000
  127  FE 1 XZ    0.000000   0.000000   0.000000   0.000000   0.000000
  128  FE 1 YZ    0.000000   0.000000   0.000000   0.000000   0.000000
  129  FE 1 XX    0.000000   0.000000   0.000000  -0.000050   0.000000
  130  FE 1 YY    0.000000   0.000000   0.000000  -0.000050   0.000000
  131  FE 1 ZZ    0.000000   0.000000   0.000000   0.000101   0.000000
  132  FE 1 XY    0.000000   0.000000   0.000000   0.000000   0.000000
  133  FE 1 XZ    0.000000   0.000000   0.000000   0.000000   0.000000
  134  FE 1 YZ    0.000000   0.000000   0.000000   0.000000   0.000000
  135  FE 1 XXX   0.000173   0.000000   0.000000   0.000000   0.000000
  136  FE 1 YYY   0.000000   0.000173   0.000000   0.000000   0.000000
  137  FE 1 ZZZ   0.000000   0.000000  -0.000039   0.000000   0.000152
  138  FE 1 XXY   0.000000  -0.000169   0.000000   0.000000   0.000000
  139  FE 1 XXZ   0.000000   0.000000   0.000026   0.000000  -0.000102
  140  FE 1 YYX  -0.000169   0.000000   0.000000   0.000000   0.000000
  141  FE 1 YYZ   0.000000   0.000000   0.000026   0.000000  -0.000102
  142  FE 1 ZZX  -0.000063   0.000000   0.000000   0.000000   0.000000
  143  FE 1 ZZY   0.000000  -0.000063   0.000000   0.000000   0.000000
  144  FE 1 XYZ   0.000000   0.000000   0.000000   0.000000   0.000000
  145  FE 1XXXX   0.000000   0.000000   0.000000  -0.000022   0.000000
  146  FE 1YYYY   0.000000   0.000000   0.000000  -0.000022   0.000000
  147  FE 1ZZZZ   0.000000   0.000000   0.000000  -0.000004   0.000000
  148  FE 1XXXY   0.000000   0.000000   0.000000   0.000000   0.000000
  149  FE 1XXXZ   0.000000   0.000000   0.000000   0.000000   0.000000
  150  FE 1YYYX   0.000000   0.000000   0.000000   0.000000   0.000000
  151  FE 1YYYZ   0.000000   0.000000   0.000000   0.000000   0.000000
  152  FE 1ZZZX   0.000000   0.000000   0.000000   0.000000   0.000000
  153  FE 1ZZZY   0.000000   0.000000   0.000000   0.000000   0.000000
  154  FE 1XXYY   0.000000   0.000000   0.000000   0.000035   0.000000
  155  FE 1XXZZ   0.000000   0.000000   0.000000   0.000003   0.000000
  156  FE 1YYZZ   0.000000   0.000000   0.000000   0.000003   0.000000
  157  FE 1XXYZ   0.000000   0.000000   0.000000   0.000000   0.000000
  158  FE 1YYXZ   0.000000   0.000000   0.000000   0.000000   0.000000
  159  FE 1ZZXY   0.000000   0.000000   0.000000   0.000000   0.000000

                     16         17         18         19         20
                    0.1750     0.1750     0.2344     0.2344     0.2361
                     A          A          A          A          A   
    1  FE 1  S    0.000000   0.000000   0.000000   0.000000   0.000000
    2  FE 1  S    0.000000   0.000000   0.000000   0.000000   0.000000
    3  FE 1  S    0.000000   0.000000   0.000000   0.000000   0.000000
    4  FE 1  S    0.000000   0.000000   0.000000   0.000000   0.000000
    5  FE 1  S    0.000000   0.000000   0.000000   0.000000   0.000000
    6  FE 1  S    0.000000   0.000000   0.000000   0.000000   0.000000
    7  FE 1  X    0.000000   0.241159   0.000000   0.000000   0.000000
    8  FE 1  Y    0.241159   0.000000   0.000000   0.000000   0.000000
    9  FE 1  Z    0.000000   0.000000   0.000000   0.000000   0.000000
   10  FE 1  X    0.000000  -2.211846   0.000000   0.000000   0.000000
   11  FE 1  Y   -2.211846   0.000000   0.000000   0.000000   0.000000
   12  FE 1  Z    0.000000   0.000000   0.000000   0.000000   0.000000
   13  FE 1  X    0.000000   0.363451   0.000000   0.000000   0.000000
   14  FE 1  Y    0.363451   0.000000   0.000000   0.000000   0.000000
   15  FE 1  Z    0.000000   0.000000   0.000000   0.000000   0.000000
   16  FE 1  X    0.000000  -0.344056   0.000000   0.000000   0.000000
   17  FE 1  Y   -0.344056   0.000000   0.000000   0.000000   0.000000
   18  FE 1  Z    0.000000   0.000000   0.000000   0.000000   0.000000
   19  FE 1  X    0.000000   0.156930   0.000000   0.000000   0.000000
   20  FE 1  Y    0.156930   0.000000   0.000000   0.000000   0.000000
   21  FE 1  Z    0.000000   0.000000   0.000000   0.000000   0.000000
   22  FE 1  X    0.000000   2.263389   0.000000   0.000000   0.000000
   23  FE 1  Y    2.263389   0.000000   0.000000   0.000000   0.000000
   24  FE 1  Z    0.000000   0.000000   0.000000   0.000000   0.000000
   25  FE 1 XX    0.000000   0.000000   0.000000   0.000000   0.000000
   26  FE 1 YY    0.000000   0.000000   0.000000   0.000000   0.000000
   27  FE 1 ZZ    0.000000   0.000000   0.000000   0.000000   0.000000
   28  FE 1 XY    0.000000   0.000000   0.000000   0.000000  -0.472932
   29  FE 1 XZ    0.000000   0.000000  -0.463813   0.000000   0.000000
   30  FE 1 YZ    0.000000   0.000000   0.000000  -0.463813   0.000000
   31  FE 1 XX    0.000000   0.000000   0.000000   0.000000   0.000000
   32  FE 1 YY    0.000000   0.000000   0.000000   0.000000   0.000000
   33  FE 1 ZZ    0.000000   0.000000   0.000000   0.000000   0.000000
   34  FE 1 XY    0.000000   0.000000   0.000000   0.000000  -0.485311
   35  FE 1 XZ    0.000000   0.000000  -0.476850   0.000000   0.000000
   36  FE 1 YZ    0.000000   0.000000   0.000000  -0.476850   0.000000
   37  FE 1 XX    0.000000   0.000000   0.000000   0.000000   0.000000
   38  FE 1 YY    0.000000   0.000000   0.000000   0.000000   0.000000
   39  FE 1 ZZ    0.000000   0.000000   0.000000   0.000000   0.000000
   40  FE 1 XY    0.000000   0.000000   0.000000   0.000000  -0.406668
   41  FE 1 XZ    0.000000   0.000000  -0.401621   0.000000   0.000000
   42  FE 1 YZ    0.000000   0.000000   0.000000  -0.401621   0.000000
   43  FE 1 XX    0.000000   0.000000   0.000000   0.000000   0.000000
   44  FE 1 YY    0.000000   0.000000   0.000000   0.000000   0.000000
   45  FE 1 ZZ    0.000000   0.000000   0.000000   0.000000   0.000000
   46  FE 1 XY    0.000000   0.000000   0.000000   0.000000  -0.169036
   47  FE 1 XZ    0.000000   0.000000  -0.167372   0.000000   0.000000
   48  FE 1 YZ    0.000000   0.000000   0.000000  -0.167372   0.000000
   49  FE 1 XX    0.000000   0.000000   0.000000   0.000000   0.000000
   50  FE 1 YY    0.000000   0.000000   0.000000   0.000000   0.000000
   51  FE 1 ZZ    0.000000   0.000000   0.000000   0.000000   0.000000
   52  FE 1 XY    0.000000   0.000000   0.000000   0.000000   1.732812
   53  FE 1 XZ    0.000000   0.000000   1.722365   0.000000   0.000000
   54  FE 1 YZ    0.000000   0.000000   0.000000   1.722365   0.000000
   55  FE 1 XXX   0.000000   0.005032   0.000000   0.000000   0.000000
   56  FE 1 YYY   0.005032   0.000000   0.000000   0.000000   0.000000
   57  FE 1 ZZZ   0.000000   0.000000   0.000000   0.000000   0.000000
   58  FE 1 XXY  -0.001990   0.000000   0.000000   0.000000   0.000000
   59  FE 1 XXZ   0.000000   0.000000   0.000000   0.000000   0.000000
   60  FE 1 YYX   0.000000  -0.001990   0.000000   0.000000   0.000000
   61  FE 1 YYZ   0.000000   0.000000   0.000000   0.000000   0.000000
   62  FE 1 ZZX   0.000000  -0.004761   0.000000   0.000000   0.000000
   63  FE 1 ZZY  -0.004761   0.000000   0.000000   0.000000   0.000000
   64  FE 1 XYZ   0.000000   0.000000   0.000000   0.000000   0.000000
   65  FE 1 XXX   0.000000  -0.000494   0.000000   0.000000   0.000000
   66  FE 1 YYY  -0.000494   0.000000   0.000000   0.000000   0.000000
   67  FE 1 ZZZ   0.000000   0.000000   0.000000   0.000000   0.000000
   68  FE 1 XXY   0.000060   0.000000   0.000000   0.000000   0.000000
   69  FE 1 XXZ   0.000000   0.000000   0.000000   0.000000   0.000000
   70  FE 1 YYX   0.000000   0.000060   0.000000   0.000000   0.000000
   71  FE 1 YYZ   0.000000   0.000000   0.000000   0.000000   0.000000
   72  FE 1 ZZX   0.000000   0.000602   0.000000   0.000000   0.000000
   73  FE 1 ZZY   0.000602   0.000000   0.000000   0.000000   0.000000
   74  FE 1 XYZ   0.000000   0.000000   0.000000   0.000000   0.000000
   75  FE 1 XXX   0.000000  -0.000452   0.000000   0.000000   0.000000
   76  FE 1 YYY  -0.000452   0.000000   0.000000   0.000000   0.000000
[...]
  150  FE 1YYYX   0.473623   0.000000   0.000000   0.000000   0.000000
  151  FE 1YYYZ   0.000000   0.000000   0.234366   0.000000   0.000000
  152  FE 1ZZZX   0.000000  -0.471337   0.000000   0.000000   0.000000
  153  FE 1ZZZY   0.000000   0.000000  -0.471337   0.000000   0.000000
  154  FE 1XXYY   0.000000   0.000000   0.000000   0.000000   0.000000
  155  FE 1XXZZ   0.000000   0.000000   0.000000   0.000000   0.000000
  156  FE 1YYZZ   0.000000   0.000000   0.000000   0.000000   0.000000
  157  FE 1XXYZ   0.000000   0.000000   0.317931   0.000000   0.000000
  158  FE 1YYXZ   0.000000   0.317931   0.000000   0.000000   0.000000
  159  FE 1ZZXY   0.000000   0.000000   0.000000   0.000000   0.000000

                    121        122
                   12.3568    12.3600
                     A          A   
    1  FE 1  S    0.000000   0.000000
    2  FE 1  S    0.000000   0.000000
    3  FE 1  S    0.000000   0.000000
    4  FE 1  S    0.000000   0.000000
    5  FE 1  S    0.000000   0.000000
    6  FE 1  S    0.000000   0.000000
    7  FE 1  X    0.000000   0.000000
    8  FE 1  Y   -0.011709   0.000000
    9  FE 1  Z    0.000000   0.000000
   10  FE 1  X    0.000000   0.000000
   11  FE 1  Y    0.003396   0.000000
   12  FE 1  Z    0.000000   0.000000
   13  FE 1  X    0.000000   0.000000
   14  FE 1  Y    0.005036   0.000000
   15  FE 1  Z    0.000000   0.000000
   16  FE 1  X    0.000000   0.000000
   17  FE 1  Y    0.003308   0.000000
   18  FE 1  Z    0.000000   0.000000
   19  FE 1  X    0.000000   0.000000
   20  FE 1  Y    0.001240   0.000000
   21  FE 1  Z    0.000000   0.000000
   22  FE 1  X    0.000000   0.000000
   23  FE 1  Y   -0.000925   0.000000
   24  FE 1  Z    0.000000   0.000000
   25  FE 1 XX    0.000000   0.000000
   26  FE 1 YY    0.000000   0.000000
   27  FE 1 ZZ    0.000000   0.000000
   28  FE 1 XY    0.000000   0.000000
   29  FE 1 XZ    0.000000   0.000000
   30  FE 1 YZ    0.000000   0.000000
   31  FE 1 XX    0.000000   0.000000
   32  FE 1 YY    0.000000   0.000000
   33  FE 1 ZZ    0.000000   0.000000
   34  FE 1 XY    0.000000   0.000000
   35  FE 1 XZ    0.000000   0.000000
   36  FE 1 YZ    0.000000   0.000000
   37  FE 1 XX    0.000000   0.000000
   38  FE 1 YY    0.000000   0.000000
   39  FE 1 ZZ    0.000000   0.000000
   40  FE 1 XY    0.000000   0.000000
   41  FE 1 XZ    0.000000   0.000000
   42  FE 1 YZ    0.000000   0.000000
   43  FE 1 XX    0.000000   0.000000
   44  FE 1 YY    0.000000   0.000000
   45  FE 1 ZZ    0.000000   0.000000
   46  FE 1 XY    0.000000   0.000000
   47  FE 1 XZ    0.000000   0.000000
   48  FE 1 YZ    0.000000   0.000000
   49  FE 1 XX    0.000000   0.000000
   50  FE 1 YY    0.000000   0.000000
   51  FE 1 ZZ    0.000000   0.000000
   52  FE 1 XY    0.000000   0.000000
   53  FE 1 XZ    0.000000   0.000000
   54  FE 1 YZ    0.000000   0.000000
   55  FE 1 XXX   0.000000   0.000000
   56  FE 1 YYY  -0.134657   0.000000
   57  FE 1 ZZZ   0.000000   0.000000
   58  FE 1 XXY  -0.163394   0.000000
   59  FE 1 XXZ   0.000000   0.000000
   60  FE 1 YYX   0.000000   0.000000
   61  FE 1 YYZ   0.000000   0.000000
   62  FE 1 ZZX   0.000000   0.000000
   63  FE 1 ZZY   0.344055   0.000000
   64  FE 1 XYZ   0.000000   0.322436
   65  FE 1 XXX   0.000000   0.000000
   66  FE 1 YYY   0.603211   0.000000
   67  FE 1 ZZZ   0.000000   0.000000
   68  FE 1 XXY   0.731800   0.000000
   69  FE 1 XXZ   0.000000   0.000000
   70  FE 1 YYX   0.000000   0.000000
   71  FE 1 YYZ   0.000000   0.000000
   72  FE 1 ZZX   0.000000   0.000000
   73  FE 1 ZZY  -1.541093   0.000000
   74  FE 1 XYZ   0.000000  -1.444309
   75  FE 1 XXX   0.000000   0.000000
   76  FE 1 YYY   0.151304   0.000000
   77  FE 1 ZZZ   0.000000   0.000000
   78  FE 1 XXY   0.183279   0.000000
   79  FE 1 XXZ   0.000000   0.000000
   80  FE 1 YYX   0.000000   0.000000
   81  FE 1 YYZ   0.000000   0.000000
   82  FE 1 ZZX   0.000000   0.000000
   83  FE 1 ZZY  -0.386275   0.000000
   84  FE 1 XYZ   0.000000  -0.361953
   85  FE 1XXXX   0.000000   0.000000
   86  FE 1YYYY   0.000000   0.000000
   87  FE 1ZZZZ   0.000000   0.000000
   88  FE 1XXXY   0.000000   0.000000
   89  FE 1XXXZ   0.000000   0.000000
   90  FE 1YYYX   0.000000   0.000000
   91  FE 1YYYZ   0.000000   0.000000
   92  FE 1ZZZX   0.000000   0.000000
   93  FE 1ZZZY   0.000000   0.000000
   94  FE 1XXYY   0.000000   0.000000
   95  FE 1XXZZ   0.000000   0.000000
   96  FE 1YYZZ   0.000000   0.000000
   97  FE 1XXYZ   0.000000   0.000000
   98  FE 1YYXZ   0.000000   0.000000
   99  FE 1ZZXY   0.000000   0.000000
  100  FE 1XXXX   0.000000   0.000000
  101  FE 1YYYY   0.000000   0.000000
  102  FE 1ZZZZ   0.000000   0.000000
  103  FE 1XXXY   0.000000   0.000000
  104  FE 1XXXZ   0.000000   0.000000
  105  FE 1YYYX   0.000000   0.000000
  106  FE 1YYYZ   0.000000   0.000000
  107  FE 1ZZZX   0.000000   0.000000
  108  FE 1ZZZY   0.000000   0.000000
  109  FE 1XXYY   0.000000   0.000000
  110  FE 1XXZZ   0.000000   0.000000
  111  FE 1YYZZ   0.000000   0.000000
  112  FE 1XXYZ   0.000000   0.000000
  113  FE 1YYXZ   0.000000   0.000000
  114  FE 1ZZXY   0.000000   0.000000
  115  FE 1  S    0.000000   0.000000
  116  FE 1  S    0.000000   0.000000
  117  FE 1  X    0.000000   0.000000
  118  FE 1  Y    0.012628   0.000000
  119  FE 1  Z    0.000000   0.000000
  120  FE 1  X    0.000000   0.000000
  121  FE 1  Y   -0.002077   0.000000
  122  FE 1  Z    0.000000   0.000000
  123  FE 1 XX    0.000000   0.000000
  124  FE 1 YY    0.000000   0.000000
  125  FE 1 ZZ    0.000000   0.000000
  126  FE 1 XY    0.000000   0.000000
  127  FE 1 XZ    0.000000   0.000000
  128  FE 1 YZ    0.000000   0.000000
  129  FE 1 XX    0.000000   0.000000
  130  FE 1 YY    0.000000   0.000000
  131  FE 1 ZZ    0.000000   0.000000
  132  FE 1 XY    0.000000   0.000000
  133  FE 1 XZ    0.000000   0.000000
  134  FE 1 YZ    0.000000   0.000000
  135  FE 1 XXX   0.000000   0.000000
  136  FE 1 YYY  -0.846821   0.000000
  137  FE 1 ZZZ   0.000000   0.000000
  138  FE 1 XXY  -1.026721   0.000000
  139  FE 1 XXZ   0.000000   0.000000
  140  FE 1 YYX   0.000000   0.000000
  141  FE 1 YYZ   0.000000   0.000000
  142  FE 1 ZZX   0.000000   0.000000
  143  FE 1 ZZY   2.162851   0.000000
  144  FE 1 XYZ   0.000000   2.026873
  145  FE 1XXXX   0.000000   0.000000
  146  FE 1YYYY   0.000000   0.000000
  147  FE 1ZZZZ   0.000000   0.000000
  148  FE 1XXXY   0.000000   0.000000
  149  FE 1XXXZ   0.000000   0.000000
  150  FE 1YYYX   0.000000   0.000000
  151  FE 1YYYZ   0.000000   0.000000
  152  FE 1ZZZX   0.000000   0.000000
  153  FE 1ZZZY   0.000000   0.000000
  154  FE 1XXYY   0.000000   0.000000
  155  FE 1XXZZ   0.000000   0.000000
  156  FE 1YYZZ   0.000000   0.000000
  157  FE 1XXYZ   0.000000   0.000000
  158  FE 1YYXZ   0.000000   0.000000
  159  FE 1ZZXY   0.000000   0.000000
 ...... END OF ROHF CALCULATION ......
 STEP CPU TIME =     8.85 TOTAL CPU TIME =      330.3 (    5.5 MIN)
 TOTAL WALL CLOCK TIME=      331.2 SECONDS, CPU UTILIZATION IS  99.73%

     ----------------------------------------------------------------
     PROPERTY VALUES FOR THE ROHF  SELF-CONSISTENT FIELD WAVEFUNCTION
     ----------------------------------------------------------------

          -----------------
          ENERGY COMPONENTS
          -----------------

         WAVEFUNCTION NORMALIZATION =       1.0000000000

                ONE ELECTRON ENERGY =    -215.8045196761
                TWO ELECTRON ENERGY =      93.1572373932
           NUCLEAR REPULSION ENERGY =       0.0000000000
                                      ------------------
                       TOTAL ENERGY =    -122.6472822829

 ELECTRON-ELECTRON POTENTIAL ENERGY =      93.1572373932
  NUCLEUS-ELECTRON POTENTIAL ENERGY =    -287.6639572238
   NUCLEUS-NUCLEUS POTENTIAL ENERGY =       0.0000000000
                                      ------------------
             TOTAL POTENTIAL ENERGY =    -194.5067198306
               TOTAL KINETIC ENERGY =      71.8594375477
                 VIRIAL RATIO (V/T) =       2.7067665218

          ---------------------------------------
          MULLIKEN AND LOWDIN POPULATION ANALYSES
          ---------------------------------------

     ATOMIC MULLIKEN POPULATION IN EACH MOLECULAR ORBITAL

                      1          2          3          4          5

                  2.000000   2.000000   2.000000   2.000000   2.000000

    1             2.000000   2.000000   2.000000   2.000000   2.000000

                      6          7          8          9         10

                  2.000000   1.000000   1.000000   1.000000   1.000000

    1             2.000000   1.000000   1.000000   1.000000   1.000000

          MULLIKEN SPHERICAL HARMONIC POPULATIONS
       ATOM           S       P       D      F      G      H      I    TOTAL
    1 FE            2.00    3.00    5.00   0.00   0.00   0.00   0.00   10.00

          MULLIKEN SPHERICAL HARMONIC POPULATIONS
       ATOM           S       P       D      F      G      H      I    TOTAL
    1 FE            2.00    3.00    1.00   0.00   0.00   0.00   0.00    6.00

     ATOMIC SPIN POPULATION (ALPHA MINUS BETA)
       ATOM         MULL.POP.                    LOW.POP.
    1 FE            4.000000                     4.000000

               ----- POPULATIONS IN EACH AO -----
                             MULLIKEN      LOWDIN
              1  FE 1  S      1.99977     0.22419
              2  FE 1  S      1.99998     0.41203
              3  FE 1  S      0.00004     0.00347
              4  FE 1  S      0.00000     0.00929
              5  FE 1  S      0.00000     0.00267
              6  FE 1  S     -0.00058     0.27787
              7  FE 1  X      2.00175     0.33592
              8  FE 1  Y      2.00175     0.33592
              9  FE 1  Z      1.99986     0.33592
             10  FE 1  X      0.00032     0.00007
             11  FE 1  Y      0.00032     0.00007
             12  FE 1  Z      0.00021     0.00004
             13  FE 1  X     -0.00019     0.00162
             14  FE 1  Y     -0.00019     0.00162
             15  FE 1  Z     -0.00021     0.00152
             16  FE 1  X     -0.00000     0.00086
             17  FE 1  Y     -0.00000     0.00086
             18  FE 1  Z      0.00000     0.00090
             19  FE 1  X     -0.00000     0.00029
             20  FE 1  Y     -0.00000     0.00029
             21  FE 1  Z     -0.00000     0.00028
             22  FE 1  X     -0.00067     0.00056
             23  FE 1  Y     -0.00067     0.00056
             24  FE 1  Z     -0.00056     0.00054
             25  FE 1 XX      0.98667     0.49787
             26  FE 1 YY      2.00105     0.49787
             27  FE 1 ZZ      0.99001     0.33965
             28  FE 1 XY      0.98737     0.29086
             29  FE 1 XZ      0.98737     0.28956
             30  FE 1 YZ      0.00000     0.28956
             31  FE 1 XX      0.01384     0.18705
             32  FE 1 YY      0.00729     0.18705
             33  FE 1 ZZ      0.01090     0.20244
             34  FE 1 XY      0.01286     0.00013
             35  FE 1 XZ      0.01286     0.00033
             36  FE 1 YZ      0.00000     0.00033
             37  FE 1 XX      0.00130     0.01880
             38  FE 1 YY      0.00131     0.01880
             39  FE 1 ZZ      0.00115     0.02004
             40  FE 1 XY      0.00125     0.00010
             41  FE 1 XZ      0.00125     0.00012
             42  FE 1 YZ      0.00000     0.00012
             43  FE 1 XX      0.00000     0.00975
             44  FE 1 YY      0.00004     0.00975
             45  FE 1 ZZ      0.00000     0.00841
             46  FE 1 XY      0.00000     0.00217
             47  FE 1 XZ      0.00000     0.00204
             48  FE 1 YZ      0.00000     0.00204
             49  FE 1 XX     -0.00139     0.15968
             50  FE 1 YY     -0.00814     0.15968
             51  FE 1 ZZ     -0.00199     0.16055
             52  FE 1 XY     -0.00156     0.01034
             53  FE 1 XZ     -0.00156     0.00960
             54  FE 1 YZ      0.00000     0.00960
             55  FE 1 XXX     0.00002     0.04658
             56  FE 1 YYY     0.00000     0.04658
             57  FE 1 ZZZ    -0.00000     0.04516
             58  FE 1 XXY     0.00000     0.01732
             59  FE 1 XXZ    -0.00000     0.01780
             60  FE 1 YYX     0.00000     0.01732
             61  FE 1 YYZ     0.00002     0.01780
             62  FE 1 ZZX     0.00000     0.01850
             63  FE 1 ZZY     0.00000     0.01850
             64  FE 1 XYZ     0.00000     0.00000
             65  FE 1 XXX     0.00004     0.26691
             66  FE 1 YYY     0.00000     0.26691
             67  FE 1 ZZZ     0.00000     0.26681
             68  FE 1 XXY     0.00002     0.10333
             69  FE 1 XXZ     0.00000     0.10518
             70  FE 1 YYX     0.00000     0.10333
             71  FE 1 YYZ     0.00004     0.10518
             72  FE 1 ZZX     0.00000     0.10794
             73  FE 1 ZZY     0.00000     0.10794
             74  FE 1 XYZ     0.00000     0.00000
             75  FE 1 XXX     0.00001     0.18468
             76  FE 1 YYY     0.00000     0.18468
             77  FE 1 ZZZ     0.00000     0.18557
             78  FE 1 XXY     0.00000     0.07451
             79  FE 1 XXZ     0.00000     0.07551
             80  FE 1 YYX     0.00000     0.07451
             81  FE 1 YYZ     0.00001     0.07551
             82  FE 1 ZZX     0.00000     0.07646
             83  FE 1 ZZY     0.00000     0.07646
             84  FE 1 XYZ     0.00000     0.00000
             85  FE 1XXXX     0.00000     0.27884
             86  FE 1YYYY     0.00000     0.27884
             87  FE 1ZZZZ     0.00001     0.17645
             88  FE 1XXXY     0.00001     0.10445
             89  FE 1XXXZ     0.00001     0.10243
             90  FE 1YYYX     0.00001     0.10445
             91  FE 1YYYZ     0.00001     0.10243
             92  FE 1ZZZX     0.00000     0.10587
             93  FE 1ZZZY     0.00000     0.10587
             94  FE 1XXYY     0.00000     0.07571
             95  FE 1XXZZ     0.00000     0.10116
             96  FE 1YYZZ     0.00000     0.10116
             97  FE 1XXYZ     0.00000     0.04417
             98  FE 1YYXZ     0.00000     0.04417
             99  FE 1ZZXY     0.00000     0.04550
            100  FE 1XXXX     0.00000     0.22099
            101  FE 1YYYY     0.00000     0.22099
            102  FE 1ZZZZ     0.00000     0.15754
            103  FE 1XXXY     0.00000     0.07426
            104  FE 1XXXZ     0.00001     0.07404
            105  FE 1YYYX     0.00000     0.07426
            106  FE 1YYYZ     0.00000     0.07404
            107  FE 1ZZZX     0.00000     0.07577
            108  FE 1ZZZY     0.00000     0.07577
            109  FE 1XXYY     0.00000     0.08854
            110  FE 1XXZZ     0.00000     0.10394
            111  FE 1YYZZ     0.00000     0.10394
            112  FE 1XXYZ     0.00000     0.03252
            113  FE 1YYXZ     0.00000     0.03252
            114  FE 1ZZXY     0.00000     0.03277
            115  FE 1  S      0.00045     0.12349
            116  FE 1  S     -0.00022     0.05368
            117  FE 1  X     -0.00146     0.25707
            118  FE 1  Y     -0.00146     0.25707
            119  FE 1  Z      0.00084     0.25775
            120  FE 1  X      0.00017     0.06542
            121  FE 1  Y      0.00017     0.06542
            122  FE 1  Z     -0.00017     0.06550
            123  FE 1 XX     -0.00048     0.18795
            124  FE 1 YY     -0.00116     0.18795
            125  FE 1 ZZ     -0.00034     0.14609
            126  FE 1 XY     -0.00045     0.09000
            127  FE 1 XZ     -0.00045     0.09093
            128  FE 1 YZ      0.00000     0.09093
            129  FE 1 XX      0.00058     0.17151
            130  FE 1 YY     -0.00040     0.17151
            131  FE 1 ZZ      0.00026     0.13352
            132  FE 1 XY      0.00050     0.08366
            133  FE 1 XZ      0.00050     0.08463
            134  FE 1 YZ      0.00000     0.08463
            135  FE 1 XXX    -0.00000     0.24486
            136  FE 1 YYY     0.00000     0.24486
            137  FE 1 ZZZ     0.00000     0.24629
            138  FE 1 XXY     0.00001     0.09705
            139  FE 1 XXZ     0.00000     0.09837
            140  FE 1 YYX     0.00000     0.09705
            141  FE 1 YYZ    -0.00000     0.09837
            142  FE 1 ZZX     0.00000     0.10005
            143  FE 1 ZZY     0.00000     0.10005
            144  FE 1 XYZ     0.00000     0.00000
            145  FE 1XXXX     0.00000     0.11644
            146  FE 1YYYY     0.00000     0.11644
            147  FE 1ZZZZ     0.00000     0.08876
            148  FE 1XXXY     0.00000     0.03525
            149  FE 1XXXZ     0.00000     0.03540
            150  FE 1YYYX     0.00000     0.03525
            151  FE 1YYYZ     0.00000     0.03540
            152  FE 1ZZZX     0.00000     0.03600
            153  FE 1ZZZY     0.00000     0.03600
            154  FE 1XXYY     0.00000     0.05750
            155  FE 1XXZZ     0.00000     0.06509
            156  FE 1YYZZ     0.00000     0.06509
            157  FE 1XXYZ     0.00000     0.01659
            158  FE 1YYXZ     0.00000     0.01659
            159  FE 1ZZXY     0.00000     0.01657

          ----- MULLIKEN ATOMIC OVERLAP POPULATIONS -----
          (OFF-DIAGONAL ELEMENTS NEED TO BE MULTIPLIED BY 2)

             1

    1   16.0000000

          TOTAL MULLIKEN AND LOWDIN ATOMIC POPULATIONS
       ATOM         MULL.POP.    CHARGE          LOW.POP.     CHARGE
    1 FE           16.000000    0.000000        16.000000   -0.000000

          MULLIKEN SPHERICAL HARMONIC POPULATIONS
       ATOM           S       P       D      F      G      H      I    TOTAL
    1 FE            4.00    6.00    6.00   0.00   0.00   0.00   0.00   16.00

          -------------------------------
          BOND ORDER AND VALENCE ANALYSIS     BOND ORDER THRESHOLD=0.050
          -------------------------------

                   BOND                       BOND                       BOND
  ATOM PAIR DIST  ORDER      ATOM PAIR DIST  ORDER      ATOM PAIR DIST  ORDER

                       TOTAL       BONDED        FREE
      ATOM            VALENCE     VALENCE     VALENCE
    1 FE                4.000       0.000       4.000

          -----------------------------------------
          ATOMIC SPIN DENSITY AT THE NUCLEUS (A.U.)
          -----------------------------------------
                            SPIN DENS    ALPHA DENS     BETA DENS
    1  FE          16.0     0.0000001       0.00142       0.00142

          ---------------------
          ELECTROSTATIC MOMENTS
          ---------------------

 POINT   1           X           Y           Z (BOHR)    CHARGE
                 0.000000    0.000000    0.000000        0.00 (A.U.)
         DX          DY          DZ         /D/  (DEBYE)
     0.000000    0.000000    0.000000    0.000000
 ...... END OF PROPERTY EVALUATION ......
 STEP CPU TIME =     0.53 TOTAL CPU TIME =      330.8 (    5.5 MIN)
 TOTAL WALL CLOCK TIME=      331.7 SECONDS, CPU UTILIZATION IS  99.72%
                809342  WORDS OF DYNAMIC MEMORY USED
 EXECUTION OF GAMESS TERMINATED NORMALLY Tue Dec  4 11:52:07 2018
 DDI: 263624 bytes (0.3 MB / 0 MWords) used by master data server.

 ----------------------------------------
 CPU timing information for all processes
 ========================================
 0: 329.143 + 1.694 = 330.838
 ----------------------------------------
 ddikick.x: exited gracefully.
----- accounting info -----
Files used on the master node c401-114.stampede2.tacc.utexas.edu were:
-rw------- 1 aannabe G-801537    321223 Dec  4 11:46 /tmp/Fe.F05
-rw------- 1 aannabe G-801537 124931104 Dec  4 11:51 /tmp/Fe.F08
-rw------- 1 aannabe G-801537  10437680 Dec  4 11:52 /tmp/Fe.F10
Tue Dec  4 11:52:10 CST 2018
1.577u 0.873s 5:37.66 0.7%	0+0k 6432+656io 32pf+0w
