TACC:  Starting up job 3912532 
TACC:  Starting parallel tasks... 
  Input file(s): Ge.log.qmc.in-wfj.xml 

=====================================================
                    QMCPACK 3.7.9

       (c) Copyright 2003-  QMCPACK developers

                    Please cite:
 J. Kim et al. J. Phys. Cond. Mat. 30 195901 (2018)
      https://doi.org/10.1088/1361-648X/aab9c3

  Git branch: develop
  Last git commit: 9a049a3fb3e0d7110d61a924a52203fd8296522a
  Last git commit date: Mon Jul 1 13:42:43 2019 -0500
  Last git commit subject: Merge pull request #1686 from ye-luo/rename-to-LCAOHDFParser
=====================================================
  Global options 

  Total number of MPI ranks = 1024
  Number of MPI groups      = 1
  MPI group ID              = 0
  Number of ranks in group  = 1024
  MPI ranks per node        = 64
  OMP 1st level threads     = 1
  OMP nested threading disabled or only 1 thread on the 2nd level

  Precision used in this calculation, see definitions in the manual:
  Base precision      = double
  Full precision      = double

  Structure-of-arrays (SoA) optimization enabled

  Input XML = Ge.log.qmc.in-wfj.xml

  Project = Ge.log
  date    = 2019-07-01 18:35:05 CDT
  host    = c406-104.stampede2.tacc.utexas.edu

 Random Number
 -------------
  Offset for the random number seeds based on time: 169

  Range of prime numbers to use as seeds over processors and threads = 1019-9679


 Particle Set 
 ------------
  Name: ion0
  All the species have the same mass 1
  Particle set size: 1

 Particle Set 
 ------------
  Name: e
  All the species have the same mass 1
  Particle set size: 4

 Wavefunction setup: 
 ------------------- 
  Name: psi0
  LCAO: SoaAtomicBasisSet<MultiQuintic,1>
Reading BasisSet from HDF5 file:Ge.log.h5
<input node="atomicBasisSet" name="gaussian" expandYlm="pyscf" angular="spherical" elementType="Ge" normalized="no" type="Numerical" expM="0" />
  AO BasisSet for Ge
   Spherical Harmonics contain (-1)^m factor
   Angular momentum m expanded as -l, ... ,l, with the exception of L=1 (1,-1,0)
   Grid is created by the input paremters in h5
    Using log grid ri = 1e-06 rf = 100 npts = 1001
   R(n,l,m,s) 0 0 0 0
   R(n,l,m,s) 1 0 0 0
   R(n,l,m,s) 2 0 0 0
   R(n,l,m,s) 3 0 0 0
   R(n,l,m,s) 4 0 0 0
   R(n,l,m,s) 5 1 0 0
   R(n,l,m,s) 6 1 0 0
   R(n,l,m,s) 7 1 0 0
   R(n,l,m,s) 8 1 0 0
   R(n,l,m,s) 9 1 0 0
   R(n,l,m,s) 10 2 0 0
   R(n,l,m,s) 11 2 0 0
   R(n,l,m,s) 12 2 0 0
   R(n,l,m,s) 13 2 0 0
   R(n,l,m,s) 14 3 0 0
   R(n,l,m,s) 15 3 0 0
   R(n,l,m,s) 16 3 0 0
   R(n,l,m,s) 17 4 0 0
   R(n,l,m,s) 18 4 0 0
   R(n,l,m,s) 19 5 0 0
Expanding Ylm as L=1 as (1,-1,0) and L>1 as -l,-l+1,...,l-1,l
   Adding 1 spherical orbitals
   Adding 1 spherical orbitals
   Adding 1 spherical orbitals
   Adding 1 spherical orbitals
   Adding 1 spherical orbitals
   Adding 3 spherical orbitals
   Adding 3 spherical orbitals
   Adding 3 spherical orbitals
   Adding 3 spherical orbitals
   Adding 3 spherical orbitals
   Adding 5 spherical orbitals
   Adding 5 spherical orbitals
   Adding 5 spherical orbitals
   Adding 5 spherical orbitals
   Adding 7 spherical orbitals
   Adding 7 spherical orbitals
   Adding 7 spherical orbitals
   Adding 9 spherical orbitals
   Adding 9 spherical orbitals
   Adding 11 spherical orbitals
  Setting cutoff radius 14.9968

   Maximum Angular Momentum  = 5
   Number of Radial functors = 20
   Basis size                = 90

  Created SPOSet builder named 'LCAOBSet' of type molecularorbital
Reuse SPOSetBuilder "LCAOBSet" type MolecularOrbital
  Building SPOSet '' with '' basis set.
Reuse SPOSetBuilder "LCAOBSet" type MolecularOrbital
  Building SPOSet '' with '' basis set.
  Creating a determinant updet group=0 sposet=updet
  Reusing a SPO set updet
Using DiracDeterminant with DelayedUpdate engine
Using rank-1 Sherman-Morrison Fahy update

  Creating a determinant downdet group=1 sposet=downdet
  Reusing a SPO set downdet
Using DiracDeterminant with DelayedUpdate engine
Using rank-1 Sherman-Morrison Fahy update

  FermionWF = SlaterDet

   Jastrow
   -------
    Name: J2   Type: Two-Body   Function: Bspline

    Radial function for species: u - u
     Number of parameters: 10
     Cusp: -0.25
     Cutoff radius: 10

     Name                        Value Type Recompute Use Index
     ---- ---------------------------- ---- --------- --- -----
     uu_0                 3.825871e-01    1         1  ON     0
     uu_1                 2.032629e-01    1         1  ON     1
     uu_2                 7.296518e-02    1         1  ON     2
     uu_3                -1.856285e-03    1         1  ON     3
     uu_4                -5.230345e-02    1         1  ON     4
     uu_5                -8.905092e-02    1         1  ON     5
     uu_6                -1.095875e-01    1         1  ON     6
     uu_7                -1.173084e-01    1         1  ON     7
     uu_8                -1.062141e-01    1         1  ON     8
     uu_9                -8.157756e-02    1         1  ON     9

    Radial function for species: u - d
     Number of parameters: 10
     Cusp: -0.5
     Cutoff radius: 10

     Name                        Value Type Recompute Use Index
     ---- ---------------------------- ---- --------- --- -----
     ud_0                 1.281298e+00    1         1  ON     0
     ud_1                 9.314556e-01    1         1  ON     1
     ud_2                 6.680754e-01    1         1  ON     2
     ud_3                 4.635601e-01    1         1  ON     3
     ud_4                 2.970489e-01    1         1  ON     4
     ud_5                 1.584569e-01    1         1  ON     5
     ud_6                 4.473465e-02    1         1  ON     6
     ud_7                -4.951230e-02    1         1  ON     7
     ud_8                -1.087145e-01    1         1  ON     8
     ud_9                -1.530568e-01    1         1  ON     9


   Jastrow
   -------
    Name: J1   Type: One-Body   Function: Bspline

    Radial function for element: Ge
     Number of parameters: 10
     Cusp: 0
     Cutoff radius: 10

      Name                        Value Type Recompute Use Index
     ----- ---------------------------- ---- --------- --- -----
     eGe_0                -4.838444e-01    1         1  ON     0
     eGe_1                -4.816766e-01    1         1  ON     1
     eGe_2                -4.350763e-01    1         1  ON     2
     eGe_3                -2.238847e-01    1         1  ON     3
     eGe_4                -2.744793e-02    1         1  ON     4
     eGe_5                 1.587574e-01    1         1  ON     5
     eGe_6                 2.873490e-01    1         1  ON     6
     eGe_7                 3.783437e-01    1         1  ON     7
     eGe_8                 3.654016e-01    1         1  ON     8
     eGe_9                 2.809548e-01    1         1  ON     9


   Jastrow
   -------
    Name: J3   Type: eeI   Function: polynomial

     Ion: Ge   electron-electron: u - u
      Number of parameters for e-e: 3, for e-I: 3
      Cutoff radius: 10

Expected 26 parameters, but found 0 in PolynomialFunctor3D.
         Name                        Value Type Recompute Use Index
      ------- ---------------------------- ---- --------- --- -----
       uuGe_0                 0.000000e+00    1         1  ON     0
       uuGe_1                 0.000000e+00    1         1  ON     1
       uuGe_2                 0.000000e+00    1         1  ON     2
       uuGe_3                 0.000000e+00    1         1  ON     3
       uuGe_4                 0.000000e+00    1         1  ON     4
       uuGe_5                 0.000000e+00    1         1  ON     5
       uuGe_6                 0.000000e+00    1         1  ON     6
       uuGe_7                 0.000000e+00    1         1  ON     7
       uuGe_8                 0.000000e+00    1         1  ON     8
       uuGe_9                 0.000000e+00    1         1  ON     9
      uuGe_10                 0.000000e+00    1         1  ON    10
      uuGe_11                 0.000000e+00    1         1  ON    11
      uuGe_12                 0.000000e+00    1         1  ON    12
      uuGe_13                 0.000000e+00    1         1  ON    13
      uuGe_14                 0.000000e+00    1         1  ON    14
      uuGe_15                 0.000000e+00    1         1  ON    15
      uuGe_16                 0.000000e+00    1         1  ON    16
      uuGe_17                 0.000000e+00    1         1  ON    17
      uuGe_18                 0.000000e+00    1         1  ON    18
      uuGe_19                 0.000000e+00    1         1  ON    19
      uuGe_20                 0.000000e+00    1         1  ON    20
      uuGe_21                 0.000000e+00    1         1  ON    21
      uuGe_22                 0.000000e+00    1         1  ON    22
      uuGe_23                 0.000000e+00    1         1  ON    23
      uuGe_24                 0.000000e+00    1         1  ON    24
      uuGe_25                 0.000000e+00    1         1  ON    25

     Ion: Ge   electron-electron: u - d
      Number of parameters for e-e: 3, for e-I: 3
      Cutoff radius: 10

Expected 26 parameters, but found 0 in PolynomialFunctor3D.
         Name                        Value Type Recompute Use Index
      ------- ---------------------------- ---- --------- --- -----
       udGe_0                 0.000000e+00    1         1  ON     0
       udGe_1                 0.000000e+00    1         1  ON     1
       udGe_2                 0.000000e+00    1         1  ON     2
       udGe_3                 0.000000e+00    1         1  ON     3
       udGe_4                 0.000000e+00    1         1  ON     4
       udGe_5                 0.000000e+00    1         1  ON     5
       udGe_6                 0.000000e+00    1         1  ON     6
       udGe_7                 0.000000e+00    1         1  ON     7
       udGe_8                 0.000000e+00    1         1  ON     8
       udGe_9                 0.000000e+00    1         1  ON     9
      udGe_10                 0.000000e+00    1         1  ON    10
      udGe_11                 0.000000e+00    1         1  ON    11
      udGe_12                 0.000000e+00    1         1  ON    12
      udGe_13                 0.000000e+00    1         1  ON    13
      udGe_14                 0.000000e+00    1         1  ON    14
      udGe_15                 0.000000e+00    1         1  ON    15
      udGe_16                 0.000000e+00    1         1  ON    16
      udGe_17                 0.000000e+00    1         1  ON    17
      udGe_18                 0.000000e+00    1         1  ON    18
      udGe_19                 0.000000e+00    1         1  ON    19
      udGe_20                 0.000000e+00    1         1  ON    20
      udGe_21                 0.000000e+00    1         1  ON    21
      udGe_22                 0.000000e+00    1         1  ON    22
      udGe_23                 0.000000e+00    1         1  ON    23
      udGe_24                 0.000000e+00    1         1  ON    24
      udGe_25                 0.000000e+00    1         1  ON    25

  QMCHamiltonian::addOperator Kinetic to H, physical Hamiltonian 
  QMCHamiltonian::addOperator ElecElec to H, physical Hamiltonian 
QMCHamiltonian::addOperatorType added type coulomb named ElecElec
  CoulombAA for ion0 is not created.  Number of particles == 1 and nonPeriodic

  ECPotential builder for pseudopotential 

  Adding pseudopotential for Ge
   Linear grid  ri=0 rf=10 npts = 10001
    ECPComponentBuilder::buildSemiLocalAndLocal 
    Assuming Hartree unit
   Number of angular momentum channels 4
   Maximum angular momentum channel 3
   Creating a Linear Grid Rmax=4.425
  Using global grid with delta = 0.001
   Making L=3 a local potential with a radial cutoff of 9.999
    Non-local pseudopotential parameters
    Maximum angular mementum = 2
    Number of non-local channels = 3
       l(0)=0
       l(1)=1
       l(2)=2
    Cutoff radius = 4.425
    Spherical grids and weights: 
                        1                 0                 0       0.08333333333
                       -1   1.224646799e-16                 0       0.08333333333
             0.4472135955       0.894427191                 0       0.08333333333
            -0.4472135955      0.7236067977      0.5257311121       0.08333333333
             0.4472135955      0.2763932023      0.8506508084       0.08333333333
            -0.4472135955     -0.2763932023      0.8506508084       0.08333333333
             0.4472135955     -0.7236067977      0.5257311121       0.08333333333
            -0.4472135955      -0.894427191   1.095357397e-16       0.08333333333
             0.4472135955     -0.7236067977     -0.5257311121       0.08333333333
            -0.4472135955     -0.2763932023     -0.8506508084       0.08333333333
             0.4472135955      0.2763932023     -0.8506508084       0.08333333333
            -0.4472135955      0.7236067977     -0.5257311121       0.08333333333
    Maximum cutoff radius 4.425
  QMCHamiltonian::addOperator LocalECP to H, physical Hamiltonian 

  Using NonLocalECP potential 
    Maximum grid on a sphere for NonLocalECPotential: 12
  QMCHamiltonian::addOperator NonLocalECP to H, physical Hamiltonian 
QMCHamiltonian::addOperatorType added type pseudo named PseudoPot

  QMCHamiltonian::add2WalkerProperty added
    4 to P::PropertyList 
    0 to P::Collectables 
    starting Index of the observables in P::PropertyList = 9
ParticleSetPool::randomize 
<init source="ion0" target="e">
</init>
  Initialization Execution time = 0.449 secs
=========================================================
 Summary of QMC systems 
=========================================================
ParticleSetPool has: 

  ParticleSet 'e' contains 4 particles :  u(3) d(1)

    u  1.7804476524e-01  8.6670973271e-01  3.4888766008e-01
    u -3.5869393012e-01 -4.4964190105e-02 -9.8084184407e-02
    u  4.3035850356e-02 -1.9872143883e+00  1.2430946417e+00
    d -1.2344601867e+00  5.4441983572e-01  4.0620152384e-01

  Distance table for dissimilar particles (A-B):
    source: ion0  target: e
    Using structure-of-arrays (SoA) data layout
    Distance computations use open boundary conditions in 3D.

  Distance table for similar particles (A-A):
    source/target: e
    Using structure-of-arrays (SoA) data layout
    Distance computations use open boundary conditions in 3D.


  ParticleSet 'ion0' contains 1 particles :  Ge(1)

    Ge  0.0000000000e+00  0.0000000000e+00  0.0000000000e+00


  Hamiltonian h0
  Kinetic         Kinetic energy
  ElecElec        CoulombAB source=e

  LocalECP        LocalECPotential: ion0
  NonLocalECP     NonLocalECPotential: ion0


=========================================================
  Start VMC
  File Root Ge.log.s000 append = no 
=========================================================
  Adding 1 walkers to 0 existing sets
  Total number of walkers: 1.0240000000e+03
  Total weight: 1.0240000000e+03
  Resetting Properties of the walkers 1 x 13

<vmc function="put">
  qmc_counter=0  my_counter=0
  time step      = 1.5000000000e-01
  blocks         = 200
  steps          = 1
  substeps       = 5
  current        = 0
  target samples = 1.0240000000e+03
  walkers/mpi    = 1

  stepsbetweensamples = 200
<parameter name="blocks" condition="int">200</parameter>
<parameter name="blocks_between_recompute" condition="int">0</parameter>
<parameter name="check_properties" condition="int">100</parameter>
<parameter name="checkproperties" condition="int">100</parameter>
<parameter name="current" condition="int">0</parameter>
<parameter name="dmcwalkersperthread" condition="real">1.0000000000e+00</parameter>
<parameter name="maxcpusecs" condition="real">3.6000000000e+05</parameter>
<parameter name="record_configs" condition="int">0</parameter>
<parameter name="record_walkers" condition="int">200</parameter>
<parameter name="recordconfigs" condition="int">0</parameter>
<parameter name="recordwalkers" condition="int">200</parameter>
<parameter name="rewind" condition="int">0</parameter>
<parameter name="samples" condition="real">1.0240000000e+03</parameter>
<parameter name="samplesperthread" condition="real">1.0000000000e+00</parameter>
<parameter name="steps" condition="int">1</parameter>
<parameter name="stepsbetweensamples" condition="int">200</parameter>
<parameter name="store_configs" condition="int">0</parameter>
<parameter name="storeconfigs" condition="int">0</parameter>
<parameter name="sub_steps" condition="int">5</parameter>
<parameter name="substeps" condition="int">5</parameter>
<parameter name="tau" condition="au">1.5000000000e-01</parameter>
<parameter name="time_step" condition="au">1.5000000000e-01</parameter>
<parameter name="timestep" condition="au">1.5000000000e-01</parameter>
<parameter name="use_drift" condition="string">no</parameter>
<parameter name="usedrift" condition="string">no</parameter>
<parameter name="walkers" condition="int">1</parameter>
<parameter name="warmup_steps" condition="int">100</parameter>
<parameter name="warmupsteps" condition="int">100</parameter>
  DumpConfig==false Nothing (configurations, state) will be saved.
  Walker Samples are dumped every 200 steps.
</vmc>
  Set drift_modifier UNR parameter a = 1.0000000000e+00
  Initial partition of walkers 0 1 

  Using Particle by Particle moves
  Walker moves without drift
  Total Sample Size   =1024
  Walker distribution on root = 0 1 
  Using Locality Approximation
===== Memory Usage after the buffer registration =====
Available memory on node 0, free + buffers : 52718 MB
Memory footprint by rank 0 on node 0       : 576 MB
==================================================
  Anonymous Buffer size per walker : 1440 Bytes.
MEMORY increase 0 MB VMC::resetRun
====================================================
  SimpleFixedNodeBranch::finalize after a VMC block
    QMC counter        = 0
    time step          = 0.15
    reference energy   = -3.72426
    reference variance = 0.0403755
====================================================
  QMC Execution time = 1.9643e+00 secs
Loop execution max-interations = 20

=========================================================
  Start QMCFixedSampleLinearOptimize
  File Root Ge.log.s001 append = no 
=========================================================
  Skip QMCDriver::putQMCInfo 
  Resetting Properties of the walkers 1 x 13

=========================================================
  Start VMC
  File Root Ge.log.s001 append = no 
=========================================================
  Using the current 1 walkers.
  Total number of walkers: 1.0240e+03
  Total weight: 1.0240e+03
  Resetting Properties of the walkers 1 x 13

<vmc function="put">
  qmc_counter=0  my_counter=0
  time step      = 1.5000e-01
  blocks         = 500
  steps          = 1
  substeps       = 5
  current        = 0
  target samples = 5.1200e+05
  walkers/mpi    = 1

  stepsbetweensamples = 1
<parameter name="blocks" condition="int">500</parameter>
<parameter name="blocks_between_recompute" condition="int">0</parameter>
<parameter name="check_properties" condition="int">100</parameter>
<parameter name="checkproperties" condition="int">100</parameter>
<parameter name="current" condition="int">0</parameter>
<parameter name="dmcwalkersperthread" condition="real">5.0000e+02</parameter>
<parameter name="maxcpusecs" condition="real">3.6000e+05</parameter>
<parameter name="record_configs" condition="int">0</parameter>
<parameter name="record_walkers" condition="int">1</parameter>
<parameter name="recordconfigs" condition="int">0</parameter>
<parameter name="recordwalkers" condition="int">1</parameter>
<parameter name="rewind" condition="int">0</parameter>
<parameter name="samples" condition="real">5.1200e+05</parameter>
<parameter name="samplesperthread" condition="real">5.0000e+02</parameter>
<parameter name="steps" condition="int">1</parameter>
<parameter name="stepsbetweensamples" condition="int">1</parameter>
<parameter name="store_configs" condition="int">0</parameter>
<parameter name="storeconfigs" condition="int">0</parameter>
<parameter name="sub_steps" condition="int">5</parameter>
<parameter name="substeps" condition="int">5</parameter>
<parameter name="tau" condition="au">1.5000e-01</parameter>
<parameter name="time_step" condition="au">1.5000e-01</parameter>
<parameter name="timestep" condition="au">1.5000e-01</parameter>
<parameter name="use_drift" condition="string">no</parameter>
<parameter name="usedrift" condition="string">no</parameter>
<parameter name="walkers" condition="int">1</parameter>
<parameter name="warmup_steps" condition="int">0</parameter>
<parameter name="warmupsteps" condition="int">0</parameter>
  DumpConfig==false Nothing (configurations, state) will be saved.
  Walker Samples are dumped every 1 steps.
</vmc>
    Restarting, cummulative properties:
      energy     = -3.7243e+00
      variance   = 0.0000e+00
      r2accepted = 1.0000e-10
      r2proposed = 1.0000e-10
  Set drift_modifier UNR parameter a = 1.0000e+00
 Using QMCCostFunction::QMCCostFunction
  Set drift_modifier UNR parameter a = 1.0000e+00
  EstimatorManagerBase::add replace LocalEnergy estimator.
<optimization-report>
<vmc stage="main" blocks="500">
  Cannot make clones again. Use existing 1 clones
  Initial partition of walkers 0 1 

  Using Particle by Particle moves
  Walker moves without drift
  Total Sample Size   =512000
  Walker distribution on root = 0 1 
  Using Locality Approximation
===== Memory Usage after the buffer registration =====
Available memory on node 0, free + buffers : 52703 MB
Memory footprint by rank 0 on node 0       : 576 MB
==================================================
  Anonymous Buffer size per walker : 1440 Bytes.
MEMORY increase 0 MB VMC::resetRun
====================================================
  SimpleFixedNodeBranch::finalize after a VMC block
    QMC counter        = 1
    time step          = 0.15
    reference energy   = -3.73939
    reference variance = 0.0523047
====================================================
  Execution time = 3.4564e+00
</vmc>
<opt stage="setup">
  <log>
   Reading configurations from h5FileRoot Ge.log.s001
  QMCCostFunction is created with 1 threads.
  Using Nonlocal PP in Opt: NonLocalECP
   Number of samples loaded to each thread : 500 
  VMC Eavg = -3.6293e+00
  VMC Evar = 1.0222e+00
  Total weights = 5.1200e+05
  Execution time = 8.7220e-01
  </log>
</opt>
<opt stage="main" walkers="512000">
  <log>

*****************************************
Building overlap and Hamiltonian matrices
*****************************************

Among totally 82 optimized parameters, largest LM parameter change : 2.7947e-02 at parameter 17

******************************************************************************
Init Cost =  -3.3967e+00    New Cost =  -3.4245e+00  Delta Cost =  -2.7743e-02
******************************************************************************

The new set of parameters is valid. Updating the trial wave function!

*****************************************************************************
Applying the update for shift_i =   1.0000e-02     and shift_s =   2.5000e-01
*****************************************************************************
  Execution time = 5.3591e+00
  </log>
  <optVariables href="Ge.log.s001.opt.xml">
   uu_0                 3.872126e-01 1 1  ON 0
   uu_1                 2.200361e-01 1 1  ON 1
   uu_2                 9.761245e-02 1 1  ON 2
   uu_3                 1.745010e-02 1 1  ON 3
   uu_4                -4.658514e-02 1 1  ON 4
   uu_5                -9.302131e-02 1 1  ON 5
   uu_6                -1.167234e-01 1 1  ON 6
   uu_7                -1.234182e-01 1 1  ON 7
   uu_8                -1.088189e-01 1 1  ON 8
   uu_9                -8.704964e-02 1 1  ON 9
   ud_0                 1.287342e+00 1 1  ON 10
   ud_1                 9.164674e-01 1 1  ON 11
   ud_2                 6.562113e-01 1 1  ON 12
   ud_3                 4.573188e-01 1 1  ON 13
   ud_4                 3.102691e-01 1 1  ON 14
   ud_5                 1.861103e-01 1 1  ON 15
   ud_6                 7.129564e-02 1 1  ON 16
   ud_7                -2.156539e-02 1 1  ON 17
   ud_8                -8.325168e-02 1 1  ON 18
   ud_9                -1.302273e-01 1 1  ON 19
  eGe_0                -4.947106e-01 1 1  ON 20
  eGe_1                -4.562141e-01 1 1  ON 21
  eGe_2                -4.521942e-01 1 1  ON 22
  eGe_3                -2.499720e-01 1 1  ON 23
  eGe_4                -1.418663e-02 1 1  ON 24
  eGe_5                 1.476921e-01 1 1  ON 25
  eGe_6                 2.822580e-01 1 1  ON 26
  eGe_7                 3.729554e-01 1 1  ON 27
  eGe_8                 3.752204e-01 1 1  ON 28
  eGe_9                 2.910226e-01 1 1  ON 29
 uuGe_0                 2.348956e-05 1 1  ON 30
 uuGe_1                 8.559088e-05 1 1  ON 31
 uuGe_2                 4.135587e-05 1 1  ON 32
 uuGe_3                -4.825541e-05 1 1  ON 33
 uuGe_4                -1.653027e-05 1 1  ON 34
 uuGe_5                -4.724513e-06 1 1  ON 35
 uuGe_6                 6.574564e-05 1 1  ON 36
 uuGe_7                 9.893943e-05 1 1  ON 37
 uuGe_8                 8.658386e-05 1 1  ON 38
 uuGe_9                -1.132030e-04 1 1  ON 39
uuGe_10                -2.856877e-05 1 1  ON 40
uuGe_11                -7.500223e-05 1 1  ON 41
uuGe_12                -1.458565e-05 1 1  ON 42
uuGe_13                 8.408944e-05 1 1  ON 43
uuGe_14                 2.282340e-05 1 1  ON 44
uuGe_15                -1.045262e-06 1 1  ON 45
uuGe_16                 7.415372e-05 1 1  ON 46
uuGe_17                 7.648944e-05 1 1  ON 47
uuGe_18                 1.445090e-05 1 1  ON 48
uuGe_19                -5.831338e-07 1 1  ON 49
uuGe_20                -3.895528e-05 1 1  ON 50
uuGe_21                -2.815037e-06 1 1  ON 51
uuGe_22                 9.554798e-07 1 1  ON 52
uuGe_23                 9.726658e-06 1 1  ON 53
uuGe_24                -3.334653e-07 1 1  ON 54
uuGe_25                -1.714012e-07 1 1  ON 55
 udGe_0                -7.979204e-05 1 1  ON 56
 udGe_1                -3.468202e-04 1 1  ON 57
 udGe_2                -7.543989e-05 1 1  ON 58
 udGe_3                 2.932807e-04 1 1  ON 59
 udGe_4                 6.501617e-05 1 1  ON 60
 udGe_5                 2.349607e-05 1 1  ON 61
 udGe_6                -2.504270e-04 1 1  ON 62
 udGe_7                -1.800985e-06 1 1  ON 63
 udGe_8                -2.332438e-04 1 1  ON 64
 udGe_9                 2.275054e-04 1 1  ON 65
udGe_10                 1.839600e-04 1 1  ON 66
udGe_11                 4.341377e-05 1 1  ON 67
udGe_12                 6.574704e-05 1 1  ON 68
udGe_13                -3.225960e-04 1 1  ON 69
udGe_14                -6.457975e-05 1 1  ON 70
udGe_15                 3.363898e-07 1 1  ON 71
udGe_16                -2.300632e-05 1 1  ON 72
udGe_17                -3.345500e-04 1 1  ON 73
udGe_18                 5.764663e-05 1 1  ON 74
udGe_19                -2.317167e-05 1 1  ON 75
udGe_20                 9.372660e-05 1 1  ON 76
udGe_21                 1.826216e-06 1 1  ON 77
udGe_22                 8.631250e-07 1 1  ON 78
udGe_23                -1.842769e-05 1 1  ON 79
udGe_24                 8.812188e-07 1 1  ON 80
udGe_25                -8.047255e-08 1 1  ON 81
  </optVariables>
   Restore the number of walkers to 1, removing 0 walkers.
</opt>
</optimization-report>
  QMC Execution time = 5.372 secs
  Reusing QMCFixedSampleLinearOptimize
 Using QMCCostFunction::QMCCostFunction

=========================================================
  Start QMCFixedSampleLinearOptimize
  File Root Ge.log.s002 append = no 
=========================================================
  Skip QMCDriver::putQMCInfo 
  Resetting Properties of the walkers 1 x 13

=========================================================
  Start VMC
  File Root Ge.log.s002 append = no 
=========================================================
Using existing walkers 
  Resetting Properties of the walkers 1 x 13

<vmc function="put">
  qmc_counter=1  my_counter=1
  time step      = 1.5000e-01
  blocks         = 500
  steps          = 1
  substeps       = 5
  current        = 0
  target samples = 5.1200e+05
  walkers/mpi    = 1

  stepsbetweensamples = 1
<parameter name="blocks" condition="int">500</parameter>
<parameter name="blocks_between_recompute" condition="int">0</parameter>
<parameter name="check_properties" condition="int">100</parameter>
<parameter name="checkproperties" condition="int">100</parameter>
<parameter name="current" condition="int">0</parameter>
<parameter name="dmcwalkersperthread" condition="real">5.0000e+02</parameter>
<parameter name="maxcpusecs" condition="real">3.6000e+05</parameter>
<parameter name="record_configs" condition="int">0</parameter>
<parameter name="record_walkers" condition="int">1</parameter>
<parameter name="recordconfigs" condition="int">0</parameter>
<parameter name="recordwalkers" condition="int">1</parameter>
<parameter name="rewind" condition="int">0</parameter>
<parameter name="samples" condition="real">5.1200e+05</parameter>
<parameter name="samplesperthread" condition="real">5.0000e+02</parameter>
<parameter name="steps" condition="int">1</parameter>
<parameter name="stepsbetweensamples" condition="int">1</parameter>
<parameter name="store_configs" condition="int">0</parameter>
<parameter name="storeconfigs" condition="int">0</parameter>
<parameter name="sub_steps" condition="int">5</parameter>
<parameter name="substeps" condition="int">5</parameter>
<parameter name="tau" condition="au">1.5000e-01</parameter>
<parameter name="time_step" condition="au">1.5000e-01</parameter>
<parameter name="timestep" condition="au">1.5000e-01</parameter>
<parameter name="use_drift" condition="string">no</parameter>
<parameter name="usedrift" condition="string">no</parameter>
<parameter name="walkers" condition="int">1</parameter>
<parameter name="warmup_steps" condition="int">0</parameter>
<parameter name="warmupsteps" condition="int">0</parameter>
  DumpConfig==false Nothing (configurations, state) will be saved.
  Walker Samples are dumped every 1 steps.
</vmc>
  Set drift_modifier UNR parameter a = 1.0000e+00
  EstimatorManagerBase::add replace LocalEnergy estimator.
  Set drift_modifier UNR parameter a = 1.0000e+00
  EstimatorManagerBase::add replace LocalEnergy estimator.
<optimization-report>
<vmc stage="main" blocks="500">
  Cannot make clones again. Use existing 1 clones
  Initial partition of walkers 0 1 
  Using Particle by Particle moves
  Walker moves without drift
  Total Sample Size   =512000
  Walker distribution on root = 0 1 
  Using Locality Approximation
===== Memory Usage after the buffer registration =====
Available memory on node 0, free + buffers : 52009 MB
Memory footprint by rank 0 on node 0       : 591 MB
==================================================
====================================================
  SimpleFixedNodeBranch::finalize after a VMC block
    QMC counter        = 2
    time step          = 0.15
    reference energy   = -3.72124
    reference variance = 0.0764888
====================================================
  Execution time = 3.4934e+00
</vmc>
<opt stage="setup">
  <log>
   Reading configurations from h5FileRoot Ge.log.s002
  QMCCostFunction is created with 1 threads.
  Using Nonlocal PP in Opt: NonLocalECP
   Number of samples loaded to each thread : 500 
  VMC Eavg = -3.6487e+00
  VMC Evar = 5.4411e-01
  Total weights = 5.1200e+05
  Execution time = 8.9622e-01
  </log>
</opt>
<opt stage="main" walkers="512000">
  <log>

*****************************************
Building overlap and Hamiltonian matrices
*****************************************

Among totally 82 optimized parameters, largest LM parameter change : 2.6611e-02 at parameter 17

******************************************************************************
Init Cost =  -3.4391e+00    New Cost =  -3.4398e+00  Delta Cost =  -7.5287e-04
******************************************************************************

The new set of parameters is valid. Updating the trial wave function!

*****************************************************************************
Applying the update for shift_i =   1.0000e-02     and shift_s =   6.2500e-02
*****************************************************************************
  Execution time = 5.3653e+00
  </log>
  <optVariables href="Ge.log.s002.opt.xml">
   uu_0                 3.905601e-01 1 1  ON 0
   uu_1                 2.330040e-01 1 1  ON 1
   uu_2                 1.141274e-01 1 1  ON 2
   uu_3                 3.364966e-02 1 1  ON 3
   uu_4                -3.479028e-02 1 1  ON 4
   uu_5                -8.949174e-02 1 1  ON 5
   uu_6                -1.248602e-01 1 1  ON 6
   uu_7                -1.332880e-01 1 1  ON 7
   uu_8                -1.164390e-01 1 1  ON 8
   uu_9                -9.289044e-02 1 1  ON 9
   ud_0                 1.284540e+00 1 1  ON 10
   ud_1                 9.085989e-01 1 1  ON 11
   ud_2                 6.512257e-01 1 1  ON 12
   ud_3                 4.535491e-01 1 1  ON 13
   ud_4                 3.167021e-01 1 1  ON 14
   ud_5                 2.011037e-01 1 1  ON 15
   ud_6                 9.379661e-02 1 1  ON 16
   ud_7                 5.045861e-03 1 1  ON 17
   ud_8                -6.005879e-02 1 1  ON 18
   ud_9                -1.068353e-01 1 1  ON 19
  eGe_0                -5.019108e-01 1 1  ON 20
  eGe_1                -4.514641e-01 1 1  ON 21
  eGe_2                -4.641214e-01 1 1  ON 22
  eGe_3                -2.584128e-01 1 1  ON 23
  eGe_4                -6.443402e-03 1 1  ON 24
  eGe_5                 1.418220e-01 1 1  ON 25
  eGe_6                 2.771261e-01 1 1  ON 26
  eGe_7                 3.665995e-01 1 1  ON 27
  eGe_8                 3.820067e-01 1 1  ON 28
  eGe_9                 2.993900e-01 1 1  ON 29
 uuGe_0                 2.361487e-05 1 1  ON 30
 uuGe_1                 5.155724e-05 1 1  ON 31
 uuGe_2                 3.918418e-05 1 1  ON 32
 uuGe_3                -2.467480e-05 1 1  ON 33
 uuGe_4                -1.197198e-05 1 1  ON 34
 uuGe_5                -1.168787e-06 1 1  ON 35
 uuGe_6                 1.460797e-05 1 1  ON 36
 uuGe_7                 1.558743e-04 1 1  ON 37
 uuGe_8                 8.550385e-05 1 1  ON 38
 uuGe_9                -9.586181e-05 1 1  ON 39
uuGe_10                -8.865137e-06 1 1  ON 40
uuGe_11                -1.109700e-04 1 1  ON 41
uuGe_12                -9.815412e-06 1 1  ON 42
uuGe_13                 5.898973e-05 1 1  ON 43
uuGe_14                 2.304801e-05 1 1  ON 44
uuGe_15                -1.530309e-06 1 1  ON 45
uuGe_16                 7.175793e-05 1 1  ON 46
uuGe_17                 4.316494e-05 1 1  ON 47
uuGe_18                 4.844858e-05 1 1  ON 48
uuGe_19                -6.403865e-06 1 1  ON 49
uuGe_20                -3.144753e-05 1 1  ON 50
uuGe_21                -7.707992e-06 1 1  ON 51
uuGe_22                 2.015499e-06 1 1  ON 52
uuGe_23                 8.903515e-06 1 1  ON 53
uuGe_24                 7.360751e-07 1 1  ON 54
uuGe_25                -4.110218e-07 1 1  ON 55
 udGe_0                -1.172843e-04 1 1  ON 56
 udGe_1                -2.264649e-04 1 1  ON 57
 udGe_2                -8.625156e-06 1 1  ON 58
 udGe_3                 2.956861e-04 1 1  ON 59
 udGe_4                 5.527359e-05 1 1  ON 60
 udGe_5                 1.387159e-05 1 1  ON 61
 udGe_6                 1.194764e-05 1 1  ON 62
 udGe_7                -7.288111e-05 1 1  ON 63
 udGe_8                -2.247382e-04 1 1  ON 64
 udGe_9                 8.093615e-05 1 1  ON 65
udGe_10                 1.729469e-04 1 1  ON 66
udGe_11                 5.602046e-05 1 1  ON 67
udGe_12                 6.371157e-05 1 1  ON 68
udGe_13                -3.305014e-04 1 1  ON 69
udGe_14                -7.300831e-05 1 1  ON 70
udGe_15                 1.243422e-06 1 1  ON 71
udGe_16                 1.503791e-04 1 1  ON 72
udGe_17                -3.837232e-04 1 1  ON 73
udGe_18                 5.251467e-05 1 1  ON 74
udGe_19                -2.057755e-05 1 1  ON 75
udGe_20                 7.422697e-05 1 1  ON 76
udGe_21                 5.805650e-06 1 1  ON 77
udGe_22                 1.895580e-08 1 1  ON 78
udGe_23                -1.495633e-05 1 1  ON 79
udGe_24                -3.813358e-08 1 1  ON 80
udGe_25                 1.145322e-07 1 1  ON 81
  </optVariables>
   Restore the number of walkers to 1, removing 0 walkers.
</opt>
</optimization-report>
  QMC Execution time = 5.377 secs
  Reusing QMCFixedSampleLinearOptimize
 Using QMCCostFunction::QMCCostFunction

=========================================================
  Start QMCFixedSampleLinearOptimize
  File Root Ge.log.s003 append = no 
=========================================================
  Skip QMCDriver::putQMCInfo 
  Resetting Properties of the walkers 1 x 13

=========================================================
  Start VMC
  File Root Ge.log.s003 append = no 
=========================================================
Using existing walkers 
  Resetting Properties of the walkers 1 x 13

<vmc function="put">
  qmc_counter=2  my_counter=2
  time step      = 1.5000e-01
  blocks         = 500
  steps          = 1
  substeps       = 5
  current        = 0
  target samples = 5.1200e+05
  walkers/mpi    = 1

  stepsbetweensamples = 1
<parameter name="blocks" condition="int">500</parameter>
<parameter name="blocks_between_recompute" condition="int">0</parameter>
<parameter name="check_properties" condition="int">100</parameter>
<parameter name="checkproperties" condition="int">100</parameter>
<parameter name="current" condition="int">0</parameter>
<parameter name="dmcwalkersperthread" condition="real">5.0000e+02</parameter>
<parameter name="maxcpusecs" condition="real">3.6000e+05</parameter>
<parameter name="record_configs" condition="int">0</parameter>
<parameter name="record_walkers" condition="int">1</parameter>
<parameter name="recordconfigs" condition="int">0</parameter>
<parameter name="recordwalkers" condition="int">1</parameter>
<parameter name="rewind" condition="int">0</parameter>
<parameter name="samples" condition="real">5.1200e+05</parameter>
<parameter name="samplesperthread" condition="real">5.0000e+02</parameter>
<parameter name="steps" condition="int">1</parameter>
<parameter name="stepsbetweensamples" condition="int">1</parameter>
<parameter name="store_configs" condition="int">0</parameter>
<parameter name="storeconfigs" condition="int">0</parameter>
<parameter name="sub_steps" condition="int">5</parameter>
<parameter name="substeps" condition="int">5</parameter>
<parameter name="tau" condition="au">1.5000e-01</parameter>
<parameter name="time_step" condition="au">1.5000e-01</parameter>
<parameter name="timestep" condition="au">1.5000e-01</parameter>
<parameter name="use_drift" condition="string">no</parameter>
<parameter name="usedrift" condition="string">no</parameter>
<parameter name="walkers" condition="int">1</parameter>
<parameter name="warmup_steps" condition="int">0</parameter>
<parameter name="warmupsteps" condition="int">0</parameter>
  DumpConfig==false Nothing (configurations, state) will be saved.
  Walker Samples are dumped every 1 steps.
</vmc>
  Set drift_modifier UNR parameter a = 1.0000e+00
  EstimatorManagerBase::add replace LocalEnergy estimator.
  Set drift_modifier UNR parameter a = 1.0000e+00
  EstimatorManagerBase::add replace LocalEnergy estimator.
<optimization-report>
<vmc stage="main" blocks="500">
  Cannot make clones again. Use existing 1 clones
  Initial partition of walkers 0 1 
  Using Particle by Particle moves
  Walker moves without drift
  Total Sample Size   =512000
  Walker distribution on root = 0 1 
  Using Locality Approximation
===== Memory Usage after the buffer registration =====
Available memory on node 0, free + buffers : 52004 MB
Memory footprint by rank 0 on node 0       : 594 MB
==================================================
====================================================
  SimpleFixedNodeBranch::finalize after a VMC block
    QMC counter        = 3
    time step          = 0.15
    reference energy   = -3.71451
    reference variance = 0.05399
====================================================
  Execution time = 3.4786e+00
</vmc>
<opt stage="setup">
  <log>
   Reading configurations from h5FileRoot Ge.log.s003
  QMCCostFunction is created with 1 threads.
  Using Nonlocal PP in Opt: NonLocalECP
   Number of samples loaded to each thread : 500 
  VMC Eavg = -3.6497e+00
  VMC Evar = 6.0317e-01
  Total weights = 5.1200e+05
  Execution time = 8.8673e-01
  </log>
</opt>
<opt stage="main" walkers="512000">
  <log>

*****************************************
Building overlap and Hamiltonian matrices
*****************************************

Among totally 82 optimized parameters, largest LM parameter change : 1.9021e-02 at parameter 19

******************************************************************************
Init Cost =  -3.4371e+00    New Cost =  -3.4379e+00  Delta Cost =  -8.0719e-04
******************************************************************************

The new set of parameters is valid. Updating the trial wave function!

*****************************************************************************
Applying the update for shift_i =   1.0000e-02     and shift_s =   1.5625e-02
*****************************************************************************
  Execution time = 5.3501e+00
  </log>
  <optVariables href="Ge.log.s003.opt.xml">
   uu_0                 3.971031e-01 1 1  ON 0
   uu_1                 2.495585e-01 1 1  ON 1
   uu_2                 1.275787e-01 1 1  ON 2
   uu_3                 4.326501e-02 1 1  ON 3
   uu_4                -3.066626e-02 1 1  ON 4
   uu_5                -8.929167e-02 1 1  ON 5
   uu_6                -1.232181e-01 1 1  ON 6
   uu_7                -1.350208e-01 1 1  ON 7
   uu_8                -1.190925e-01 1 1  ON 8
   uu_9                -1.022261e-01 1 1  ON 9
   ud_0                 1.280973e+00 1 1  ON 10
   ud_1                 8.999757e-01 1 1  ON 11
   ud_2                 6.471773e-01 1 1  ON 12
   ud_3                 4.555489e-01 1 1  ON 13
   ud_4                 3.252182e-01 1 1  ON 14
   ud_5                 2.141925e-01 1 1  ON 15
   ud_6                 1.098342e-01 1 1  ON 16
   ud_7                 2.080855e-02 1 1  ON 17
   ud_8                -4.152660e-02 1 1  ON 18
   ud_9                -8.781482e-02 1 1  ON 19
  eGe_0                -5.084519e-01 1 1  ON 20
  eGe_1                -4.555654e-01 1 1  ON 21
  eGe_2                -4.629993e-01 1 1  ON 22
  eGe_3                -2.661512e-01 1 1  ON 23
  eGe_4                -6.657621e-03 1 1  ON 24
  eGe_5                 1.415858e-01 1 1  ON 25
  eGe_6                 2.730399e-01 1 1  ON 26
  eGe_7                 3.587200e-01 1 1  ON 27
  eGe_8                 3.756236e-01 1 1  ON 28
  eGe_9                 3.070974e-01 1 1  ON 29
 uuGe_0                 2.090791e-05 1 1  ON 30
 uuGe_1                 1.021839e-05 1 1  ON 31
 uuGe_2                 3.462731e-05 1 1  ON 32
 uuGe_3                -9.141476e-06 1 1  ON 33
 uuGe_4                -9.142153e-06 1 1  ON 34
 uuGe_5                 3.854087e-06 1 1  ON 35
 uuGe_6                -4.466817e-05 1 1  ON 36
 uuGe_7                 1.998036e-04 1 1  ON 37
 uuGe_8                 8.114679e-05 1 1  ON 38
 uuGe_9                -6.957008e-05 1 1  ON 39
uuGe_10                 2.289116e-06 1 1  ON 40
uuGe_11                -1.224666e-04 1 1  ON 41
uuGe_12                -7.108700e-06 1 1  ON 42
uuGe_13                 4.404261e-05 1 1  ON 43
uuGe_14                 2.284706e-05 1 1  ON 44
uuGe_15                -1.707348e-06 1 1  ON 45
uuGe_16                 5.337495e-05 1 1  ON 46
uuGe_17                 3.831153e-05 1 1  ON 47
uuGe_18                 4.783729e-05 1 1  ON 48
uuGe_19                -6.971644e-06 1 1  ON 49
uuGe_20                -2.420564e-05 1 1  ON 50
uuGe_21                -6.746353e-06 1 1  ON 51
uuGe_22                 1.894983e-06 1 1  ON 52
uuGe_23                 7.125380e-06 1 1  ON 53
uuGe_24                 4.991508e-07 1 1  ON 54
uuGe_25                -3.552343e-07 1 1  ON 55
 udGe_0                -9.327616e-05 1 1  ON 56
 udGe_1                -3.499108e-04 1 1  ON 57
 udGe_2                -2.813135e-05 1 1  ON 58
 udGe_3                 3.792521e-04 1 1  ON 59
 udGe_4                 7.468146e-05 1 1  ON 60
 udGe_5                 2.796415e-05 1 1  ON 61
 udGe_6                -1.601663e-04 1 1  ON 62
 udGe_7                 6.631971e-05 1 1  ON 63
 udGe_8                -2.405173e-04 1 1  ON 64
 udGe_9                 1.204804e-04 1 1  ON 65
udGe_10                 2.457982e-04 1 1  ON 66
udGe_11                -4.491519e-05 1 1  ON 67
udGe_12                 7.922020e-05 1 1  ON 68
udGe_13                -4.049157e-04 1 1  ON 69
udGe_14                -7.438396e-05 1 1  ON 70
udGe_15                 4.551270e-08 1 1  ON 71
udGe_16                 1.869102e-04 1 1  ON 72
udGe_17                -4.925532e-04 1 1  ON 73
udGe_18                 1.452584e-04 1 1  ON 74
udGe_19                -3.499380e-05 1 1  ON 75
udGe_20                 8.574983e-05 1 1  ON 76
udGe_21                -5.238223e-06 1 1  ON 77
udGe_22                 2.185131e-06 1 1  ON 78
udGe_23                -1.628191e-05 1 1  ON 79
udGe_24                 1.969424e-06 1 1  ON 80
udGe_25                -2.937707e-07 1 1  ON 81
  </optVariables>
   Restore the number of walkers to 1, removing 0 walkers.
</opt>
</optimization-report>
  QMC Execution time = 5.363 secs
  Reusing QMCFixedSampleLinearOptimize
 Using QMCCostFunction::QMCCostFunction

=========================================================
  Start QMCFixedSampleLinearOptimize
  File Root Ge.log.s004 append = no 
=========================================================
  Skip QMCDriver::putQMCInfo 
  Resetting Properties of the walkers 1 x 13

=========================================================
  Start VMC
  File Root Ge.log.s004 append = no 
=========================================================
Using existing walkers 
  Resetting Properties of the walkers 1 x 13

<vmc function="put">
  qmc_counter=3  my_counter=3
  time step      = 1.5000e-01
  blocks         = 500
  steps          = 1
  substeps       = 5
  current        = 0
  target samples = 5.1200e+05
  walkers/mpi    = 1

  stepsbetweensamples = 1
<parameter name="blocks" condition="int">500</parameter>
<parameter name="blocks_between_recompute" condition="int">0</parameter>
<parameter name="check_properties" condition="int">100</parameter>
<parameter name="checkproperties" condition="int">100</parameter>
<parameter name="current" condition="int">0</parameter>
<parameter name="dmcwalkersperthread" condition="real">5.0000e+02</parameter>
<parameter name="maxcpusecs" condition="real">3.6000e+05</parameter>
<parameter name="record_configs" condition="int">0</parameter>
<parameter name="record_walkers" condition="int">1</parameter>
<parameter name="recordconfigs" condition="int">0</parameter>
<parameter name="recordwalkers" condition="int">1</parameter>
<parameter name="rewind" condition="int">0</parameter>
<parameter name="samples" condition="real">5.1200e+05</parameter>
<parameter name="samplesperthread" condition="real">5.0000e+02</parameter>
<parameter name="steps" condition="int">1</parameter>
<parameter name="stepsbetweensamples" condition="int">1</parameter>
<parameter name="store_configs" condition="int">0</parameter>
<parameter name="storeconfigs" condition="int">0</parameter>
<parameter name="sub_steps" condition="int">5</parameter>
<parameter name="substeps" condition="int">5</parameter>
<parameter name="tau" condition="au">1.5000e-01</parameter>
<parameter name="time_step" condition="au">1.5000e-01</parameter>
<parameter name="timestep" condition="au">1.5000e-01</parameter>
<parameter name="use_drift" condition="string">no</parameter>
<parameter name="usedrift" condition="string">no</parameter>
<parameter name="walkers" condition="int">1</parameter>
<parameter name="warmup_steps" condition="int">0</parameter>
<parameter name="warmupsteps" condition="int">0</parameter>
  DumpConfig==false Nothing (configurations, state) will be saved.
  Walker Samples are dumped every 1 steps.
</vmc>
  Set drift_modifier UNR parameter a = 1.0000e+00
  EstimatorManagerBase::add replace LocalEnergy estimator.
  Set drift_modifier UNR parameter a = 1.0000e+00
  EstimatorManagerBase::add replace LocalEnergy estimator.
<optimization-report>
<vmc stage="main" blocks="500">
  Cannot make clones again. Use existing 1 clones
  Initial partition of walkers 0 1 
  Using Particle by Particle moves
  Walker moves without drift
  Total Sample Size   =512000
  Walker distribution on root = 0 1 
  Using Locality Approximation
===== Memory Usage after the buffer registration =====
Available memory on node 0, free + buffers : 52000 MB
Memory footprint by rank 0 on node 0       : 597 MB
==================================================
====================================================
  SimpleFixedNodeBranch::finalize after a VMC block
    QMC counter        = 4
    time step          = 0.15
    reference energy   = -3.72158
    reference variance = 0.0655548
====================================================
  Execution time = 3.5113e+00
</vmc>
<opt stage="setup">
  <log>
   Reading configurations from h5FileRoot Ge.log.s004
  QMCCostFunction is created with 1 threads.
  Using Nonlocal PP in Opt: NonLocalECP
   Number of samples loaded to each thread : 500 
  VMC Eavg = -3.6454e+00
  VMC Evar = 5.5573e-01
  Total weights = 5.1200e+05
  Execution time = 9.0768e-01
  </log>
</opt>
<opt stage="main" walkers="512000">
  <log>

*****************************************
Building overlap and Hamiltonian matrices
*****************************************

Among totally 82 optimized parameters, largest LM parameter change : 1.7376e-02 at parameter 17

******************************************************************************
Init Cost =  -3.4353e+00    New Cost =  -3.4374e+00  Delta Cost =  -2.0592e-03
******************************************************************************

The new set of parameters is valid. Updating the trial wave function!

*****************************************************************************
Applying the update for shift_i =   1.0000e-02     and shift_s =   3.9062e-03
*****************************************************************************
  Execution time = 5.3977e+00
  </log>
  <optVariables href="Ge.log.s004.opt.xml">
   uu_0                 4.071342e-01 1 1  ON 0
   uu_1                 2.648418e-01 1 1  ON 1
   uu_2                 1.423785e-01 1 1  ON 2
   uu_3                 5.562574e-02 1 1  ON 3
   uu_4                -1.985602e-02 1 1  ON 4
   uu_5                -8.245102e-02 1 1  ON 5
   uu_6                -1.194075e-01 1 1  ON 6
   uu_7                -1.359610e-01 1 1  ON 7
   uu_8                -1.236296e-01 1 1  ON 8
   uu_9                -1.059862e-01 1 1  ON 9
   ud_0                 1.276645e+00 1 1  ON 10
   ud_1                 8.975944e-01 1 1  ON 11
   ud_2                 6.524133e-01 1 1  ON 12
   ud_3                 4.646940e-01 1 1  ON 13
   ud_4                 3.374060e-01 1 1  ON 14
   ud_5                 2.291548e-01 1 1  ON 15
   ud_6                 1.235262e-01 1 1  ON 16
   ud_7                 3.818496e-02 1 1  ON 17
   ud_8                -2.961977e-02 1 1  ON 18
   ud_9                -7.885847e-02 1 1  ON 19
  eGe_0                -5.154239e-01 1 1  ON 20
  eGe_1                -4.660426e-01 1 1  ON 21
  eGe_2                -4.624153e-01 1 1  ON 22
  eGe_3                -2.685039e-01 1 1  ON 23
  eGe_4                -6.915249e-03 1 1  ON 24
  eGe_5                 1.370544e-01 1 1  ON 25
  eGe_6                 2.797563e-01 1 1  ON 26
  eGe_7                 3.681746e-01 1 1  ON 27
  eGe_8                 3.713330e-01 1 1  ON 28
  eGe_9                 3.039588e-01 1 1  ON 29
 uuGe_0                 1.974876e-05 1 1  ON 30
 uuGe_1                 6.992643e-05 1 1  ON 31
 uuGe_2                 3.365358e-05 1 1  ON 32
 uuGe_3                -2.993854e-05 1 1  ON 33
 uuGe_4                -1.184452e-05 1 1  ON 34
 uuGe_5                -2.164447e-06 1 1  ON 35
 uuGe_6                 3.693530e-05 1 1  ON 36
 uuGe_7                 1.577401e-04 1 1  ON 37
 uuGe_8                 7.016116e-05 1 1  ON 38
 uuGe_9                -1.103835e-04 1 1  ON 39
uuGe_10                -1.795203e-05 1 1  ON 40
uuGe_11                -8.599941e-05 1 1  ON 41
uuGe_12                -5.667908e-06 1 1  ON 42
uuGe_13                 5.966192e-05 1 1  ON 43
uuGe_14                 1.850797e-05 1 1  ON 44
uuGe_15                -1.521080e-06 1 1  ON 45
uuGe_16                 7.001963e-05 1 1  ON 46
uuGe_17                 5.733208e-05 1 1  ON 47
uuGe_18                 1.778893e-05 1 1  ON 48
uuGe_19                -5.342098e-06 1 1  ON 49
uuGe_20                -2.625687e-05 1 1  ON 50
uuGe_21                -2.032543e-06 1 1  ON 51
uuGe_22                 1.371202e-06 1 1  ON 52
uuGe_23                 6.284926e-06 1 1  ON 53
uuGe_24                -2.694928e-07 1 1  ON 54
uuGe_25                -2.312544e-07 1 1  ON 55
 udGe_0                -1.070226e-04 1 1  ON 56
 udGe_1                -5.156773e-05 1 1  ON 57
 udGe_2                 5.691123e-05 1 1  ON 58
 udGe_3                 2.643112e-04 1 1  ON 59
 udGe_4                 4.054751e-05 1 1  ON 60
 udGe_5                 6.033260e-06 1 1  ON 61
 udGe_6                 3.229562e-04 1 1  ON 62
 udGe_7                -1.495789e-04 1 1  ON 63
 udGe_8                -1.776588e-04 1 1  ON 64
 udGe_9                -1.570848e-04 1 1  ON 65
udGe_10                 1.445046e-04 1 1  ON 66
udGe_11                 3.520328e-05 1 1  ON 67
udGe_12                 5.348841e-05 1 1  ON 68
udGe_13                -2.757417e-04 1 1  ON 69
udGe_14                -6.871029e-05 1 1  ON 70
udGe_15                 1.581674e-06 1 1  ON 71
udGe_16                 4.072439e-04 1 1  ON 72
udGe_17                -4.013555e-04 1 1  ON 73
udGe_18                 7.468257e-05 1 1  ON 74
udGe_19                -1.950060e-05 1 1  ON 75
udGe_20                 1.594541e-05 1 1  ON 76
udGe_21                 3.302238e-06 1 1  ON 77
udGe_22                 2.260722e-07 1 1  ON 78
udGe_23                -1.914176e-07 1 1  ON 79
udGe_24                 5.723019e-08 1 1  ON 80
udGe_25                 5.255332e-08 1 1  ON 81
  </optVariables>
   Restore the number of walkers to 1, removing 0 walkers.
</opt>
</optimization-report>
  QMC Execution time = 5.41 secs
  Reusing QMCFixedSampleLinearOptimize
 Using QMCCostFunction::QMCCostFunction

=========================================================
  Start QMCFixedSampleLinearOptimize
  File Root Ge.log.s005 append = no 
=========================================================
  Skip QMCDriver::putQMCInfo 
  Resetting Properties of the walkers 1 x 13

=========================================================
  Start VMC
  File Root Ge.log.s005 append = no 
=========================================================
Using existing walkers 
  Resetting Properties of the walkers 1 x 13

<vmc function="put">
  qmc_counter=4  my_counter=4
  time step      = 1.5000e-01
  blocks         = 500
  steps          = 1
  substeps       = 5
  current        = 0
  target samples = 5.1200e+05
  walkers/mpi    = 1

  stepsbetweensamples = 1
<parameter name="blocks" condition="int">500</parameter>
<parameter name="blocks_between_recompute" condition="int">0</parameter>
<parameter name="check_properties" condition="int">100</parameter>
<parameter name="checkproperties" condition="int">100</parameter>
<parameter name="current" condition="int">0</parameter>
<parameter name="dmcwalkersperthread" condition="real">5.0000e+02</parameter>
<parameter name="maxcpusecs" condition="real">3.6000e+05</parameter>
<parameter name="record_configs" condition="int">0</parameter>
<parameter name="record_walkers" condition="int">1</parameter>
<parameter name="recordconfigs" condition="int">0</parameter>
<parameter name="recordwalkers" condition="int">1</parameter>
<parameter name="rewind" condition="int">0</parameter>
<parameter name="samples" condition="real">5.1200e+05</parameter>
<parameter name="samplesperthread" condition="real">5.0000e+02</parameter>
<parameter name="steps" condition="int">1</parameter>
<parameter name="stepsbetweensamples" condition="int">1</parameter>
<parameter name="store_configs" condition="int">0</parameter>
<parameter name="storeconfigs" condition="int">0</parameter>
<parameter name="sub_steps" condition="int">5</parameter>
<parameter name="substeps" condition="int">5</parameter>
<parameter name="tau" condition="au">1.5000e-01</parameter>
<parameter name="time_step" condition="au">1.5000e-01</parameter>
<parameter name="timestep" condition="au">1.5000e-01</parameter>
<parameter name="use_drift" condition="string">no</parameter>
<parameter name="usedrift" condition="string">no</parameter>
<parameter name="walkers" condition="int">1</parameter>
<parameter name="warmup_steps" condition="int">0</parameter>
<parameter name="warmupsteps" condition="int">0</parameter>
  DumpConfig==false Nothing (configurations, state) will be saved.
  Walker Samples are dumped every 1 steps.
</vmc>
  Set drift_modifier UNR parameter a = 1.0000e+00
  EstimatorManagerBase::add replace LocalEnergy estimator.
  Set drift_modifier UNR parameter a = 1.0000e+00
  EstimatorManagerBase::add replace LocalEnergy estimator.
<optimization-report>
<vmc stage="main" blocks="500">
  Cannot make clones again. Use existing 1 clones
  Initial partition of walkers 0 1 
  Using Particle by Particle moves
  Walker moves without drift
  Total Sample Size   =512000
  Walker distribution on root = 0 1 
  Using Locality Approximation
===== Memory Usage after the buffer registration =====
Available memory on node 0, free + buffers : 51996 MB
Memory footprint by rank 0 on node 0       : 600 MB
==================================================
====================================================
  SimpleFixedNodeBranch::finalize after a VMC block
    QMC counter        = 5
    time step          = 0.15
    reference energy   = -3.72062
    reference variance = 0.0772776
====================================================
  Execution time = 3.5008e+00
</vmc>
<opt stage="setup">
  <log>
   Reading configurations from h5FileRoot Ge.log.s005
  QMCCostFunction is created with 1 threads.
  Using Nonlocal PP in Opt: NonLocalECP
   Number of samples loaded to each thread : 500 
  VMC Eavg = -3.6519e+00
  VMC Evar = 4.6619e-01
  Total weights = 5.1200e+05
  Execution time = 9.0817e-01
  </log>
</opt>
<opt stage="main" walkers="512000">
  <log>

*****************************************
Building overlap and Hamiltonian matrices
*****************************************

Among totally 82 optimized parameters, largest LM parameter change : 1.0409e-02 at parameter 19

******************************************************************************
Init Cost =  -3.4460e+00    New Cost =  -3.4441e+00  Delta Cost =   1.8593e-03
******************************************************************************

The new set of parameters is valid. Updating the trial wave function!

*****************************************************************************
Applying the update for shift_i =   1.0000e-02     and shift_s =   3.9062e-03
*****************************************************************************
  Execution time = 5.3911e+00
  </log>
  <optVariables href="Ge.log.s005.opt.xml">
   uu_0                 4.133687e-01 1 1  ON 0
   uu_1                 2.725093e-01 1 1  ON 1
   uu_2                 1.473167e-01 1 1  ON 2
   uu_3                 6.095273e-02 1 1  ON 3
   uu_4                -1.411196e-02 1 1  ON 4
   uu_5                -7.785576e-02 1 1  ON 5
   uu_6                -1.188185e-01 1 1  ON 6
   uu_7                -1.322858e-01 1 1  ON 7
   uu_8                -1.214003e-01 1 1  ON 8
   uu_9                -1.018480e-01 1 1  ON 9
   ud_0                 1.277585e+00 1 1  ON 10
   ud_1                 9.034772e-01 1 1  ON 11
   ud_2                 6.585730e-01 1 1  ON 12
   ud_3                 4.734360e-01 1 1  ON 13
   ud_4                 3.448335e-01 1 1  ON 14
   ud_5                 2.350855e-01 1 1  ON 15
   ud_6                 1.318037e-01 1 1  ON 16
   ud_7                 4.824143e-02 1 1  ON 17
   ud_8                -1.937950e-02 1 1  ON 18
   ud_9                -6.844904e-02 1 1  ON 19
  eGe_0                -5.255979e-01 1 1  ON 20
  eGe_1                -4.623925e-01 1 1  ON 21
  eGe_2                -4.699039e-01 1 1  ON 22
  eGe_3                -2.707631e-01 1 1  ON 23
  eGe_4                -1.089791e-02 1 1  ON 24
  eGe_5                 1.296896e-01 1 1  ON 25
  eGe_6                 2.749189e-01 1 1  ON 26
  eGe_7                 3.691022e-01 1 1  ON 27
  eGe_8                 3.748629e-01 1 1  ON 28
  eGe_9                 3.052838e-01 1 1  ON 29
 uuGe_0                 1.910074e-05 1 1  ON 30
 uuGe_1                 2.453016e-05 1 1  ON 31
 uuGe_2                 1.169115e-05 1 1  ON 32
 uuGe_3                -1.674920e-05 1 1  ON 33
 uuGe_4                -6.008872e-06 1 1  ON 34
 uuGe_5                -5.083471e-07 1 1  ON 35
 uuGe_6                -4.170752e-05 1 1  ON 36
 uuGe_7                 1.589656e-04 1 1  ON 37
 uuGe_8                 4.980922e-05 1 1  ON 38
 uuGe_9                -4.470856e-05 1 1  ON 39
uuGe_10                -6.307039e-06 1 1  ON 40
uuGe_11                -7.800633e-05 1 1  ON 41
uuGe_12                -1.845404e-06 1 1  ON 42
uuGe_13                 3.755651e-05 1 1  ON 43
uuGe_14                 1.541181e-05 1 1  ON 44
uuGe_15                -1.516490e-06 1 1  ON 45
uuGe_16                 1.262407e-05 1 1  ON 46
uuGe_17                 4.400338e-05 1 1  ON 47
uuGe_18                 2.408721e-05 1 1  ON 48
uuGe_19                -6.789050e-06 1 1  ON 49
uuGe_20                -1.317271e-05 1 1  ON 50
uuGe_21                -3.671129e-06 1 1  ON 51
uuGe_22                 1.617696e-06 1 1  ON 52
uuGe_23                 4.164166e-06 1 1  ON 53
uuGe_24                 2.431188e-07 1 1  ON 54
uuGe_25                -3.076067e-07 1 1  ON 55
 udGe_0                -1.341430e-04 1 1  ON 56
 udGe_1                -1.988406e-04 1 1  ON 57
 udGe_2                 1.991956e-05 1 1  ON 58
 udGe_3                 3.109586e-04 1 1  ON 59
 udGe_4                 5.003047e-05 1 1  ON 60
 udGe_5                 1.232716e-05 1 1  ON 61
 udGe_6                 1.039038e-04 1 1  ON 62
 udGe_7                -7.543424e-05 1 1  ON 63
 udGe_8                -2.036270e-04 1 1  ON 64
 udGe_9                 2.996216e-05 1 1  ON 65
udGe_10                 1.737214e-04 1 1  ON 66
udGe_11                 3.569398e-05 1 1  ON 67
udGe_12                 5.850765e-05 1 1  ON 68
udGe_13                -3.370945e-04 1 1  ON 69
udGe_14                -6.869429e-05 1 1  ON 70
udGe_15                 1.218389e-06 1 1  ON 71
udGe_16                 2.081934e-04 1 1  ON 72
udGe_17                -3.980751e-04 1 1  ON 73
udGe_18                 6.765922e-05 1 1  ON 74
udGe_19                -2.007643e-05 1 1  ON 75
udGe_20                 6.778271e-05 1 1  ON 76
udGe_21                 3.140722e-06 1 1  ON 77
udGe_22                 2.999510e-07 1 1  ON 78
udGe_23                -1.308693e-05 1 1  ON 79
udGe_24                 3.734938e-07 1 1  ON 80
udGe_25                 2.689234e-08 1 1  ON 81
  </optVariables>
   Restore the number of walkers to 1, removing 0 walkers.
</opt>
</optimization-report>
  QMC Execution time = 5.403 secs
  Reusing QMCFixedSampleLinearOptimize
 Using QMCCostFunction::QMCCostFunction

=========================================================
  Start QMCFixedSampleLinearOptimize
  File Root Ge.log.s006 append = no 
=========================================================
  Skip QMCDriver::putQMCInfo 
  Resetting Properties of the walkers 1 x 13

=========================================================
  Start VMC
  File Root Ge.log.s006 append = no 
=========================================================
Using existing walkers 
  Resetting Properties of the walkers 1 x 13

<vmc function="put">
  qmc_counter=5  my_counter=5
  time step      = 1.5000e-01
  blocks         = 500
  steps          = 1
  substeps       = 5
  current        = 0
  target samples = 5.1200e+05
  walkers/mpi    = 1

  stepsbetweensamples = 1
<parameter name="blocks" condition="int">500</parameter>
<parameter name="blocks_between_recompute" condition="int">0</parameter>
<parameter name="check_properties" condition="int">100</parameter>
<parameter name="checkproperties" condition="int">100</parameter>
<parameter name="current" condition="int">0</parameter>
<parameter name="dmcwalkersperthread" condition="real">5.0000e+02</parameter>
<parameter name="maxcpusecs" condition="real">3.6000e+05</parameter>
<parameter name="record_configs" condition="int">0</parameter>
<parameter name="record_walkers" condition="int">1</parameter>
<parameter name="recordconfigs" condition="int">0</parameter>
<parameter name="recordwalkers" condition="int">1</parameter>
<parameter name="rewind" condition="int">0</parameter>
<parameter name="samples" condition="real">5.1200e+05</parameter>
<parameter name="samplesperthread" condition="real">5.0000e+02</parameter>
<parameter name="steps" condition="int">1</parameter>
<parameter name="stepsbetweensamples" condition="int">1</parameter>
<parameter name="store_configs" condition="int">0</parameter>
<parameter name="storeconfigs" condition="int">0</parameter>
<parameter name="sub_steps" condition="int">5</parameter>
<parameter name="substeps" condition="int">5</parameter>
<parameter name="tau" condition="au">1.5000e-01</parameter>
<parameter name="time_step" condition="au">1.5000e-01</parameter>
<parameter name="timestep" condition="au">1.5000e-01</parameter>
<parameter name="use_drift" condition="string">no</parameter>
<parameter name="usedrift" condition="string">no</parameter>
<parameter name="walkers" condition="int">1</parameter>
<parameter name="warmup_steps" condition="int">0</parameter>
<parameter name="warmupsteps" condition="int">0</parameter>
  DumpConfig==false Nothing (configurations, state) will be saved.
  Walker Samples are dumped every 1 steps.
</vmc>
  Set drift_modifier UNR parameter a = 1.0000e+00
  EstimatorManagerBase::add replace LocalEnergy estimator.
  Set drift_modifier UNR parameter a = 1.0000e+00
  EstimatorManagerBase::add replace LocalEnergy estimator.
<optimization-report>
<vmc stage="main" blocks="500">
  Cannot make clones again. Use existing 1 clones
  Initial partition of walkers 0 1 
  Using Particle by Particle moves
  Walker moves without drift
  Total Sample Size   =512000
  Walker distribution on root = 0 1 
  Using Locality Approximation
===== Memory Usage after the buffer registration =====
Available memory on node 0, free + buffers : 51993 MB
Memory footprint by rank 0 on node 0       : 603 MB
==================================================
====================================================
  SimpleFixedNodeBranch::finalize after a VMC block
    QMC counter        = 6
    time step          = 0.15
    reference energy   = -3.72604
    reference variance = 0.0655851
====================================================
  Execution time = 3.5268e+00
</vmc>
<opt stage="setup">
  <log>
   Reading configurations from h5FileRoot Ge.log.s006
  QMCCostFunction is created with 1 threads.
  Using Nonlocal PP in Opt: NonLocalECP
   Number of samples loaded to each thread : 500 
  VMC Eavg = -3.6497e+00
  VMC Evar = 5.3221e-01
  Total weights = 5.1200e+05
  Execution time = 9.1012e-01
  </log>
</opt>
<opt stage="main" walkers="512000">
  <log>

*****************************************
Building overlap and Hamiltonian matrices
*****************************************

Among totally 82 optimized parameters, largest LM parameter change : 1.2838e-02 at parameter 14

******************************************************************************
Init Cost =  -3.4407e+00    New Cost =  -3.4421e+00  Delta Cost =  -1.4093e-03
******************************************************************************

The new set of parameters is valid. Updating the trial wave function!

*****************************************************************************
Applying the update for shift_i =   1.0000e-02     and shift_s =   3.9062e-03
*****************************************************************************
  Execution time = 5.4249e+00
  </log>
  <optVariables href="Ge.log.s006.opt.xml">
   uu_0                 4.191644e-01 1 1  ON 0
   uu_1                 2.810165e-01 1 1  ON 1
   uu_2                 1.540534e-01 1 1  ON 2
   uu_3                 6.356672e-02 1 1  ON 3
   uu_4                -1.312628e-02 1 1  ON 4
   uu_5                -7.764432e-02 1 1  ON 5
   uu_6                -1.188100e-01 1 1  ON 6
   uu_7                -1.303526e-01 1 1  ON 7
   uu_8                -1.199700e-01 1 1  ON 8
   uu_9                -1.013293e-01 1 1  ON 9
   ud_0                 1.279778e+00 1 1  ON 10
   ud_1                 9.076929e-01 1 1  ON 11
   ud_2                 6.644361e-01 1 1  ON 12
   ud_3                 4.841904e-01 1 1  ON 13
   ud_4                 3.576714e-01 1 1  ON 14
   ud_5                 2.476902e-01 1 1  ON 15
   ud_6                 1.408712e-01 1 1  ON 16
   ud_7                 5.382846e-02 1 1  ON 17
   ud_8                -1.373736e-02 1 1  ON 18
   ud_9                -6.233929e-02 1 1  ON 19
  eGe_0                -5.257948e-01 1 1  ON 20
  eGe_1                -4.651222e-01 1 1  ON 21
  eGe_2                -4.727990e-01 1 1  ON 22
  eGe_3                -2.773455e-01 1 1  ON 23
  eGe_4                -2.370076e-02 1 1  ON 24
  eGe_5                 1.215825e-01 1 1  ON 25
  eGe_6                 2.696987e-01 1 1  ON 26
  eGe_7                 3.738694e-01 1 1  ON 27
  eGe_8                 3.839078e-01 1 1  ON 28
  eGe_9                 3.111148e-01 1 1  ON 29
 uuGe_0                 1.037468e-05 1 1  ON 30
 uuGe_1                 5.352763e-05 1 1  ON 31
 uuGe_2                 3.531185e-05 1 1  ON 32
 uuGe_3                -2.841785e-05 1 1  ON 33
 uuGe_4                -1.300448e-05 1 1  ON 34
 uuGe_5                -2.656513e-06 1 1  ON 35
 uuGe_6                 1.038900e-05 1 1  ON 36
 uuGe_7                 1.659256e-04 1 1  ON 37
 uuGe_8                 7.598057e-05 1 1  ON 38
 uuGe_9                -7.663966e-05 1 1  ON 39
uuGe_10                -1.637384e-05 1 1  ON 40
uuGe_11                -9.213665e-05 1 1  ON 41
uuGe_12                -8.459440e-06 1 1  ON 42
uuGe_13                 5.282013e-05 1 1  ON 43
uuGe_14                 2.115703e-05 1 1  ON 44
uuGe_15                -1.489494e-06 1 1  ON 45
uuGe_16                 3.495526e-05 1 1  ON 46
uuGe_17                 5.744457e-05 1 1  ON 47
uuGe_18                 2.729334e-05 1 1  ON 48
uuGe_19                -4.998195e-06 1 1  ON 49
uuGe_20                -2.080441e-05 1 1  ON 50
uuGe_21                -4.806420e-06 1 1  ON 51
uuGe_22                 1.643278e-06 1 1  ON 52
uuGe_23                 5.830998e-06 1 1  ON 53
uuGe_24                 3.445905e-07 1 1  ON 54
uuGe_25                -3.320163e-07 1 1  ON 55
 udGe_0                -5.710710e-05 1 1  ON 56
 udGe_1                -2.491005e-04 1 1  ON 57
 udGe_2                -7.831560e-05 1 1  ON 58
 udGe_3                 2.777738e-04 1 1  ON 59
 udGe_4                 6.356458e-05 1 1  ON 60
 udGe_5                 1.871792e-05 1 1  ON 61
 udGe_6                -1.098251e-04 1 1  ON 62
 udGe_7                -6.583747e-05 1 1  ON 63
 udGe_8                -2.533527e-04 1 1  ON 64
 udGe_9                 1.086735e-04 1 1  ON 65
udGe_10                 1.657759e-04 1 1  ON 66
udGe_11                 7.679397e-05 1 1  ON 67
udGe_12                 6.927221e-05 1 1  ON 68
udGe_13                -3.036175e-04 1 1  ON 69
udGe_14                -7.228347e-05 1 1  ON 70
udGe_15                 6.804503e-07 1 1  ON 71
udGe_16                 1.075991e-04 1 1  ON 72
udGe_17                -3.481893e-04 1 1  ON 73
udGe_18                 4.233802e-05 1 1  ON 74
udGe_19                -2.251521e-05 1 1  ON 75
udGe_20                 6.910240e-05 1 1  ON 76
udGe_21                 5.424805e-06 1 1  ON 77
udGe_22                 4.143556e-07 1 1  ON 78
udGe_23                -1.232015e-05 1 1  ON 79
udGe_24                 1.177405e-07 1 1  ON 80
udGe_25                 3.289368e-08 1 1  ON 81
  </optVariables>
   Restore the number of walkers to 1, removing 0 walkers.
</opt>
</optimization-report>
  QMC Execution time = 5.437 secs
  Reusing QMCFixedSampleLinearOptimize
 Using QMCCostFunction::QMCCostFunction

=========================================================
  Start QMCFixedSampleLinearOptimize
  File Root Ge.log.s007 append = no 
=========================================================
  Skip QMCDriver::putQMCInfo 
  Resetting Properties of the walkers 1 x 13

=========================================================
  Start VMC
  File Root Ge.log.s007 append = no 
=========================================================
Using existing walkers 
  Resetting Properties of the walkers 1 x 13

<vmc function="put">
  qmc_counter=6  my_counter=6
  time step      = 1.5000e-01
  blocks         = 500
  steps          = 1
  substeps       = 5
  current        = 0
  target samples = 5.1200e+05
  walkers/mpi    = 1

  stepsbetweensamples = 1
<parameter name="blocks" condition="int">500</parameter>
<parameter name="blocks_between_recompute" condition="int">0</parameter>
<parameter name="check_properties" condition="int">100</parameter>
<parameter name="checkproperties" condition="int">100</parameter>
<parameter name="current" condition="int">0</parameter>
<parameter name="dmcwalkersperthread" condition="real">5.0000e+02</parameter>
<parameter name="maxcpusecs" condition="real">3.6000e+05</parameter>
<parameter name="record_configs" condition="int">0</parameter>
<parameter name="record_walkers" condition="int">1</parameter>
<parameter name="recordconfigs" condition="int">0</parameter>
<parameter name="recordwalkers" condition="int">1</parameter>
<parameter name="rewind" condition="int">0</parameter>
<parameter name="samples" condition="real">5.1200e+05</parameter>
<parameter name="samplesperthread" condition="real">5.0000e+02</parameter>
<parameter name="steps" condition="int">1</parameter>
<parameter name="stepsbetweensamples" condition="int">1</parameter>
<parameter name="store_configs" condition="int">0</parameter>
<parameter name="storeconfigs" condition="int">0</parameter>
<parameter name="sub_steps" condition="int">5</parameter>
<parameter name="substeps" condition="int">5</parameter>
<parameter name="tau" condition="au">1.5000e-01</parameter>
<parameter name="time_step" condition="au">1.5000e-01</parameter>
<parameter name="timestep" condition="au">1.5000e-01</parameter>
<parameter name="use_drift" condition="string">no</parameter>
<parameter name="usedrift" condition="string">no</parameter>
<parameter name="walkers" condition="int">1</parameter>
<parameter name="warmup_steps" condition="int">0</parameter>
<parameter name="warmupsteps" condition="int">0</parameter>
  DumpConfig==false Nothing (configurations, state) will be saved.
  Walker Samples are dumped every 1 steps.
</vmc>
  Set drift_modifier UNR parameter a = 1.0000e+00
  EstimatorManagerBase::add replace LocalEnergy estimator.
  Set drift_modifier UNR parameter a = 1.0000e+00
  EstimatorManagerBase::add replace LocalEnergy estimator.
<optimization-report>
<vmc stage="main" blocks="500">
  Cannot make clones again. Use existing 1 clones
  Initial partition of walkers 0 1 
  Using Particle by Particle moves
  Walker moves without drift
  Total Sample Size   =512000
  Walker distribution on root = 0 1 
  Using Locality Approximation
===== Memory Usage after the buffer registration =====
Available memory on node 0, free + buffers : 51989 MB
Memory footprint by rank 0 on node 0       : 606 MB
==================================================
====================================================
  SimpleFixedNodeBranch::finalize after a VMC block
    QMC counter        = 7
    time step          = 0.15
    reference energy   = -3.7085
    reference variance = 0.0542196
====================================================
  Execution time = 3.5096e+00
</vmc>
<opt stage="setup">
  <log>
   Reading configurations from h5FileRoot Ge.log.s007
  QMCCostFunction is created with 1 threads.
  Using Nonlocal PP in Opt: NonLocalECP
   Number of samples loaded to each thread : 500 
  VMC Eavg = -3.6460e+00
  VMC Evar = 5.9010e-01
  Total weights = 5.1200e+05
  Execution time = 9.0957e-01
  </log>
</opt>
<opt stage="main" walkers="512000">
  <log>

*****************************************
Building overlap and Hamiltonian matrices
*****************************************

Among totally 82 optimized parameters, largest LM parameter change : 1.4213e-02 at parameter 22

******************************************************************************
Init Cost =  -3.4342e+00    New Cost =  -3.4360e+00  Delta Cost =  -1.8338e-03
******************************************************************************

The new set of parameters is valid. Updating the trial wave function!

*****************************************************************************
Applying the update for shift_i =   1.0000e-02     and shift_s =   3.9062e-03
*****************************************************************************
  Execution time = 5.4400e+00
  </log>
  <optVariables href="Ge.log.s007.opt.xml">
   uu_0                 4.264890e-01 1 1  ON 0
   uu_1                 2.904439e-01 1 1  ON 1
   uu_2                 1.615006e-01 1 1  ON 2
   uu_3                 6.594715e-02 1 1  ON 3
   uu_4                -1.453905e-02 1 1  ON 4
   uu_5                -7.765311e-02 1 1  ON 5
   uu_6                -1.164333e-01 1 1  ON 6
   uu_7                -1.265119e-01 1 1  ON 7
   uu_8                -1.190437e-01 1 1  ON 8
   uu_9                -1.029486e-01 1 1  ON 9
   ud_0                 1.284109e+00 1 1  ON 10
   ud_1                 9.104996e-01 1 1  ON 11
   ud_2                 6.710890e-01 1 1  ON 12
   ud_3                 4.923349e-01 1 1  ON 13
   ud_4                 3.677117e-01 1 1  ON 14
   ud_5                 2.590979e-01 1 1  ON 15
   ud_6                 1.530219e-01 1 1  ON 16
   ud_7                 6.533087e-02 1 1  ON 17
   ud_8                -6.709803e-03 1 1  ON 18
   ud_9                -5.953444e-02 1 1  ON 19
  eGe_0                -5.250887e-01 1 1  ON 20
  eGe_1                -4.792632e-01 1 1  ON 21
  eGe_2                -4.870124e-01 1 1  ON 22
  eGe_3                -2.873418e-01 1 1  ON 23
  eGe_4                -2.200471e-02 1 1  ON 24
  eGe_5                 1.209036e-01 1 1  ON 25
  eGe_6                 2.735012e-01 1 1  ON 26
  eGe_7                 3.835396e-01 1 1  ON 27
  eGe_8                 3.778600e-01 1 1  ON 28
  eGe_9                 3.141296e-01 1 1  ON 29
 uuGe_0                 3.680844e-06 1 1  ON 30
 uuGe_1                 6.777447e-05 1 1  ON 31
 uuGe_2                 5.158090e-05 1 1  ON 32
 uuGe_3                -2.385779e-05 1 1  ON 33
 uuGe_4                -1.284943e-05 1 1  ON 34
 uuGe_5                -3.805657e-06 1 1  ON 35
 uuGe_6                 5.298424e-05 1 1  ON 36
 uuGe_7                 1.514936e-04 1 1  ON 37
 uuGe_8                 7.914197e-05 1 1  ON 38
 uuGe_9                -1.029060e-04 1 1  ON 39
uuGe_10                -1.174631e-05 1 1  ON 40
uuGe_11                -9.412827e-05 1 1  ON 41
uuGe_12                -7.602128e-06 1 1  ON 42
uuGe_13                 5.119100e-05 1 1  ON 43
uuGe_14                 1.893907e-05 1 1  ON 44
uuGe_15                -1.384368e-06 1 1  ON 45
uuGe_16                 6.199005e-05 1 1  ON 46
uuGe_17                 4.722897e-05 1 1  ON 47
[...]
   uu_2                 1.967450e-01 1 1  ON 2
   uu_3                 9.218230e-02 1 1  ON 3
   uu_4                 9.686868e-03 1 1  ON 4
   uu_5                -5.314949e-02 1 1  ON 5
   uu_6                -9.290237e-02 1 1  ON 6
   uu_7                -1.066480e-01 1 1  ON 7
   uu_8                -9.805507e-02 1 1  ON 8
   uu_9                -9.430551e-02 1 1  ON 9
   ud_0                 1.352467e+00 1 1  ON 10
   ud_1                 9.795969e-01 1 1  ON 11
   ud_2                 7.407635e-01 1 1  ON 12
   ud_3                 5.623483e-01 1 1  ON 13
   ud_4                 4.351107e-01 1 1  ON 14
   ud_5                 3.251201e-01 1 1  ON 15
   ud_6                 2.160914e-01 1 1  ON 16
   ud_7                 1.275752e-01 1 1  ON 17
   ud_8                 5.069324e-02 1 1  ON 18
   ud_9                -4.990597e-03 1 1  ON 19
  eGe_0                -5.950205e-01 1 1  ON 20
  eGe_1                -5.623008e-01 1 1  ON 21
  eGe_2                -5.591212e-01 1 1  ON 22
  eGe_3                -3.530511e-01 1 1  ON 23
  eGe_4                -7.667031e-02 1 1  ON 24
  eGe_5                 9.386277e-02 1 1  ON 25
  eGe_6                 2.438071e-01 1 1  ON 26
  eGe_7                 3.629118e-01 1 1  ON 27
  eGe_8                 3.766330e-01 1 1  ON 28
  eGe_9                 3.608280e-01 1 1  ON 29
 uuGe_0                 1.958152e-06 1 1  ON 30
 uuGe_1                 5.863709e-05 1 1  ON 31
 uuGe_2                 4.709721e-05 1 1  ON 32
 uuGe_3                -1.513774e-05 1 1  ON 33
 uuGe_4                -1.167447e-05 1 1  ON 34
 uuGe_5                -4.631527e-06 1 1  ON 35
 uuGe_6                 3.917456e-05 1 1  ON 36
 uuGe_7                 1.606448e-04 1 1  ON 37
 uuGe_8                 7.408576e-05 1 1  ON 38
 uuGe_9                -8.657865e-05 1 1  ON 39
uuGe_10                -7.644481e-06 1 1  ON 40
uuGe_11                -9.745819e-05 1 1  ON 41
uuGe_12                -6.830013e-06 1 1  ON 42
uuGe_13                 3.304458e-05 1 1  ON 43
uuGe_14                 1.827112e-05 1 1  ON 44
uuGe_15                -1.372067e-06 1 1  ON 45
uuGe_16                 5.933988e-05 1 1  ON 46
uuGe_17                 3.243260e-05 1 1  ON 47
uuGe_18                 3.222329e-05 1 1  ON 48
uuGe_19                -5.657862e-06 1 1  ON 49
uuGe_20                -1.589882e-05 1 1  ON 50
uuGe_21                -4.103464e-06 1 1  ON 51
uuGe_22                 1.534049e-06 1 1  ON 52
uuGe_23                 3.635192e-06 1 1  ON 53
uuGe_24                 2.007401e-07 1 1  ON 54
uuGe_25                -2.920905e-07 1 1  ON 55
 udGe_0                -6.465381e-05 1 1  ON 56
 udGe_1                -1.419401e-04 1 1  ON 57
 udGe_2                -5.594594e-05 1 1  ON 58
 udGe_3                 2.480946e-04 1 1  ON 59
 udGe_4                 5.655406e-05 1 1  ON 60
 udGe_5                 1.136167e-05 1 1  ON 61
 udGe_6                 8.409881e-05 1 1  ON 62
 udGe_7                -1.769127e-04 1 1  ON 63
 udGe_8                -2.530651e-04 1 1  ON 64
 udGe_9                 4.187013e-06 1 1  ON 65
udGe_10                 1.347434e-04 1 1  ON 66
udGe_11                 1.307144e-04 1 1  ON 67
udGe_12                 6.604356e-05 1 1  ON 68
udGe_13                -2.666048e-04 1 1  ON 69
udGe_14                -7.721076e-05 1 1  ON 70
udGe_15                 1.288537e-06 1 1  ON 71
udGe_16                 1.859919e-04 1 1  ON 72
udGe_17                -3.212912e-04 1 1  ON 73
udGe_18                 1.378871e-06 1 1  ON 74
udGe_19                -1.813071e-05 1 1  ON 75
udGe_20                 4.940860e-05 1 1  ON 76
udGe_21                 1.167315e-05 1 1  ON 77
udGe_22                -4.408517e-07 1 1  ON 78
udGe_23                -8.392782e-06 1 1  ON 79
udGe_24                -1.039861e-06 1 1  ON 80
udGe_25                 2.075536e-07 1 1  ON 81
  </optVariables>
   Restore the number of walkers to 1, removing 0 walkers.
</opt>
</optimization-report>
  QMC Execution time = 5.49 secs

=========================================================
  Start VMC
  File Root Ge.log.s021 append = no 
=========================================================
  Using the current 1 walkers.
  Total number of walkers: 1024
  Total weight: 1024
  Resetting Properties of the walkers 1 x 13

<vmc function="put">
  qmc_counter=0  my_counter=0
  time step      = 0.15
  blocks         = 200
  steps          = 1
  substeps       = 30
  current        = 0
  target samples = 4096
  walkers/mpi    = 1

  stepsbetweensamples = 50
<parameter name="blocks" condition="int">200</parameter>
<parameter name="blocks_between_recompute" condition="int">0</parameter>
<parameter name="check_properties" condition="int">100</parameter>
<parameter name="checkproperties" condition="int">100</parameter>
<parameter name="current" condition="int">0</parameter>
<parameter name="dmcwalkersperthread" condition="real">4</parameter>
<parameter name="maxcpusecs" condition="real">3.6e+05</parameter>
<parameter name="record_configs" condition="int">0</parameter>
<parameter name="record_walkers" condition="int">50</parameter>
<parameter name="recordconfigs" condition="int">0</parameter>
<parameter name="recordwalkers" condition="int">50</parameter>
<parameter name="rewind" condition="int">0</parameter>
<parameter name="samples" condition="real">4096</parameter>
<parameter name="samplesperthread" condition="real">4</parameter>
<parameter name="steps" condition="int">1</parameter>
<parameter name="stepsbetweensamples" condition="int">50</parameter>
<parameter name="store_configs" condition="int">0</parameter>
<parameter name="storeconfigs" condition="int">0</parameter>
<parameter name="sub_steps" condition="int">30</parameter>
<parameter name="substeps" condition="int">30</parameter>
<parameter name="tau" condition="au">0.15</parameter>
<parameter name="time_step" condition="au">0.15</parameter>
<parameter name="timestep" condition="au">0.15</parameter>
<parameter name="use_drift" condition="string">no</parameter>
<parameter name="usedrift" condition="string">no</parameter>
<parameter name="walkers" condition="int">1</parameter>
<parameter name="warmup_steps" condition="int">100</parameter>
<parameter name="warmupsteps" condition="int">100</parameter>
  DumpConfig==true Configurations are dumped to config.h5 with a period of 200 blocks
  Walker Samples are dumped every 50 steps.
</vmc>
  Set drift_modifier UNR parameter a = 1
  EstimatorManagerBase::add replace LocalEnergy estimator.
  Cannot make clones again. Use existing 1 clones
  Initial partition of walkers 0 1 

  Using Particle by Particle moves
  Walker moves without drift
  Total Sample Size   =4096
  Walker distribution on root = 0 1 
  Using Locality Approximation
===== Memory Usage after the buffer registration =====
Available memory on node 0, free + buffers : 51929 MB
Memory footprint by rank 0 on node 0       : 651 MB
==================================================
  Anonymous Buffer size per walker : 1440 Bytes.
MEMORY increase 0 MB VMC::resetRun
  samples are written to the config.h5
====================================================
  SimpleFixedNodeBranch::finalize after a VMC block
    QMC counter        = 21
    time step          = 0.15
    reference energy   = -3.71555
    reference variance = 0.0695383
====================================================
  QMC Execution time = 2.661 secs

=========================================================
  Start DMC
  File Root Ge.log.s022 append = no 
=========================================================
Using existing walkers 
  Resetting Properties of the walkers 1 x 13
  Set drift_modifier UNR parameter a = 1
  EstimatorManagerBase::add replace LocalEnergy estimator.
  Cannot make clones again. Use existing 1 clones
  Total number of walkers: 4096
  Total weight: 4096
  Creating WalkerController: target  number of walkers = 4096
  Using WalkerControlMPI for dynamic population control.
  START ALL OVER 
  WalkerControlBase parameters 
    maxCopy = 2
    Max Walkers per MPI rank 9
    Min Walkers per MPI rank 1
    Using non-blocking send/recv
  QMC counter      = 22
  time step        = 0.02
  effective time step = 0.02
  trial energy     = -3.716
  reference energy = -3.716
  Feedback = 1
  reference variance = 0.06954
  target walkers = 4096
  branching cutoff scheme classic
  branch cutoff = 50 75
  Max and minimum walkers per node= 9 1
  QMC Status (BranchMode) = 0000001101
  Initial partition of walkers on a node: 0 4 
  Updates by particle-by-particle moves
  DMC moves are rejected when a node crossing is detected
  Using Non-local T-moves v1, M. Casula et al., JCP 132, 154113 (2010)
===== Memory Usage after the buffer registration =====
Available memory on node 0, free + buffers : 51867 MB
Memory footprint by rank 0 on node 0       : 664 MB
==================================================
SimpleFixedNodeBranch::checkParameters 
  Average Energy of a population  = -3.71497
  Energy Variance = 0.0676045

  Fluctuating population
  Persistent walkers are killed after 1 MC sweeps
  BranchInterval = 1
  Steps per block = 50
  Number of blocks = 150

  DMC Engine Initialization = 0.03628 secs

 Warmup is completed after 200

  TauEff     = 0.01993
 TauEff/Tau = 0.9966
  Etrial     = -3.802
 Running average of energy = -3.738
                  Variance = 0.09055
branch cutoff = 10 15
====================================================
  SimpleFixedNodeBranch::finalize after a DMC block
    QMC counter                   = 22
    time step                     = 0.02
    effective time step           = 0.0199318
    trial energy                  = -3.74731
    reference energy              = -3.74244
    reference variance            = 0.0905468
    target walkers                = 4096
    branch cutoff                 = 10 15
    Max and minimum walkers per node= 9 1
    Feedback                      = 1
    QMC Status (BranchMode)       = 0000001111
====================================================
  QMC Execution time = 189.5 secs
  Reusing DMC
BRANCH resetRun
 SimpleFixedNodeBranch::resetRun detected changes in <parameter>'s 
 BranchMode : 0000001111 0000001111
  WalkerControlBase parameters 
    maxCopy = 2
    Max Walkers per MPI rank 9
    Min Walkers per MPI rank 1
    Using non-blocking send/recv
 iParam (old):                  0                 1                22              4096                 9                 1                 1                 0
 iParam (new):                100                 1                22              4096                 9                 1                 1                 0
 vParam (old):               0.02     0.01993180903       -3.74731023        -3.7424393      -3.745330874                15                10               0.2     0.09054684691      -27323.55222              7301                 1                10                 1                 1                 1                 1
 vParam (new):               0.01     0.01993180903       -3.74731023        -3.7424393      -3.745330874                15                10               0.2     0.09054684691      -27323.55222              7301                 1                10                 1                 1                 1                 1

 Using branching cutoff scheme classic
SimpleFixedNodeBranch::checkParameters 
  Average Energy of a population  = -3.74472
  Energy Variance = 0.096912

  Using Non-local T-moves v1, M. Casula et al., JCP 132, 154113 (2010)
===== Memory Usage after the buffer registration =====
Available memory on node 0, free + buffers : 51883 MB
Memory footprint by rank 0 on node 0       : 667 MB
==================================================

=========================================================
  Start DMC
  File Root Ge.log.s023 append = no 
=========================================================
Using existing walkers 
  Resetting Properties of the walkers 1 x 13
  Set drift_modifier UNR parameter a = 1
  EstimatorManagerBase::add replace LocalEnergy estimator.
  Cannot make clones again. Use existing 1 clones
SimpleFixedNodeBranch::checkParameters 
  Average Energy of a population  = -3.74446
  Energy Variance = 0.0950602

  Fluctuating population
  Persistent walkers are killed after 1 MC sweeps
  BranchInterval = 1
  Steps per block = 100
  Number of blocks = 200

  DMC Engine Initialization = 0.0003271102905 secs

 Warmup is completed after 100

  TauEff     = 0.009987855447
 TauEff/Tau = 0.9987855447
  Etrial     = -3.765426535
 Running average of energy = -3.74640976
                  Variance = 0.09733512488
branch cutoff = 10 15
====================================================
  SimpleFixedNodeBranch::finalize after a DMC block
    QMC counter                   = 23
    time step                     = 0.01
    effective time step           = 0.00998748
    trial energy                  = -3.74618
    reference energy              = -3.74252
    reference variance            = 0.0973351
    target walkers                = 4096
    branch cutoff                 = 10 15
    Max and minimum walkers per node= 9 1
    Feedback                      = 1
    QMC Status (BranchMode)       = 0000001111
====================================================
  QMC Execution time = 504 secs
  Reusing DMC
BRANCH resetRun
 SimpleFixedNodeBranch::resetRun detected changes in <parameter>'s 
 BranchMode : 0000001111 0000001111
  WalkerControlBase parameters 
    maxCopy = 2
    Max Walkers per MPI rank 9
    Min Walkers per MPI rank 1
    Using non-blocking send/recv
 iParam (old):                  0                 1                23              4096                 9                 1                 1                 0
 iParam (new):                200                 1                23              4096                 9                 1                 1                 0
 vParam (old):               0.01    0.009987480689      -3.746177007      -3.742521587        -3.7444434                15                10               0.2     0.09733512488      -74479.92402             19901                 1                10                 1                 1                 1                 1
 vParam (new):              0.005    0.009987480689      -3.746177007      -3.742521587        -3.7444434                15                10               0.2     0.09733512488      -74479.92402             19901                 1                10                 1                 1                 1                 1

 Using branching cutoff scheme classic
SimpleFixedNodeBranch::checkParameters 
  Average Energy of a population  = -3.74387
  Energy Variance = 0.08826

  Using Non-local T-moves v1, M. Casula et al., JCP 132, 154113 (2010)
===== Memory Usage after the buffer registration =====
Available memory on node 0, free + buffers : 51855 MB
Memory footprint by rank 0 on node 0       : 670 MB
==================================================

=========================================================
  Start DMC
  File Root Ge.log.s024 append = no 
=========================================================
Using existing walkers 
  Resetting Properties of the walkers 1 x 13
  Set drift_modifier UNR parameter a = 1
  EstimatorManagerBase::add replace LocalEnergy estimator.
  Cannot make clones again. Use existing 1 clones
SimpleFixedNodeBranch::checkParameters 
  Average Energy of a population  = -3.74389
  Energy Variance = 0.0882752

  Fluctuating population
  Persistent walkers are killed after 1 MC sweeps
  BranchInterval = 1
  Steps per block = 200
  Number of blocks = 250

  DMC Engine Initialization = 0.001620054245 secs

 Warmup is completed after 200

  TauEff     = 0.004997712745
 TauEff/Tau = 0.9995425489
  Etrial     = -3.840737413
 Running average of energy = -3.74581753
                  Variance = 0.1001972983
branch cutoff = 10 15
====================================================
  SimpleFixedNodeBranch::finalize after a DMC block
    QMC counter                   = 24
    time step                     = 0.005
    effective time step           = 0.00499775
    trial energy                  = -3.73331
    reference energy              = -3.74263
    reference variance            = 0.100197
    target walkers                = 4096
    branch cutoff                 = 10 15
    Max and minimum walkers per node= 9 1
    Feedback                      = 1
    QMC Status (BranchMode)       = 0000001111
====================================================
  QMC Execution time = 1261 secs
  Reusing DMC
BRANCH resetRun
 SimpleFixedNodeBranch::resetRun detected changes in <parameter>'s 
 BranchMode : 0000001111 0000001111
  WalkerControlBase parameters 
    maxCopy = 2
    Max Walkers per MPI rank 9
    Min Walkers per MPI rank 1
    Using non-blocking send/recv
 iParam (old):                  0                 1                24              4096                 9                 1                 1                 0
 iParam (new):                400                 1                24              4096                 9                 1                 1                 0
 vParam (old):              0.005    0.004997745947      -3.733306072      -3.742626718      -3.737004966                15                10               0.2      0.1001972983      -186386.5476             49801                 1                10                 1                 1                 1                 1
 vParam (new):             0.0025    0.004997745947      -3.733306072      -3.742626718      -3.737004966                15                10               0.2      0.1001972983      -186386.5476             49801                 1                10                 1                 1                 1                 1

 Using branching cutoff scheme classic
SimpleFixedNodeBranch::checkParameters 
  Average Energy of a population  = -3.73656
  Energy Variance = 0.0930218

  Using Non-local T-moves v1, M. Casula et al., JCP 132, 154113 (2010)
===== Memory Usage after the buffer registration =====
Available memory on node 0, free + buffers : 51841 MB
Memory footprint by rank 0 on node 0       : 673 MB
==================================================

=========================================================
  Start DMC
  File Root Ge.log.s025 append = no 
=========================================================
Using existing walkers 
  Resetting Properties of the walkers 1 x 13
  Set drift_modifier UNR parameter a = 1
  EstimatorManagerBase::add replace LocalEnergy estimator.
  Cannot make clones again. Use existing 1 clones
SimpleFixedNodeBranch::checkParameters 
  Average Energy of a population  = -3.73662
  Energy Variance = 0.0930581

  Fluctuating population
  Persistent walkers are killed after 1 MC sweeps
  BranchInterval = 1
  Steps per block = 400
  Number of blocks = 300

  DMC Engine Initialization = 0.0003180503845 secs

 Warmup is completed after 400

  TauEff     = 0.002499572647
 TauEff/Tau = 0.9998290587
  Etrial     = -3.647447453
 Running average of energy = -3.741247913
                  Variance = 0.0911276022
branch cutoff = 10 15
====================================================
  SimpleFixedNodeBranch::finalize after a DMC block
    QMC counter                   = 25
    time step                     = 0.0025
    effective time step           = 0.00249959
    trial energy                  = -3.74096
    reference energy              = -3.74267
    reference variance            = 0.0911276
    target walkers                = 4096
    branch cutoff                 = 10 15
    Max and minimum walkers per node= 9 1
    Feedback                      = 1
    QMC Status (BranchMode)       = 0000001111
====================================================
  QMC Execution time = 3006 secs
  Total Execution time = 5075 secs

=========================================================
  A new xml input file : Ge.log.s025.cont.xml
TACC:  Shutdown complete. Exiting. 
