
 Primary working directories    : /global/cscratch1/sd/aannabe
 Secondary working directories  : /global/cscratch1/sd/aannabe
 Wavefunction directory         : /global/homes/a/aannabe/wfu/
 Main file repository           : /global/cscratch1/sd/aannabe/

 SHA1      : 19cd028119e0e09f93f0674bd8af7968d9b3eff6
 NAME      : 2015.1.36
 ARCHNAME  : linux/x86_64
 FC        : /opt/cray/pe/craype/2.5.14/bin/ftn
 BLASLIB   : -L/opt/intel/compilers_and_libraries_2018.1.163/linux/mkl/lib/intel64 -Wl,-_start-group -lmkl_intel_ilp64 -lmkl_intel_thread -lmkl_core -Wl,-_end-group -liomp5
 id        : lbl

 Nodes     nprocs
 nid00457     1

 Using customized tuning parameters: mindgm=7; mindgv=16; mindgc=1; mindgr=1; noblas=0; minvec=7
 default implementation of scratch files=df  

 ***,Br
 memory,8,g
 gthresh,twoint=1.e-12
 
 gprint,basis,orbitals
 gexpec,ekin,pot
 
 angstrom
 geometry={
 1                                                                               ! Number of atoms
 Br 0.0 0.0 0.0
 }
 
 basis={
 
 Including file /global/homes/a/aannabe/repos/pseudopotentiallibrary/recipes/Br/ccECP/Br.ccECP.molpro
 
                                   !include,/global/homes/a/aannabe/repos/pseudopotentiallibrary/recipes/Br/ccECP/Br.cc-pV6Z.molpro
                                  !include,/global/homes/a/aannabe/repos/pseudopotentiallibrary/recipes/Br/ccECP/Br.cc-pCV6Z.molpro
 Including file /global/homes/a/aannabe/repos/pseudopotentiallibrary/recipes/Br/ccECP/Br.aug-cc-pV6Z.molpro
 
 
 }
 
 {hf
 wf,7,3,1
 occ,1,1,1,0,1,0,0,0
                                                                                 !open,1.3
 closed,1,1,0,0,1,0,0,0
                                                                                 !sym,
 }
 scf(i)=energy
 
 _CC_NORM_MAX=2.0
 {ci
 maxit,100
 core
 }
 posthf(i)=energy
 
 table,scf,posthf,ekin,pot
 save,6.csv,new
 
 

 Variables initialized (889), CPU time= 0.01 sec
 Commands  initialized (702), CPU time= 0.00 sec, 572 directives.
 Default parameters read. Elapsed time= 0.13 sec

 Checking input...
 Passed
1


                                         ***  PROGRAM SYSTEM MOLPRO  ***
                                       Copyright, TTI GmbH Stuttgart, 2015
                                    Version 2015.1 linked Dec 29 2018 15:55:43


 **********************************************************************************************************************************
 LABEL *   Br                                                                            
  64 bit serial version                                                                  DATE: 23-Jun-19          TIME: 18:24:46  
 **********************************************************************************************************************************

 SHA1:             19cd028119e0e09f93f0674bd8af7968d9b3eff6
 **********************************************************************************************************************************

 THRESHOLDS:

 ZERO    =  1.00D-12  ONEINT  =  1.00D-12  TWOINT  =  1.00D-12  PREFAC  =  1.00D-14  LOCALI  =  1.00D-09  EORDER  =  1.00D-04
 ENERGY  =  0.00D+00  ETEST   =  0.00D+00  EDENS   =  0.00D+00  THRDEDEF=  1.00D-06  GRADIENT=  1.00D-02  STEP    =  1.00D-03
 ORBITAL =  1.00D-05  CIVEC   =  1.00D-05  COEFF   =  1.00D-04  PRINTCI =  5.00D-02  PUNCHCI =  9.90D+01  OPTGRAD =  3.00D-04
 OPTENERG=  1.00D-06  OPTSTEP =  3.00D-04  THRGRAD =  1.00D-10  COMPRESS=  1.00D-11  VARMIN  =  1.00D-07  VARMAX  =  1.00D-03
 THRDOUB =  0.00D+00  THRDIV  =  1.00D-05  THRRED  =  1.00D-07  THRPSP  =  1.00D+00  THRDC   =  1.00D-10  THRCS   =  1.00D-10
 THRNRM  =  1.00D-08  THREQ   =  0.00D+00  THRDE   =  1.00D+00  THRREF  =  1.00D-05  SPARFAC =  1.00D+00  THRDLP  =  1.00D-07
 THRDIA  =  1.00D-10  THRDLS  =  1.00D-07  THRGPS  =  0.00D+00  THRKEX  =  0.00D+00  THRDIS  =  2.00D-01  THRVAR  =  1.00D-10
 THRLOC  =  1.00D-06  THRGAP  =  1.00D-06  THRLOCT = -1.00D+00  THRGAPT = -1.00D+00  THRORB  =  1.00D-06  THRMLTP =  0.00D+00
 THRCPQCI=  1.00D-10  KEXTA   =  0.00D+00  THRCOARS=  0.00D+00  SYMTOL  =  1.00D-06  GRADTOL =  1.00D-06  THROVL  =  1.00D-08
 THRORTH =  1.00D-08  GRID    =  1.00D-06  GRIDMAX =  1.00D-03  DTMAX   =  0.00D+00  THROCCDE=  1.00D-01  THROCCDE=  1.00D-01



 ZUNIT=ANG
 

Geometry recognized as XYZ


 Variable memory set to 8000000000 words,  buffer space   230000 words

 SETTING BASIS          =    USERDEF


 Recomputing integrals since basis changed


 Using spherical harmonics



 PROGRAM * SEWARD (Integral evaluation for generally contracted gaussian basis sets)     Author: Roland Lindh, 1990

 Geometry written to block  1 of record 700

 Orientation using atomic masses  
 Molecule type: Atom
 Symmetry elements: X,Y,Z
 Rotational constants:       0.0000000      0.0000000      0.0000000 GHz  (calculated with average atomic masses)

 Point group  D2h 



 ATOMIC COORDINATES

 NR  ATOM    CHARGE       X              Y              Z

   1  BR      7.00    0.000000000    0.000000000    0.000000000


          BR  CORE POTENTIAL

          f POTENTIAL

 POWERS             1              3              2              2
 EXPONENTIALS   3.665770       5.293023       3.176376       2.897544    
 COEFFICIENTS   7.000000       25.66039       13.04026      -21.90884    

          s - f POTENTIAL

 POWERS             2              2
 EXPONENTIALS   4.971807       2.042687    
 COEFFICIENTS   85.88435       4.621255    

          p - f POTENTIAL

 POWERS             2              2
 EXPONENTIALS   4.711839       2.384293    
 COEFFICIENTS   55.36172       11.03141    

          d - f POTENTIAL

 POWERS             2              2
 EXPONENTIALS   3.412863       1.530285    
 COEFFICIENTS   26.41041       5.468739    


 BASIS DATA

   Nr Sym  Nuc  Type         Exponents   Contraction coefficients

    1.1 Ag    1  1s          60.457695    -0.000452
                             27.422852     0.003372
                             12.438662    -0.025045
                              5.642021     0.170101
                              2.559150    -0.430992
                              1.160798    -0.154358
                              0.526524     0.525458
                              0.238824     0.592735
                              0.108328     0.169490
    2.1 Ag    1  1s           2.494708     1.000000
    3.1 Ag    1  1s           1.181165     1.000000
    4.1 Ag    1  1s           0.559244     1.000000
    5.1 Ag    1  1s           0.264784     1.000000
    6.1 Ag    1  1s           0.125367     1.000000
    7.1 Ag    1  1s           0.050147     1.000000
    8.1 Ag    1  3d0          2.338487     1.000000
    9.1 Ag    1  3d2+         2.338487     1.000000
   10.1 Ag    1  3d0          1.209425     1.000000
   11.1 Ag    1  3d2+         1.209425     1.000000
   12.1 Ag    1  3d0          0.625494     1.000000
   13.1 Ag    1  3d2+         0.625494     1.000000
   14.1 Ag    1  3d0          0.323495     1.000000
   15.1 Ag    1  3d2+         0.323495     1.000000
   16.1 Ag    1  3d0          0.167306     1.000000
   17.1 Ag    1  3d2+         0.167306     1.000000
   18.1 Ag    1  3d0          0.066922     1.000000
   19.1 Ag    1  3d2+         0.066922     1.000000
   20.1 Ag    1  5g0          1.292807     1.000000
   21.1 Ag    1  5g4+         1.292807     1.000000
   22.1 Ag    1  5g2+         1.292807     1.000000
   23.1 Ag    1  5g0          0.690290     1.000000
   24.1 Ag    1  5g4+         0.690290     1.000000
   25.1 Ag    1  5g2+         0.690290     1.000000
   26.1 Ag    1  5g0          0.368578     1.000000
   27.1 Ag    1  5g4+         0.368578     1.000000
   28.1 Ag    1  5g2+         0.368578     1.000000
   29.1 Ag    1  5g0          0.147431     1.000000
   30.1 Ag    1  5g4+         0.147431     1.000000
   31.1 Ag    1  5g2+         0.147431     1.000000
   32.1 Ag    1  7i6+         1.003305     1.000000
   33.1 Ag    1  7i4+         1.003305     1.000000
   34.1 Ag    1  7i2+         1.003305     1.000000
   35.1 Ag    1  7i0          1.003305     1.000000
   36.1 Ag    1  7i6+         0.401322     1.000000
   37.1 Ag    1  7i4+         0.401322     1.000000
   38.1 Ag    1  7i2+         0.401322     1.000000
   39.1 Ag    1  7i0          0.401322     1.000000
    1.2 B3u   1  2px         27.437987     0.000087
                             12.887440    -0.001797
                              6.053145     0.027150
                              2.843122    -0.134143
                              1.335395    -0.006234
                              0.627226     0.309551
                              0.294604     0.440285
                              0.138374     0.316750
                              0.064993     0.092533
    2.2 B3u   1  2px          1.356668     1.000000
    3.2 B3u   1  2px          0.664552     1.000000
    4.2 B3u   1  2px          0.325525     1.000000
    5.2 B3u   1  2px          0.159456     1.000000
    6.2 B3u   1  2px          0.031243     1.000000
    7.2 B3u   1  2px          0.078108     1.000000
    8.2 B3u   1  4f1+         1.211891     1.000000
    9.2 B3u   1  4f3+         1.211891     1.000000
   10.2 B3u   1  4f1+         0.701529     1.000000
   11.2 B3u   1  4f3+         0.701529     1.000000
   12.2 B3u   1  4f1+         0.406095     1.000000
   13.2 B3u   1  4f3+         0.406095     1.000000
   14.2 B3u   1  4f1+         0.235077     1.000000
   15.2 B3u   1  4f3+         0.235077     1.000000
   16.2 B3u   1  4f1+         0.094031     1.000000
   17.2 B3u   1  4f3+         0.094031     1.000000
   18.2 B3u   1  6h1+         1.215157     1.000000
   19.2 B3u   1  6h3+         1.215157     1.000000
   20.2 B3u   1  6h5+         1.215157     1.000000
   21.2 B3u   1  6h1+         0.602256     1.000000
   22.2 B3u   1  6h3+         0.602256     1.000000
   23.2 B3u   1  6h5+         0.602256     1.000000
   24.2 B3u   1  6h1+         0.240902     1.000000
   25.2 B3u   1  6h3+         0.240902     1.000000
   26.2 B3u   1  6h5+         0.240902     1.000000
    1.3 B2u   1  2py         27.437987     0.000087
                             12.887440    -0.001797
                              6.053145     0.027150
                              2.843122    -0.134143
                              1.335395    -0.006234
                              0.627226     0.309551
                              0.294604     0.440285
                              0.138374     0.316750
                              0.064993     0.092533
    2.3 B2u   1  2py          1.356668     1.000000
    3.3 B2u   1  2py          0.664552     1.000000
    4.3 B2u   1  2py          0.325525     1.000000
    5.3 B2u   1  2py          0.159456     1.000000
    6.3 B2u   1  2py          0.031243     1.000000
    7.3 B2u   1  2py          0.078108     1.000000
    8.3 B2u   1  4f1-         1.211891     1.000000
    9.3 B2u   1  4f3-         1.211891     1.000000
   10.3 B2u   1  4f1-         0.701529     1.000000
   11.3 B2u   1  4f3-         0.701529     1.000000
   12.3 B2u   1  4f1-         0.406095     1.000000
   13.3 B2u   1  4f3-         0.406095     1.000000
   14.3 B2u   1  4f1-         0.235077     1.000000
   15.3 B2u   1  4f3-         0.235077     1.000000
   16.3 B2u   1  4f1-         0.094031     1.000000
   17.3 B2u   1  4f3-         0.094031     1.000000
   18.3 B2u   1  6h1-         1.215157     1.000000
   19.3 B2u   1  6h3-         1.215157     1.000000
   20.3 B2u   1  6h5-         1.215157     1.000000
   21.3 B2u   1  6h1-         0.602256     1.000000
   22.3 B2u   1  6h3-         0.602256     1.000000
   23.3 B2u   1  6h5-         0.602256     1.000000
   24.3 B2u   1  6h1-         0.240902     1.000000
   25.3 B2u   1  6h3-         0.240902     1.000000
   26.3 B2u   1  6h5-         0.240902     1.000000
    1.4 B1g   1  3d2-         2.338487     1.000000
    2.4 B1g   1  3d2-         1.209425     1.000000
    3.4 B1g   1  3d2-         0.625494     1.000000
    4.4 B1g   1  3d2-         0.323495     1.000000
    5.4 B1g   1  3d2-         0.167306     1.000000
    6.4 B1g   1  3d2-         0.066922     1.000000
    7.4 B1g   1  5g2-         1.292807     1.000000
    8.4 B1g   1  5g4-         1.292807     1.000000
    9.4 B1g   1  5g2-         0.690290     1.000000
   10.4 B1g   1  5g4-         0.690290     1.000000
   11.4 B1g   1  5g2-         0.368578     1.000000
   12.4 B1g   1  5g4-         0.368578     1.000000
   13.4 B1g   1  5g2-         0.147431     1.000000
   14.4 B1g   1  5g4-         0.147431     1.000000
   15.4 B1g   1  7i2-         1.003305     1.000000
   16.4 B1g   1  7i6-         1.003305     1.000000
   17.4 B1g   1  7i4-         1.003305     1.000000
   18.4 B1g   1  7i2-         0.401322     1.000000
   19.4 B1g   1  7i6-         0.401322     1.000000
   20.4 B1g   1  7i4-         0.401322     1.000000
    1.5 B1u   1  2pz         27.437987     0.000087
                             12.887440    -0.001797
                              6.053145     0.027150
                              2.843122    -0.134143
                              1.335395    -0.006234
                              0.627226     0.309551
                              0.294604     0.440285
                              0.138374     0.316750
                              0.064993     0.092533
    2.5 B1u   1  2pz          1.356668     1.000000
    3.5 B1u   1  2pz          0.664552     1.000000
    4.5 B1u   1  2pz          0.325525     1.000000
    5.5 B1u   1  2pz          0.159456     1.000000
    6.5 B1u   1  2pz          0.031243     1.000000
    7.5 B1u   1  2pz          0.078108     1.000000
    8.5 B1u   1  4f0          1.211891     1.000000
    9.5 B1u   1  4f2+         1.211891     1.000000
   10.5 B1u   1  4f0          0.701529     1.000000
   11.5 B1u   1  4f2+         0.701529     1.000000
   12.5 B1u   1  4f0          0.406095     1.000000
   13.5 B1u   1  4f2+         0.406095     1.000000
   14.5 B1u   1  4f0          0.235077     1.000000
   15.5 B1u   1  4f2+         0.235077     1.000000
   16.5 B1u   1  4f0          0.094031     1.000000
   17.5 B1u   1  4f2+         0.094031     1.000000
   18.5 B1u   1  6h2+         1.215157     1.000000
   19.5 B1u   1  6h4+         1.215157     1.000000
   20.5 B1u   1  6h0          1.215157     1.000000
   21.5 B1u   1  6h2+         0.602256     1.000000
   22.5 B1u   1  6h4+         0.602256     1.000000
   23.5 B1u   1  6h0          0.602256     1.000000
   24.5 B1u   1  6h2+         0.240902     1.000000
   25.5 B1u   1  6h4+         0.240902     1.000000
   26.5 B1u   1  6h0          0.240902     1.000000
    1.6 B2g   1  3d1+         2.338487     1.000000
    2.6 B2g   1  3d1+         1.209425     1.000000
    3.6 B2g   1  3d1+         0.625494     1.000000
    4.6 B2g   1  3d1+         0.323495     1.000000
    5.6 B2g   1  3d1+         0.167306     1.000000
    6.6 B2g   1  3d1+         0.066922     1.000000
    7.6 B2g   1  5g1+         1.292807     1.000000
    8.6 B2g   1  5g3+         1.292807     1.000000
    9.6 B2g   1  5g1+         0.690290     1.000000
   10.6 B2g   1  5g3+         0.690290     1.000000
   11.6 B2g   1  5g1+         0.368578     1.000000
   12.6 B2g   1  5g3+         0.368578     1.000000
   13.6 B2g   1  5g1+         0.147431     1.000000
   14.6 B2g   1  5g3+         0.147431     1.000000
   15.6 B2g   1  7i5+         1.003305     1.000000
   16.6 B2g   1  7i3+         1.003305     1.000000
   17.6 B2g   1  7i1+         1.003305     1.000000
   18.6 B2g   1  7i5+         0.401322     1.000000
   19.6 B2g   1  7i3+         0.401322     1.000000
   20.6 B2g   1  7i1+         0.401322     1.000000
    1.7 B3g   1  3d1-         2.338487     1.000000
    2.7 B3g   1  3d1-         1.209425     1.000000
    3.7 B3g   1  3d1-         0.625494     1.000000
    4.7 B3g   1  3d1-         0.323495     1.000000
    5.7 B3g   1  3d1-         0.167306     1.000000
    6.7 B3g   1  3d1-         0.066922     1.000000
    7.7 B3g   1  5g1-         1.292807     1.000000
    8.7 B3g   1  5g3-         1.292807     1.000000
    9.7 B3g   1  5g1-         0.690290     1.000000
   10.7 B3g   1  5g3-         0.690290     1.000000
   11.7 B3g   1  5g1-         0.368578     1.000000
   12.7 B3g   1  5g3-         0.368578     1.000000
   13.7 B3g   1  5g1-         0.147431     1.000000
   14.7 B3g   1  5g3-         0.147431     1.000000
   15.7 B3g   1  7i5-         1.003305     1.000000
   16.7 B3g   1  7i3-         1.003305     1.000000
   17.7 B3g   1  7i1-         1.003305     1.000000
   18.7 B3g   1  7i5-         0.401322     1.000000
   19.7 B3g   1  7i3-         0.401322     1.000000
   20.7 B3g   1  7i1-         0.401322     1.000000
    1.8 Au    1  4f2-         1.211891     1.000000
    2.8 Au    1  4f2-         0.701529     1.000000
    3.8 Au    1  4f2-         0.406095     1.000000
    4.8 Au    1  4f2-         0.235077     1.000000
    5.8 Au    1  4f2-         0.094031     1.000000
    6.8 Au    1  6h4-         1.215157     1.000000
    7.8 Au    1  6h2-         1.215157     1.000000
    8.8 Au    1  6h4-         0.602256     1.000000
    9.8 Au    1  6h2-         0.602256     1.000000
   10.8 Au    1  6h4-         0.240902     1.000000
   11.8 Au    1  6h2-         0.240902     1.000000

 NUCLEAR CHARGE:                    7
 NUMBER OF PRIMITIVE AOS:         325
 NUMBER OF SYMMETRY AOS:          220
 NUMBER OF CONTRACTIONS:          188   (  39Ag  +  26B3u +  26B2u +  20B1g +  26B1u +  20B2g +  20B3g +  11Au  )
 NUMBER OF CORE ORBITALS:           0   (   0Ag  +   0B3u +   0B2u +   0B1g +   0B1u +   0B2g +   0B3g +   0Au  )
 NUMBER OF VALENCE ORBITALS:        4   (   1Ag  +   1B3u +   1B2u +   0B1g +   1B1u +   0B2g +   0B3g +   0Au  )


 NUCLEAR REPULSION ENERGY    0.00000000

 EXTRA SYMMETRY OF AOS IN SYMMETRY 1:   1 1 1 1 1 1 1 2 3 2   3 2 3 2 3 2 3 2 3 4   5 6 4 5 6 4 5 6 4 5   6 7 8 910 7 8 910
 EXTRA SYMMETRY OF AOS IN SYMMETRY 2:   1 1 1 1 1 1 1 2 3 2   3 2 3 2 3 2 3 4 5 6   4 5 6 4 5 6
 EXTRA SYMMETRY OF AOS IN SYMMETRY 3:   1 1 1 1 1 1 1 2 3 2   3 2 3 2 3 2 3 4 5 6   4 5 6 4 5 6
 EXTRA SYMMETRY OF AOS IN SYMMETRY 4:   1 1 1 1 1 1 2 3 2 3   2 3 2 3 4 5 6 4 5 6
 EXTRA SYMMETRY OF AOS IN SYMMETRY 5:   1 1 1 1 1 1 1 2 3 2   3 2 3 2 3 2 3 4 5 6   4 5 6 4 5 6
 EXTRA SYMMETRY OF AOS IN SYMMETRY 6:   1 1 1 1 1 1 2 3 2 3   2 3 2 3 4 5 6 4 5 6
 EXTRA SYMMETRY OF AOS IN SYMMETRY 7:   1 1 1 1 1 1 2 3 2 3   2 3 2 3 4 5 6 4 5 6
 EXTRA SYMMETRY OF AOS IN SYMMETRY 8:   1 1 1 1 1 2 3 2 3 2   3

 Eigenvalues of metric

         1 0.388E-03 0.211E-02 0.731E-02 0.731E-02 0.164E-01 0.502E-01 0.502E-01 0.585E-01
         2 0.503E-03 0.513E-02 0.909E-02 0.909E-02 0.346E-01 0.966E-01 0.966E-01 0.171E+00
         3 0.503E-03 0.513E-02 0.909E-02 0.909E-02 0.346E-01 0.966E-01 0.966E-01 0.171E+00
         4 0.731E-02 0.502E-01 0.585E-01 0.585E-01 0.228E+00 0.393E+00 0.393E+00 0.533E+00
         5 0.503E-03 0.513E-02 0.909E-02 0.909E-02 0.346E-01 0.966E-01 0.966E-01 0.171E+00
         6 0.731E-02 0.502E-01 0.585E-01 0.585E-01 0.228E+00 0.393E+00 0.393E+00 0.533E+00
         7 0.731E-02 0.502E-01 0.585E-01 0.585E-01 0.228E+00 0.393E+00 0.393E+00 0.533E+00
         8 0.909E-02 0.966E-01 0.216E+00 0.216E+00 0.489E+00 0.860E+00 0.860E+00 0.129E+01


 Contracted 2-electron integrals neglected if value below      1.0D-12
 AO integral compression algorithm  1   Integral accuracy      1.0D-12

     121.635 MB (compressed) written to integral file ( 47.9%)


 NUMBER OF SORTED TWO-ELECTRON INTEGRALS:   20212815.     BUFFER LENGTH:  32768
 NUMBER OF SEGMENTS:   2  SEGMENT LENGTH:   15998787      RECORD LENGTH: 524288

 Memory used in sort:      16.56 MW

 SORT1 READ    31710950. AND WROTE    13213985. INTEGRALS IN     39 RECORDS. CPU TIME:     0.72 SEC, REAL TIME:     1.03 SEC
 SORT2 READ    13213985. AND WROTE    20212815. INTEGRALS IN    464 RECORDS. CPU TIME:     0.46 SEC, REAL TIME:     0.90 SEC

 FILE SIZES:   FILE 1:   142.3 MBYTE,  FILE 4:   163.6 MBYTE,   TOTAL:    305.9 MBYTE

 OPERATOR DM      FOR CENTER  0  COORDINATES:    0.000000    0.000000    0.000000
 OPERATOR EKIN    FOR CENTER  0  COORDINATES:    0.000000    0.000000    0.000000
 OPERATOR POT     FOR CENTER  0  COORDINATES:    0.000000    0.000000    0.000000


 **********************************************************************************************************************************
 DATASETS  * FILE   NREC   LENGTH (MB)   RECORD NAMES
              1      20       99.07       500      610      700      900      950      970     1000      129      960     1100   
                                          VAR    BASINP    GEOM    SYMINP    ZMAT    AOBASIS   BASIS     P2S    ABASIS      S 
                                         1400     1410     1420     1200     1210     1080     1600     1650     1300     1700   
                                         EKIN       V       ECP      H0       H01     AOSYM     SMH    MOLCAS    ERIS     OPER   

 PROGRAMS   *        TOTAL       INT
 CPU TIMES  *         7.07      6.99
 REAL TIME  *        17.59 SEC
 DISK USED  *       306.28 MB      
 **********************************************************************************************************************************


 PROGRAM * RHF-SCF (OPEN SHELL)       Authors: W. Meyer, H.-J. Werner


 NUMBER OF ELECTRONS:       4+    3-    SPACE SYMMETRY=3    SPIN SYMMETRY: Doublet 
 CONVERGENCE THRESHOLDS:    1.00E-05 (Density)    1.00E-07 (Energy)
 MAX. NUMBER OF ITERATIONS:       60
 INTERPOLATION TYPE:            DIIS
 INTERPOLATION STEPS:              2 (START)      1 (STEP)
 LEVEL SHIFTS:                 -0.60 (CLOSED) -0.30 (OPEN) 

 Number of closed-shell orbitals:    3 (   1   1   0   0   1   0   0   0 )
 Number of open-shell orbitals:      1 (   0   0   1   0   0   0   0   0 )



   Atom=BR basis=ECP28MDF_GUESS    lmin=0  lmax=1

 Orbital guess generated from atomic densities. Full valence occupancy:    1   1   1   0   1   0   0   0


 Molecular orbital dump at record        2100.2

 ITERATION    DDIFF          GRAD             ENERGY        2-EL.EN.            DIPOLE MOMENTS         DIIS   ORB.
    1      0.000D+00      0.000D+00       -13.11812195     17.402004    0.00000    0.00000    0.00000    0    start
    2      0.000D+00      0.403D-02       -13.12106964     17.516208    0.00000    0.00000    0.00000    1    diag,B
    3      0.218D-02      0.114D-02       -13.12150051     17.558756    0.00000    0.00000    0.00000    2    diag,B
    4      0.605D-03      0.334D-03       -13.12154811     17.569111    0.00000    0.00000    0.00000    3    diag,B
    5      0.332D-03      0.824D-04       -13.12155121     17.570797    0.00000    0.00000    0.00000    4    diag,B
    6      0.105D-03      0.209D-04       -13.12155142     17.571262    0.00000    0.00000    0.00000    5    diag,B
    7      0.351D-04      0.572D-05       -13.12155143     17.571337    0.00000    0.00000    0.00000    6    fixocc
    8      0.120D-04      0.167D-05       -13.12155143     17.571370    0.00000    0.00000    0.00000    7    diag,B
    9      0.474D-05      0.399D-06       -13.12155143     17.571373    0.00000    0.00000    0.00000    0    orth

 Final alpha occupancy:   1   1   1   0   1   0   0   0
 Final beta  occupancy:   1   1   0   0   1   0   0   0

 !RHF STATE 1.3 Energy                -13.121551433857
 Nuclear energy                         0.00000000
 One-electron energy                  -21.90723778
 Two-electron energy                    8.78568635
 Virial quotient                       -2.85085641
 !RHF STATE 1.3 Dipole moment           0.00000000     0.00000000     0.00000000
 Dipole moment /Debye                   0.00000000     0.00000000     0.00000000
 

 !RHF expec          <1.3|EKIN|1.3>     4.602670051456
 
 !RHF expec           <1.3|POT|1.3>    -4.025253860715

 ELECTRON ORBITALS
 =================


   Orb  Occ    Energy  Couls-En    Coefficients

                                   1 1s      1 1s      1 1s      1 1s      1 1s      1 1s      1 1s      1 3d0     1 3d2+    1 3d0  
                                   1 3d2+    1 3d0     1 3d2+    1 3d0     1 3d2+    1 3d0     1 3d2+    1 3d0     1 3d2+    1 5g0  
                                   1 5g4+    1 5g2+    1 5g0     1 5g4+    1 5g2+    1 5g0     1 5g4+    1 5g2+    1 5g0     1 5g4+ 
                                   1 5g2+    1 7i6+    1 7i4+    1 7i2+    1 7i0     1 7i6+    1 7i4+    1 7i2+    1 7i0  

   1.1   2    -1.0195   -4.6423  1.000900 -0.000222  0.001818 -0.003827  0.004629 -0.005116  0.002259 -0.000010 -0.000017  0.000166
                                 0.000287 -0.000440 -0.000763  0.000840  0.001454  0.002124  0.003679  0.000452  0.000783  0.000000
                                 0.000001  0.000001  0.000003  0.000007  0.000005 -0.000007 -0.000013 -0.000010 -0.000007 -0.000013
                                -0.000010 -0.000001 -0.000000 -0.000000 -0.000000 -0.000001 -0.000001 -0.000001 -0.000000

                                   1 2px     1 2px     1 2px     1 2px     1 2px     1 2px     1 2px     1 4f1+    1 4f3+    1 4f1+ 
                                   1 4f3+    1 4f1+    1 4f3+    1 4f1+    1 4f3+    1 4f1+    1 4f3+    1 6h1+    1 6h3+    1 6h5+ 
                                   1 6h1+    1 6h3+    1 6h5+    1 6h1+    1 6h3+    1 6h5+ 

   1.2   2    -0.4448   -3.3714  0.997790 -0.000946  0.002528 -0.002286  0.005799  0.002678 -0.005011 -0.000231 -0.000893 -0.000580
                                -0.002246 -0.000763 -0.002954 -0.000859 -0.003327 -0.000295 -0.001143  0.000001  0.000003  0.000007
                                 0.000005  0.000015  0.000033  0.000004  0.000014  0.000030

                                   1 2py     1 2py     1 2py     1 2py     1 2py     1 2py     1 2py     1 4f1-    1 4f3-    1 4f1- 
                                   1 4f3-    1 4f1-    1 4f3-    1 4f1-    1 4f3-    1 4f1-    1 4f3-    1 6h1-    1 6h3-    1 6h5- 
                                   1 6h1-    1 6h3-    1 6h5-    1 6h1-    1 6h3-    1 6h5- 

   1.3   +    -0.5176   -3.4728  1.007017 -0.006399  0.009663  0.019644 -0.002473 -0.002043 -0.038859 -0.001569 -0.002026 -0.004067
                                -0.005251 -0.005295 -0.006836 -0.005258 -0.006788 -0.001471 -0.001899  0.000031  0.000034  0.000045
                                 0.000121  0.000130  0.000175  0.000086  0.000093  0.000125

                                   1 2pz     1 2pz     1 2pz     1 2pz     1 2pz     1 2pz     1 2pz     1 4f0     1 4f2+    1 4f0  
                                   1 4f2+    1 4f0     1 4f2+    1 4f0     1 4f2+    1 4f0     1 4f2+    1 6h2+    1 6h4+    1 6h0  
                                   1 6h2+    1 6h4+    1 6h0     1 6h2+    1 6h4+    1 6h0  

   1.5   2    -0.4448   -3.3714  0.997790 -0.000946  0.002528 -0.002286  0.005799  0.002678 -0.005011 -0.000565 -0.000729 -0.001421
                                -0.001834 -0.001868 -0.002412 -0.002104 -0.002716 -0.000723 -0.000933  0.000005  0.000005  0.000004
                                 0.000024  0.000021  0.000018  0.000022  0.000019  0.000016

 HOMO      1.2    -0.444835 =     -12.1046eV
 LUMO      2.3     0.069986 =       1.9044eV
 LUMO-HOMO         0.514822 =      14.0090eV


 **********************************************************************************************************************************
 DATASETS  * FILE   NREC   LENGTH (MB)   RECORD NAMES
              1      20       99.07       500      610      700      900      950      970     1000      129      960     1100   
                                          VAR    BASINP    GEOM    SYMINP    ZMAT    AOBASIS   BASIS     P2S    ABASIS      S 
                                         1400     1410     1420     1200     1210     1080     1600     1650     1300     1700   
                                         EKIN       V       ECP      H0       H01     AOSYM     SMH    MOLCAS    ERIS     OPER   

              2       4        2.92       700     1000      520     2100   
                                         GEOM     BASIS   MCVARS     RHF  

 PROGRAMS   *        TOTAL        HF       INT
 CPU TIMES  *         7.62      0.55      6.99
 REAL TIME  *        18.30 SEC
 DISK USED  *       306.28 MB      
 **********************************************************************************************************************************
 SETTING SCF(I)         =       -13.12155143  AU                              
 SETTING _CC_NORM_MAX   =         2.00000000                                  


 PROGRAM * CI (Multireference internally contracted CI)     Authors: H.-J. Werner, P.J. Knowles, 1987


 Convergence thresholds:  THRVAR = 1.00D-08  THRDEN = 1.00D-06

 Number of optimized states:  1  Roots:   1
 Number of reference states:  1  Roots:   1

 Reference symmetry:                   3   Doublet 
 Number of electrons:                  7
 Maximum number of shells:             3
 Maximum number of spin couplings:     5

 Reference space:        1 conf        1 CSFs
 N elec internal:        4 conf        4 CSFs
 N-1 el internal:       10 conf       16 CSFs
 N-2 el internal:        9 conf       27 CSFs

 Number of electrons in valence space:                      7
 Maximum number of open shell orbitals in reference space:  1
 Maximum number of open shell orbitals in internal spaces:  5


 Number of closed-shell orbitals:   3 (   1   1   0   0   1   0   0   0 )
 Number of active  orbitals:        1 (   0   0   1   0   0   0   0   0 )
 Number of external orbitals:     184 (  38  25  25  20  25  20  20  11 )

 Molecular orbitals read from record     2100.2  Type=RHF/CANONICAL (state 1.3)

 Integral transformation finished. Total CPU:   0.13 sec, npass=  1  Memory used:   0.14 MW

 Number of p-space configurations:   1

 Reference wavefunction optimized for reference space (refopt=1)

 State     Reference Energy 
   1         -13.12155143

 Number of blocks in overlap matrix:    15   Smallest eigenvalue:  0.10D+01
 Number of N-2 electron functions:      15
 Number of N-1 electron functions:      16

 Number of internal configurations:                    1
 Number of singly external configurations:           378
 Number of doubly external configurations:         32616
 Total number of contracted configurations:        32995
 Total number of uncontracted configurations:      58879

 Diagonal Coupling coefficients finished.               Storage:     982 words, CPU-Time:      0.00 seconds.
 Energy denominators for pairs finished in 1 passes.    Storage:   32095 words, CPU-time:      0.00 seconds.

  ITER. STATE  ROOT     SQ.NORM     CORR.ENERGY   TOTAL ENERGY   ENERGY CHANGE       DEN1      VAR(S)    VAR(P)      TIME
    1     1     1     1.00000000     0.00000000   -13.12155143    -0.00000000    -0.19246817  0.16D-01  0.59D-01     0.14
    2     1     1     1.06352558    -0.17699135   -13.29854278    -0.17699135    -0.00302039  0.59D-03  0.59D-03     0.35
    3     1     1     1.06651470    -0.18015154   -13.30170297    -0.00316019    -0.00008423  0.74D-05  0.21D-04     0.59
    4     1     1     1.06704324    -0.18024285   -13.30179429    -0.00009132    -0.00000270  0.30D-06  0.71D-06     0.81
    5     1     1     1.06711963    -0.18024607   -13.30179750    -0.00000321    -0.00000010  0.11D-07  0.24D-07     1.03
    6     1     1     1.06712803    -0.18024618   -13.30179761    -0.00000011    -0.00000000  0.43D-09  0.77D-09     1.26


 =====================================
 Analysis of CPU times by interactions
 =====================================

       I      S      P

 I   0.0%
 S   0.0%   0.0%
 P   0.0%   2.4%   0.0%

 Initialization:  11.1%
 Other:           86.5%

 Total CPU:        1.3 seconds
 =====================================



 Reference coefficients greater than 0.0500000
 =============================================
 22/2           0.9680365



 RESULTS FOR STATE 1.3
 =====================

 Coefficient of reference function:   C(0) = 0.96803651 (fixed)   0.96803651 (relaxed)

 Energy contributions of configuration classes

 CLASS          SQ.NORM        ECORR1        ECORR2
 +++++++++++++++++++++++++++++++++++++++++++++++++++
 Internals    0.00000000    0.00000000   -0.00000000
 Singles      0.01282443   -0.02283325   -0.02356360
 Pairs        0.05430360   -0.15741293   -0.15668258
 Total        1.06712803   -0.18024618   -0.18024618
 +++++++++++++++++++++++++++++++++++++++++++++++++++


 Reference energy                     -13.12155143
 Nuclear energy                         0.00000000
 Kinetic energy                         4.73992399
 One electron energy                  -21.80181881
 Two electron energy                    8.50002119
 Virial quotient                       -2.80633142
 Correlation energy                    -0.18024618
 !CI(SD) STATE 1.3 Energy             -13.301797612092

 Properties without orbital relaxation:

 !CI(SD) STATE 1.3 Dipole moment        0.00000000     0.00000000     0.00000000
 Dipole moment /Debye                   0.00000000     0.00000000     0.00000000

 Cluster corrected energies           -13.31389718 (Davidson, fixed reference)
 Cluster corrected energies           -13.31389718 (Davidson, relaxed reference)

 Cluster corrected energies           -13.31003999 (Pople, fixed reference)
 Cluster corrected energies           -13.31003999 (Pople, relaxed reference)

 

 !CI(SD) expec       <1.3|EKIN|1.3>     4.739923994715
 
 !CI(SD) expec        <1.3|POT|1.3>    -4.030926035547


 **********************************************************************************************************************************
 DATASETS  * FILE   NREC   LENGTH (MB)   RECORD NAMES
              1      21       99.73       500      610      700      900      950      970     1000      129      960     1100   
                                          VAR    BASINP    GEOM    SYMINP    ZMAT    AOBASIS   BASIS     P2S    ABASIS      S 
                                         1400     1410     1420     1200     1210     1080     1600     1650     1300     1700   
                                         EKIN       V       ECP      H0       H01     AOSYM     SMH    MOLCAS    ERIS     OPER   
                                         1380   
                                         JKOP   

              2       4        2.92       700     1000      520     2100   
                                         GEOM     BASIS   MCVARS     RHF  

 PROGRAMS   *        TOTAL        CI        HF       INT
 CPU TIMES  *         8.91      1.29      0.55      6.99
 REAL TIME  *        20.16 SEC
 DISK USED  *       306.28 MB      
 **********************************************************************************************************************************
 SETTING POSTHF(I)      =       -13.30179761  AU                              
                                                                                                                                                                                                                                                                

        SCF            POSTHF       EKIN          POT
    -13.12155143   -13.30179761   4.73992399   -4.03092604
                                                  

 CI/USERDEF energy=    -13.301797612092

        CI              HF-SCF  
    -13.30179761    -13.12155143
 **********************************************************************************************************************************
 Molpro calculation terminated
 Variable memory released
