<?xml version="1.0"?>
<molpro xmlns="http://www.molpro.net/schema/molpro-output"
  xmlns:xsd="http://www.w3.org/1999/XMLSchema"
  xmlns:cml="http://www.xml-cml.org/schema"
  xmlns:stm="http://www.xml-cml.org/schema"
  xmlns:xhtml="http://www.w3.org/1999/xhtml">
 <!--

 Primary working directories    : /global/cscratch1/sd/aannabe
 Secondary working directories  : /global/cscratch1/sd/aannabe
 Wavefunction directory         : /global/homes/a/aannabe/wfu/
 Main file repository           : /global/cscratch1/sd/aannabe/

 SHA1      : 2873118e99aab1bc19f5b6fc1784693c06d15c95
 NAME      : 2015.1.8
 ARCHNAME  : linux/x86_64
 FC        : /opt/cray/pe/craype/2.5.5/bin/ftn
 BLASLIB   : -Wl,-_start-group /opt/intel/compilers_and_libraries_2016.3.210/linux/mkl/lib/intel64/libmkl_intel_ilp64.a /opt/intel/compilers_and_libraries_2016.3.210/linux/mkl/lib/intel64/libmkl_intel_thread.a /opt/intel/compilers_and_libraries_2016.3.210/linux/mkl/lib/intel64/libmkl_core.a -Wl,-_end-group
 id        : lbl

 Nodes     nprocs
 nid00444     1

 Using customized tuning parameters: mindgm=8; mindgv=16; mindgc=4; mindgr=1; noblas=0; minvec=7
 default implementation of scratch files=df  

 --><job>
  <!--
 ***,B
 memory,512,m
 gthresh,twoint=1.e-12
 
 gprint,basis,orbitals
 gexpec,ekin,pot
 
 angstrom
 geometry={
 1                                                                               ! Number of atoms
 B 0.0 0.0 0.0
 }
 
 basis={
 Including file /global/homes/a/aannabe/docs/totals/pps/B.pp
 Including file /global/homes/a/aannabe/docs/totals/basis/aug-cc-pVnZ/B_tz.basis
 }
 
 {hf
 wf,3,2,1
 occ,1,1,0,0,0,0,0,0
 open,1.2
                                                                                 !closed,1,0,0,0,0,0,0,0
                                                                                 !sym,
 }
 scf(i)=energy
 
 _CC_NORM_MAX=2.0
 {rcisd
 maxit,100
 core
 }
 posthf(i)=energy
 
 table,scf,posthf,ekin,pot
 save,3.csv
 
 

 Variables initialized (889), CPU time= 0.01 sec
 Commands  initialized (702), CPU time= 0.01 sec, 572 directives.
 Default parameters read. Elapsed time= 0.12 sec

 Checking input...
 Passed
1


                                         ***  PROGRAM SYSTEM MOLPRO  ***
                                       Copyright, TTI GmbH Stuttgart, 2015
                                    Version 2015.1 linked Sep  7 2016 23:09:38


 **********************************************************************************************************************************
 LABEL *   B                                                                             
  64 bit serial version                                                                  DATE: 11-Jun-18          TIME: 12:15:36  
 **********************************************************************************************************************************

 SHA1:             2873118e99aab1bc19f5b6fc1784693c06d15c95
 **********************************************************************************************************************************
  -->
  <!--

 THRESHOLDS:

 ZERO    =  1.00D-12  ONEINT  =  1.00D-12  TWOINT  =  1.00D-12  PREFAC  =  1.00D-14  LOCALI  =  1.00D-09  EORDER  =  1.00D-04
 ENERGY  =  0.00D+00  ETEST   =  0.00D+00  EDENS   =  0.00D+00  THRDEDEF=  1.00D-06  GRADIENT=  1.00D-02  STEP    =  1.00D-03
 ORBITAL =  1.00D-05  CIVEC   =  1.00D-05  COEFF   =  1.00D-04  PRINTCI =  5.00D-02  PUNCHCI =  9.90D+01  OPTGRAD =  3.00D-04
 OPTENERG=  1.00D-06  OPTSTEP =  3.00D-04  THRGRAD =  1.00D-10  COMPRESS=  1.00D-11  VARMIN  =  1.00D-07  VARMAX  =  1.00D-03
 THRDOUB =  0.00D+00  THRDIV  =  1.00D-05  THRRED  =  1.00D-07  THRPSP  =  1.00D+00  THRDC   =  1.00D-10  THRCS   =  1.00D-10
 THRNRM  =  1.00D-08  THREQ   =  0.00D+00  THRDE   =  1.00D+00  THRREF  =  1.00D-05  SPARFAC =  1.00D+00  THRDLP  =  1.00D-07
 THRDIA  =  1.00D-10  THRDLS  =  1.00D-07  THRGPS  =  0.00D+00  THRKEX  =  0.00D+00  THRDIS  =  2.00D-01  THRVAR  =  1.00D-10
 THRLOC  =  1.00D-06  THRGAP  =  1.00D-06  THRLOCT = -1.00D+00  THRGAPT = -1.00D+00  THRORB  =  1.00D-06  THRMLTP =  0.00D+00
 THRCPQCI=  1.00D-10  KEXTA   =  0.00D+00  THRCOARS=  0.00D+00  SYMTOL  =  1.00D-06  GRADTOL =  1.00D-06  THROVL  =  1.00D-08
 THRORTH =  1.00D-08  GRID    =  1.00D-06  GRIDMAX =  1.00D-03  DTMAX   =  0.00D+00  THROCCDE=  1.00D-01  THROCCDE=  1.00D-01



 ZUNIT=ANG
 

Geometry recognized as XYZ


 Variable memory set to  512000000 words,  buffer space   230000 words

 SETTING BASIS          =    USERDEF
  --><jobstep command="HF-SCF" commandset="SCFPRO">
   <!--


 Recomputing integrals since basis changed


 Using spherical harmonics



 PROGRAM * SEWARD (Integral evaluation for generally contracted gaussian basis sets)     Author: Roland Lindh, 1990

 Geometry written to block  1 of record 700

 Orientation using atomic masses  
 Molecule type: Atom
 Symmetry elements: X,Y,Z
 Rotational constants:       0.0000000      0.0000000      0.0000000 GHz  (calculated with average atomic masses)

 Point group  D2h 


   --><cml:molecule>
    <cml:symmetry pointGroup="D2h"/>
    <cml:atomArray>
     <cml:atom id="a1" elementType="B" x3="0.0" y3="0.0" z3="0.0"/>
    </cml:atomArray>
    <cml:bondArray>
    </cml:bondArray>
   </cml:molecule><!--

 ATOMIC COORDINATES

 NR  ATOM    CHARGE       X              Y              Z

   1  B       3.00    0.000000000    0.000000000    0.000000000


          B   CORE POTENTIAL

          p POTENTIAL

 POWERS             1              3              2
 EXPONENTIALS   31.49298       22.56509       8.646690    
 COEFFICIENTS   3.000000       94.47895      -9.748000    

          s - p POTENTIAL

 POWERS             2
 EXPONENTIALS   4.062460    
 COEFFICIENTS   20.74800    


 BASIS DATA

   Nr Sym  Nuc  Type         Exponents   Contraction coefficients

    1.1 Ag    1  1s          11.760500    -0.003676
                              5.150520     0.025052
                              2.578276    -0.124923
                              1.290648    -0.066287
                              0.646080     0.100734
                              0.323418     0.337549
                              0.161898     0.430843
                              0.081044     0.248656
                              0.040569     0.031730
    2.1 Ag    1  1s           0.626026     1.000000
    3.1 Ag    1  1s           0.092094     1.000000
    4.1 Ag    1  1s           0.036838     1.000000
    5.1 Ag    1  3d0          0.699153     1.000000
    6.1 Ag    1  3d2+         0.699153     1.000000
    7.1 Ag    1  3d0          0.207316     1.000000
    8.1 Ag    1  3d2+         0.207316     1.000000
    9.1 Ag    1  3d0          0.082926     1.000000
   10.1 Ag    1  3d2+         0.082926     1.000000
    1.2 B3u   1  2px          7.470701     0.004740
                              3.735743     0.037601
                              1.868068     0.051060
                              0.934132     0.145659
                              0.467115     0.223793
                              0.233582     0.319947
                              0.116803     0.285019
                              0.058408     0.144881
                              0.029207     0.017696
    2.2 B3u   1  2px          0.235016     1.000000
    3.2 B3u   1  2px          0.082056     1.000000
    4.2 B3u   1  2px          0.032822     1.000000
    5.2 B3u   1  4f1+         0.478872     1.000000
    6.2 B3u   1  4f3+         0.478872     1.000000
    7.2 B3u   1  4f1+         0.191549     1.000000
    8.2 B3u   1  4f3+         0.191549     1.000000
    1.3 B2u   1  2py          7.470701     0.004740
                              3.735743     0.037601
                              1.868068     0.051060
                              0.934132     0.145659
                              0.467115     0.223793
                              0.233582     0.319947
                              0.116803     0.285019
                              0.058408     0.144881
                              0.029207     0.017696
    2.3 B2u   1  2py          0.235016     1.000000
    3.3 B2u   1  2py          0.082056     1.000000
    4.3 B2u   1  2py          0.032822     1.000000
    5.3 B2u   1  4f1-         0.478872     1.000000
    6.3 B2u   1  4f3-         0.478872     1.000000
    7.3 B2u   1  4f1-         0.191549     1.000000
    8.3 B2u   1  4f3-         0.191549     1.000000
    1.4 B1g   1  3d2-         0.699153     1.000000
    2.4 B1g   1  3d2-         0.207316     1.000000
    3.4 B1g   1  3d2-         0.082926     1.000000
    1.5 B1u   1  2pz          7.470701     0.004740
                              3.735743     0.037601
                              1.868068     0.051060
                              0.934132     0.145659
                              0.467115     0.223793
                              0.233582     0.319947
                              0.116803     0.285019
                              0.058408     0.144881
                              0.029207     0.017696
    2.5 B1u   1  2pz          0.235016     1.000000
    3.5 B1u   1  2pz          0.082056     1.000000
    4.5 B1u   1  2pz          0.032822     1.000000
    5.5 B1u   1  4f0          0.478872     1.000000
    6.5 B1u   1  4f2+         0.478872     1.000000
    7.5 B1u   1  4f0          0.191549     1.000000
    8.5 B1u   1  4f2+         0.191549     1.000000
    1.6 B2g   1  3d1+         0.699153     1.000000
    2.6 B2g   1  3d1+         0.207316     1.000000
    3.6 B2g   1  3d1+         0.082926     1.000000
    1.7 B3g   1  3d1-         0.699153     1.000000
    2.7 B3g   1  3d1-         0.207316     1.000000
    3.7 B3g   1  3d1-         0.082926     1.000000
    1.8 Au    1  4f2-         0.478872     1.000000
    2.8 Au    1  4f2-         0.191549     1.000000

 NUCLEAR CHARGE:                    3
 NUMBER OF PRIMITIVE AOS:          86
 NUMBER OF SYMMETRY AOS:           77
 NUMBER OF CONTRACTIONS:           45   (  10Ag  +   8B3u +   8B2u +   3B1g +   8B1u +   3B2g +   3B3g +   2Au  )
 NUMBER OF CORE ORBITALS:           0   (   0Ag  +   0B3u +   0B2u +   0B1g +   0B1u +   0B2g +   0B3g +   0Au  )
 NUMBER OF VALENCE ORBITALS:        4   (   1Ag  +   1B3u +   1B2u +   0B1g +   1B1u +   0B2g +   0B3g +   0Au  )


 NUCLEAR REPULSION ENERGY    0.00000000

 EXTRA SYMMETRY OF AOS IN SYMMETRY 1:   1 1 1 1 2 3 2 3 2 3
 EXTRA SYMMETRY OF AOS IN SYMMETRY 2:   1 1 1 1 2 3 2 3
 EXTRA SYMMETRY OF AOS IN SYMMETRY 3:   1 1 1 1 2 3 2 3
 EXTRA SYMMETRY OF AOS IN SYMMETRY 5:   1 1 1 1 2 3 2 3

 Eigenvalues of metric

         1 0.159E-01 0.155E+00 0.196E+00 0.196E+00 0.739E+00 0.823E+00 0.823E+00 0.198E+01
         2 0.339E-01 0.113E+00 0.367E+00 0.367E+00 0.787E+00 0.163E+01 0.163E+01 0.307E+01
         3 0.339E-01 0.113E+00 0.367E+00 0.367E+00 0.787E+00 0.163E+01 0.163E+01 0.307E+01
         4 0.196E+00 0.823E+00 0.198E+01
         5 0.339E-01 0.113E+00 0.367E+00 0.367E+00 0.787E+00 0.163E+01 0.163E+01 0.307E+01
         6 0.196E+00 0.823E+00 0.198E+01
         7 0.196E+00 0.823E+00 0.198E+01
         8 0.367E+00 0.163E+01


 Contracted 2-electron integrals neglected if value below      1.0D-12
 AO integral compression algorithm  1   Integral accuracy      1.0D-12

     1.049 MB (compressed) written to integral file ( 92.5%)


 NUMBER OF SORTED TWO-ELECTRON INTEGRALS:      75808.     BUFFER LENGTH:  32768
 NUMBER OF SEGMENTS:   1  SEGMENT LENGTH:      75808      RECORD LENGTH: 524288

 Memory used in sort:       0.63 MW

 SORT1 READ      155797. AND WROTE       61548. INTEGRALS IN      1 RECORDS. CPU TIME:     0.00 SEC, REAL TIME:     0.01 SEC
 SORT2 READ       61548. AND WROTE       75808. INTEGRALS IN      4 RECORDS. CPU TIME:     0.02 SEC, REAL TIME:     0.03 SEC

 FILE SIZES:   FILE 1:    20.2 MBYTE,  FILE 4:     4.2 MBYTE,   TOTAL:     24.4 MBYTE

 OPERATOR DM      FOR CENTER  0  COORDINATES:    0.000000    0.000000    0.000000
 OPERATOR EKIN    FOR CENTER  0  COORDINATES:    0.000000    0.000000    0.000000
 OPERATOR POT     FOR CENTER  0  COORDINATES:    0.000000    0.000000    0.000000


 **********************************************************************************************************************************
 DATASETS  * FILE   NREC   LENGTH (MB)   RECORD NAMES
              1      20       19.60       500      610      700      900      950      970     1000      129      960     1100   
                                          VAR    BASINP    GEOM    SYMINP    ZMAT    AOBASIS   BASIS     P2S    ABASIS      S 
                                         1400     1410     1420     1200     1210     1080     1600     1650     1300     1700   
                                         EKIN       V       ECP      H0       H01     AOSYM     SMH    MOLCAS    ERIS     OPER   

 PROGRAMS   *        TOTAL       INT
 CPU TIMES  *         0.31      0.20
 REAL TIME  *         1.08 SEC
 DISK USED  *        24.67 MB      
 **********************************************************************************************************************************


 PROGRAM * RHF-SCF (OPEN SHELL)       Authors: W. Meyer, H.-J. Werner


 NUMBER OF ELECTRONS:       2+    1-    SPACE SYMMETRY=2    SPIN SYMMETRY: Doublet 
 CONVERGENCE THRESHOLDS:    1.00E-05 (Density)    1.00E-07 (Energy)
 MAX. NUMBER OF ITERATIONS:       60
 INTERPOLATION TYPE:            DIIS
 INTERPOLATION STEPS:              2 (START)      1 (STEP)
 LEVEL SHIFTS:                 -0.60 (CLOSED) -0.30 (OPEN) 


 Singly occupied orbitals:      1.2

   Atom=B  basis=ECP2MWB_GUESS     lmin=0  lmax=1

 Orbital guess generated from atomic densities. Full valence occupancy:    1   1   1   0   1   0   0   0


 Molecular orbital dump at record        2100.2

 ITERATION    DDIFF          GRAD             ENERGY        2-EL.EN.            DIPOLE MOMENTS         DIIS   ORB.
    1      0.000D+00      0.000D+00        -2.51353244      2.212992    0.00000    0.00000    0.00000    0    start
    2      0.000D+00      0.155D-01        -2.53017137      2.341996    0.00000    0.00000    0.00000    1    diag,B
    3      0.221D-01      0.693D-02        -2.53714430      2.435335    0.00000    0.00000    0.00000    2    diag,B
    4      0.148D-01      0.307D-02        -2.53905708      2.471528    0.00000    0.00000    0.00000    3    diag,B
    5      0.842D-02      0.120D-02        -2.53929291      2.479462    0.00000    0.00000    0.00000    4    diag,B
    6      0.578D-02      0.251D-03        -2.53929876      2.480406    0.00000    0.00000    0.00000    5    diag,B
    7      0.753D-03      0.956D-04        -2.53929949      2.479974    0.00000    0.00000    0.00000    6    fixocc
    8      0.266D-03      0.166D-04        -2.53929951      2.479979    0.00000    0.00000    0.00000    7    diag,B
    9      0.440D-04      0.303D-05        -2.53929951      2.479998    0.00000    0.00000    0.00000    8    diag,B
   10      0.126D-04      0.153D-05        -2.53929951      2.479987    0.00000    0.00000    0.00000    9    orth
   11      0.412D-05      0.154D-06        -2.53929951      2.479987    0.00000    0.00000    0.00000    0    orth

 Final alpha occupancy:   1   1   0   0   0   0   0   0
 Final beta  occupancy:   1   0   0   0   0   0   0   0

 !RHF STATE 1.2 Energy                 -2.539299514384
   --><property name="Energy" method="RHF" principal="true" stateSymmetry="2" stateNumber="1"
     value="-2.53929951438416"/><!--
 Nuclear energy                         0.00000000
 One-electron energy                   -3.77929300
 Two-electron energy                    1.23999349
 Virial quotient                       -1.93324022
 !RHF STATE 1.2 Dipole moment           0.00000000     0.00000000     0.00000000
 Dipole moment /Debye                   0.00000000     0.00000000     0.00000000
   --><property name="Dipole moment" method="RHF" principal="true" stateSymmetry="2"
     stateNumber="1" value="0.0 0.0 0.0"/><!--
 

 !RHF expec          <1.2|EKIN|1.2>     1.313494040759
   --><property name="EKIN" method="RHF" principal="true" stateSymmetry="2" stateNumber="1"
     value="1.31349404075898" origin="0.0 0.0 0.0"/><!--
 
 !RHF expec           <1.2|POT|1.2>    -1.840508016062
   --><property name="POT" method="RHF" principal="true" stateSymmetry="2" stateNumber="1"
     value="-1.84050801606157" origin="0.0 0.0 0.0"/><!--

 ELECTRON ORBITALS
 =================


   Orb  Occ    Energy  Couls-En    Coefficients

                                   1 1s      1 1s      1 1s      1 1s      1 3d0     1 3d2+    1 3d0     1 3d2+    1 3d0     1 3d2+ 


   1.1   2    -0.4938   -1.8371  1.000114  0.000035 -0.000134 -0.000058 -0.000614  0.001063 -0.001078  0.001867 -0.002657  0.004602

                                   1 2px     1 2px     1 2px     1 2px     1 4f1+    1 4f3+    1 4f1+    1 4f3+ 

   1.2   +    -0.3118   -1.4045  0.999755 -0.000065  0.000401 -0.000022  0.000072 -0.000093 -0.000015  0.000020

 HOMO      1.2    -0.311751 =      -8.4832eV
 LUMO      1.3     0.026966 =       0.7338eV
 LUMO-HOMO         0.338718 =       9.2170eV


 **********************************************************************************************************************************
 DATASETS  * FILE   NREC   LENGTH (MB)   RECORD NAMES
              1      20       19.60       500      610      700      900      950      970     1000      129      960     1100   
                                          VAR    BASINP    GEOM    SYMINP    ZMAT    AOBASIS   BASIS     P2S    ABASIS      S 
                                         1400     1410     1420     1200     1210     1080     1600     1650     1300     1700   
                                         EKIN       V       ECP      H0       H01     AOSYM     SMH    MOLCAS    ERIS     OPER   

              2       4        2.76       700     1000      520     2100   
                                         GEOM     BASIS   MCVARS     RHF  

 PROGRAMS   *        TOTAL        HF       INT
 CPU TIMES  *         0.36      0.04      0.20
 REAL TIME  *         1.20 SEC
 DISK USED  *        24.67 MB      
 **********************************************************************************************************************************
   -->
   <time start="12:15:36" end="12:15:37" cpu="0.36" system="0.6" real="1.2"/>
   <storage units="megabyte" memory="4097.84" sf="0.0" df="24.67" eaf="0.0"/>
  </jobstep><!--
 SETTING SCF(I)         =        -2.53929951  AU                              
 SETTING _CC_NORM_MAX   =         2.00000000                                  
  --><jobstep command="RCISD" commandset="CCSD">
   <!--


 PROGRAM * CISD (Restricted open-shell CI(SD))     Authors: C. Hampel, H.-J. Werner, 1991, M. Deegan, P.J. Knowles, 1992


 Convergence thresholds:  THRVAR = 1.00D-08  THRDEN = 1.00D-06

 Number of closed-shell orbitals:   1 (   1   0   0   0   0   0   0   0 )
 Number of active  orbitals:        1 (   0   1   0   0   0   0   0   0 )
 Number of external orbitals:      43 (   9   7   8   3   8   3   3   2 )

 Number of N-1 electron functions:               3
 Number of N-2 electron functions:               3
 Number of singly external CSFs:                26
 Number of doubly external CSFs:               682
 Total number of CSFs:                         708

 Molecular orbitals read from record     2100.2  Type=RHF/CANONICAL (state 1.2)

 Integral transformation finished. Total CPU:   0.00 sec, npass=  1  Memory used:   0.07 MW

 Starting RMP2 calculation

 Wavefunction is spin-projected

 ITER.      SQ.NORM     CORR.ENERGY   TOTAL ENERGY   ENERGY CHANGE        DEN1      VAR(S)    VAR(P)  DIIS     TIME
   1      1.02973712    -0.04998882    -2.58928834    -0.04998882    -0.00045880  0.13D-04  0.29D-03  1  1     0.01
   2      1.03051498    -0.05050580    -2.58980532    -0.00051698    -0.00000064  0.15D-07  0.38D-06  2  2     0.01
   3      1.03053181    -0.05051270    -2.58981221    -0.00000689    -0.00000000  0.91D-10  0.81D-09  3  3     0.01
   4      1.03053205    -0.05051276    -2.58981227    -0.00000006    -0.00000000  0.32D-12  0.22D-11  4  4     0.01

 Norm of t1 vector:      0.03748386      S-energy:    -0.00214083      T1 diagnostic:  0.00027860
 Norm of t2 vector:      0.17066639      P-energy:    -0.04837193
                                         Alpha-Beta:  -0.04492936
                                         Alpha-Alpha: -0.00344257
                                         Beta-Beta:    0.00000000

 Spin contamination <S**2-Sz**2-Sz>     0.00000000
  Reference energy                     -2.539299514384
   --><property name="energy" method="Reference" stateSymmetry="1" stateNumber="1"
     value="-2.53929951438416"/><!--
  RHF-RMP2 correlation energy          -0.050512758466
   --><property name="energy" method="RHF-RMP2 correlation" stateSymmetry="1" stateNumber="1"
     value="-0.505127584658755E-01"/><!--
 !RHF-RMP2 energy                      -2.589812272850
   --><property name="energy" method="RHF-RMP2" principal="true" stateSymmetry="2"
     stateNumber="1" value="-2.58981227285004"/><!--
 (NB above energy spin projected)

 Starting RCISD calculation

 ITER.      SQ.NORM     CORR.ENERGY   TOTAL ENERGY   ENERGY CHANGE        DEN1      VAR(S)    VAR(P)  DIIS     TIME
   1      1.04493333    -0.05913901    -2.59843853    -0.05913901    -0.00610996  0.40D-03  0.36D-02  1  1     0.01
   2      1.06760909    -0.06785638    -2.60715590    -0.00871737    -0.00053980  0.25D-04  0.29D-03  2  2     0.01
   3      1.07665640    -0.07109583    -2.61039534    -0.00323944    -0.00003828  0.18D-05  0.22D-04  3  3     0.01
   4      1.07887465    -0.07150661    -2.61080613    -0.00041079    -0.00000185  0.30D-06  0.90D-06  4  4     0.01
   5      1.07899516    -0.07153379    -2.61083330    -0.00002717    -0.00000013  0.33D-07  0.61D-07  5  5     0.01
   6      1.07900696    -0.07153464    -2.61083416    -0.00000085    -0.00000001  0.25D-08  0.46D-08  6  6     0.02

 Norm of t1 vector:      0.05974274      S-energy:    -0.00287915      T1 diagnostic:  0.01218217
 Norm of t2 vector:      0.27465937      P-energy:    -0.06865587
                                         Alpha-Beta:  -0.06496740
                                         Alpha-Alpha: -0.00368846
                                         Beta-Beta:    0.00000000

 Doubles amplitudes (print threshold =  0.500E-01):

         I         J         SYM. A    SYM. B    A         B      T(IJ, AB) [Alpha-Beta]

         1         1         3         3         1         1     -0.08353721
         1         1         3         3         1         2      0.06704292
         1         1         3         3         2         1      0.06704292
         1         1         3         3         2         2     -0.05421738
         1         1         5         5         1         1     -0.08353721
         1         1         5         5         1         2      0.06704292
         1         1         5         5         2         1      0.06704292
         1         1         5         5         2         2     -0.05421738
         2         1         1         2         5         1     -0.05202454

 Spin contamination <S**2-Sz**2-Sz>     0.00000000
 

 ?Inconsistent energies:

 ecorr    -0.0715350139  -0.0715346410   -0.37D-06
 estrong  -0.0686558650  -0.0686558650   -0.14D-16
 eclose    0.0000000000   0.0000000000    0.00D+00
 eweak     0.0000000000   0.0000000000    0.00D+00
 edist     0.0000000000   0.0000000000    0.00D+00

 RESULTS
 =======

  Reference energy                     -2.539299514384
   --><property name="energy" method="Reference" stateSymmetry="1" stateNumber="1"
     value="-2.53929951438416"/><!--
  RCISD singles energy                 -0.002878776007
   --><property name="energy" method="RCISD singles" stateSymmetry="1" stateNumber="1"
     value="-0.287877600691533E-02"/><!--
  RCISD pair energy                    -0.068655865043
   --><property name="energy" method="RCISD pair" stateSymmetry="1" stateNumber="1"
     value="-0.686558650425799E-01"/><!--
  RCISD correlation energy             -0.071534641049
   --><property name="energy" method="RCISD correlation" stateSymmetry="1" stateNumber="1"
     value="-0.715346410494952E-01"/><!--
 
 !RHF-RCISD energy                     -2.610834155434
   --><property name="energy" method="RHF-RCISD" principal="true" stateSymmetry="1"
     stateNumber="1" value="-2.61083415543366"/><!--

 Program statistics:

 Available memory in ccsd:               511999848
 Min. memory needed in ccsd:                 10976
 Max. memory used in ccsd:                   11182
 Max. memory used in cckext:                 41210 ( 6 integral passes)
 Max. memory used in cckint:                 68451 ( 1 integral passes)



 **********************************************************************************************************************************
 DATASETS  * FILE   NREC   LENGTH (MB)   RECORD NAMES
              1      20       19.60       500      610      700      900      950      970     1000      129      960     1100   
                                          VAR    BASINP    GEOM    SYMINP    ZMAT    AOBASIS   BASIS     P2S    ABASIS      S 
                                         1400     1410     1420     1200     1210     1080     1600     1650     1300     1700   
                                         EKIN       V       ECP      H0       H01     AOSYM     SMH    MOLCAS    ERIS     OPER   

              2       4        2.76       700     1000      520     2100   
                                         GEOM     BASIS   MCVARS     RHF  

 PROGRAMS   *        TOTAL     RCISD        HF       INT
 CPU TIMES  *         0.40      0.04      0.04      0.20
 REAL TIME  *         1.58 SEC
 DISK USED  *        24.67 MB      
 **********************************************************************************************************************************
   -->
   <time start="12:15:37" end="12:15:37" cpu="0.04" system="0.02" real="0.38"/>
   <storage units="megabyte" memory="4097.84" sf="0.0" df="24.67" eaf="0.0"/>
  </jobstep><!--
 SETTING POSTHF(I)      =        -2.61083416  AU                              
                                                                                                                                                                                                                                                                

       SCF           POSTHF       EKIN          POT
    -2.53929951   -2.61083416   1.31349404   -1.84050802
                                                  
-->
<table xmlns="http://www.w3.org/1999/xhtml" id="table1">
<thead><tr><th>SCF</th><th>POSTHF</th><th>EKIN</th><th>POT</th></tr></thead><tbody>
<tr><td>   -2.53929951</td><td>   -2.61083416</td><td>   1.31349404</td><td>   -1.84050802</td></tr>
</tbody></table>
<!--

 RCISD/USERDEF energy=     -2.610834155434

        RCISD           HF-SCF  
     -2.61083416     -2.53929951
 **********************************************************************************************************************************
 Variable memory released
  --><stm:metadataList>
   <stm:metadata name="dc:date" content="2018-06-11T12:15:38-07:00"/>
   <stm:metadata name="dc:creator" content="aannabe"/>
   <stm:metadata name="dc:title" content="B"/>
   <stm:metadata name="cmlm:insilico" content="Molpro"/>
  </stm:metadataList><!--
  --><platform>
   <version major="2015" minor="1" SHA="2873118e99aab1bc19f5b6fc1784693c06d15c95"
     integer_bits="64" parallelism="serial">
    2015.1
    <date year="2018" month="6" day="11" hour="12" minute="15" second="36">
     2018-06-11T12:15:36
    </date>
   </version>
   <licence id="lbl"/>
   <parallel processes="1" nodes="1" all_processes="1" openmp="1"/>
   <machine hostname="" architecture="">
     64 bit serial version
    <sysinfo name="cpu MHz" content="2301.000"/>
    <sysinfo name="MemTotal" content="131899616 kB"/>
    <sysinfo name="vendor_id" content="GenuineIntel"/>
    <sysinfo name="cpu family" content="6"/>
    <sysinfo name="model name" content="Intel(R) Xeon(R) CPU E5-2698 v3 @ 2.30GHz"/>
    <sysinfo name="flags"
      content="fpu vme de pse tsc msr pae mce cx8 apic sep mtrr pge mca cmov pat pse36 clflush dts acpi mmx fxsr sse sse2 ss ht tm pbe syscall nx pdpe1gb rdtscp lm constant_tsc arch_perfmon pebs bts rep_good nopl xtopology nonstop_tsc aperfmperf eagerfpu pni pclmulqdq dtes64 monitor ds_cpl vmx smx est tm2 ssse3 sdbg fma cx16 xtpr pdcm pcid dca sse4_1 sse4_2 x2apic movbe popcnt tsc_deadline_timer aes xsave avx f16c rdrand lahf_lm abm ida arat epb invpcid_single pln pts dtherm kaiser tpr_shadow vnmi flexpriority ept vpid fsgsbase tsc_adjust bmi1 avx2 smep bmi2 erms invpcid cqm xsaveopt cqm_llc cqm_occup_llc"/>
    <sysinfo name="MemTotal" content="131899616 kB"/>
    <sysinfo name="cache size" content="40960 KB"/>
    <sysinfo name="ncpu" content="64"/>
   </machine>
  </platform><!--
  -->
  <input>
   <p> ***,B </p>
   <p> memory,512,m </p>
   <p> gthresh,twoint=1.e-12 </p>
   <p> gprint,basis,orbitals </p>
   <p> gexpec,ekin,pot </p>
   <p> angstrom </p>
   <p> geometry={ </p>
   <p> 1                                                                               ! Number of atoms </p>
   <p> B 0.0 0.0 0.0 </p>
   <p> } </p>
   <p> basis={ </p>
   <include file="/global/homes/a/aannabe/docs/totals/pps/B.pp"/>
   <include file="/global/homes/a/aannabe/docs/totals/basis/aug-cc-pVnZ/B_tz.basis"/>
   <p> } </p>
   <p> {hf </p>
   <p> wf,3,2,1 </p>
   <p> occ,1,1,0,0,0,0,0,0 </p>
   <p> open,1.2 </p>
   <p>                                                                                 !closed,1,0,0,0,0,0,0,0 </p>
   <p>                                                                                 !sym, </p>
   <p> } </p>
   <p> scf(i)=energy </p>
   <p> _CC_NORM_MAX=2.0 </p>
   <p> {rcisd </p>
   <p> maxit,100 </p>
   <p> core </p>
   <p> } </p>
   <p> posthf(i)=energy </p>
   <p> table,scf,posthf,ekin,pot </p>
   <p> save,3.csv </p>
  </input>
  <!--
 --></job><!--
--></molpro>
