
 Primary working directories    : /global/cscratch1/sd/aannabe
 Secondary working directories  : /global/cscratch1/sd/aannabe
 Wavefunction directory         : /global/homes/a/aannabe/wfu/
 Main file repository           : /global/cscratch1/sd/aannabe/

 SHA1      : 2873118e99aab1bc19f5b6fc1784693c06d15c95
 NAME      : 2015.1.8
 ARCHNAME  : linux/x86_64
 FC        : /opt/cray/pe/craype/2.5.5/bin/ftn
 BLASLIB   : -Wl,-_start-group /opt/intel/compilers_and_libraries_2016.3.210/linux/mkl/lib/intel64/libmkl_intel_ilp64.a /opt/intel/compilers_and_libraries_2016.3.210/linux/mkl/lib/intel64/libmkl_intel_thread.a /opt/intel/compilers_and_libraries_2016.3.210/linux/mkl/lib/intel64/libmkl_core.a -Wl,-_end-group
 id        : lbl

 Nodes     nprocs
 nid00444     1

 Using customized tuning parameters: mindgm=8; mindgv=16; mindgc=4; mindgr=1; noblas=0; minvec=7
 default implementation of scratch files=df  

 ***,B
 memory,512,m
 gthresh,twoint=1.e-12
 
 gprint,basis,orbitals
 gexpec,ekin,pot
 
 angstrom
 geometry={
 1                                                                               ! Number of atoms
 B 0.0 0.0 0.0
 }
 
 basis={
 Including file /global/homes/a/aannabe/docs/totals/pps/B.pp
 Including file /global/homes/a/aannabe/docs/totals/basis/aug-cc-pVnZ/B_5z.basis
 }
 
 {hf
 wf,3,2,1
 occ,1,1,0,0,0,0,0,0
 open,1.2
                                                                                 !closed,1,0,0,0,0,0,0,0
                                                                                 !sym,
 }
 scf(i)=energy
 
 _CC_NORM_MAX=2.0
 {rcisd
 maxit,100
 core
 }
 posthf(i)=energy
 
 table,scf,posthf,ekin,pot
 save,5.csv
 
 

 Variables initialized (889), CPU time= 0.01 sec
 Commands  initialized (702), CPU time= 0.01 sec, 572 directives.
 Default parameters read. Elapsed time= 0.10 sec

 Checking input...
 Passed
1


                                         ***  PROGRAM SYSTEM MOLPRO  ***
                                       Copyright, TTI GmbH Stuttgart, 2015
                                    Version 2015.1 linked Sep  7 2016 23:09:38


 **********************************************************************************************************************************
 LABEL *   B                                                                             
  64 bit serial version                                                                  DATE: 11-Jun-18          TIME: 12:15:47  
 **********************************************************************************************************************************

 SHA1:             2873118e99aab1bc19f5b6fc1784693c06d15c95
 **********************************************************************************************************************************

 THRESHOLDS:

 ZERO    =  1.00D-12  ONEINT  =  1.00D-12  TWOINT  =  1.00D-12  PREFAC  =  1.00D-14  LOCALI  =  1.00D-09  EORDER  =  1.00D-04
 ENERGY  =  0.00D+00  ETEST   =  0.00D+00  EDENS   =  0.00D+00  THRDEDEF=  1.00D-06  GRADIENT=  1.00D-02  STEP    =  1.00D-03
 ORBITAL =  1.00D-05  CIVEC   =  1.00D-05  COEFF   =  1.00D-04  PRINTCI =  5.00D-02  PUNCHCI =  9.90D+01  OPTGRAD =  3.00D-04
 OPTENERG=  1.00D-06  OPTSTEP =  3.00D-04  THRGRAD =  1.00D-10  COMPRESS=  1.00D-11  VARMIN  =  1.00D-07  VARMAX  =  1.00D-03
 THRDOUB =  0.00D+00  THRDIV  =  1.00D-05  THRRED  =  1.00D-07  THRPSP  =  1.00D+00  THRDC   =  1.00D-10  THRCS   =  1.00D-10
 THRNRM  =  1.00D-08  THREQ   =  0.00D+00  THRDE   =  1.00D+00  THRREF  =  1.00D-05  SPARFAC =  1.00D+00  THRDLP  =  1.00D-07
 THRDIA  =  1.00D-10  THRDLS  =  1.00D-07  THRGPS  =  0.00D+00  THRKEX  =  0.00D+00  THRDIS  =  2.00D-01  THRVAR  =  1.00D-10
 THRLOC  =  1.00D-06  THRGAP  =  1.00D-06  THRLOCT = -1.00D+00  THRGAPT = -1.00D+00  THRORB  =  1.00D-06  THRMLTP =  0.00D+00
 THRCPQCI=  1.00D-10  KEXTA   =  0.00D+00  THRCOARS=  0.00D+00  SYMTOL  =  1.00D-06  GRADTOL =  1.00D-06  THROVL  =  1.00D-08
 THRORTH =  1.00D-08  GRID    =  1.00D-06  GRIDMAX =  1.00D-03  DTMAX   =  0.00D+00  THROCCDE=  1.00D-01  THROCCDE=  1.00D-01



 ZUNIT=ANG
 

Geometry recognized as XYZ


 Variable memory set to  512000000 words,  buffer space   230000 words

 SETTING BASIS          =    USERDEF


 Recomputing integrals since basis changed


 Using spherical harmonics



 PROGRAM * SEWARD (Integral evaluation for generally contracted gaussian basis sets)     Author: Roland Lindh, 1990

 Geometry written to block  1 of record 700

 Orientation using atomic masses  
 Molecule type: Atom
 Symmetry elements: X,Y,Z
 Rotational constants:       0.0000000      0.0000000      0.0000000 GHz  (calculated with average atomic masses)

 Point group  D2h 



 ATOMIC COORDINATES

 NR  ATOM    CHARGE       X              Y              Z

   1  B       3.00    0.000000000    0.000000000    0.000000000


          B   CORE POTENTIAL

          p POTENTIAL

 POWERS             1              3              2
 EXPONENTIALS   31.49298       22.56509       8.646690    
 COEFFICIENTS   3.000000       94.47895      -9.748000    

          s - p POTENTIAL

 POWERS             2
 EXPONENTIALS   4.062460    
 COEFFICIENTS   20.74800    


 BASIS DATA

   Nr Sym  Nuc  Type         Exponents   Contraction coefficients

    1.1 Ag    1  1s          11.760500    -0.003676
                              5.150520     0.025052
                              2.578276    -0.124923
                              1.290648    -0.066287
                              0.646080     0.100734
                              0.323418     0.337549
                              0.161898     0.430843
                              0.081044     0.248656
                              0.040569     0.031730
    2.1 Ag    1  1s           0.614105     1.000000
    3.1 Ag    1  1s           0.375720     1.000000
    4.1 Ag    1  1s           0.170896     1.000000
    5.1 Ag    1  1s           0.070664     1.000000
    6.1 Ag    1  1s           0.028266     1.000000
    7.1 Ag    1  3d0          1.022256     1.000000
    8.1 Ag    1  3d2+         1.022256     1.000000
    9.1 Ag    1  3d0          0.808233     1.000000
   10.1 Ag    1  3d2+         0.808233     1.000000
   11.1 Ag    1  3d0          0.380163     1.000000
   12.1 Ag    1  3d2+         0.380163     1.000000
   13.1 Ag    1  3d0          0.134838     1.000000
   14.1 Ag    1  3d2+         0.134838     1.000000
   15.1 Ag    1  3d0          0.053935     1.000000
   16.1 Ag    1  3d2+         0.053935     1.000000
   17.1 Ag    1  5g0          0.824366     1.000000
   18.1 Ag    1  5g4+         0.824366     1.000000
   19.1 Ag    1  5g2+         0.824366     1.000000
   20.1 Ag    1  5g0          0.486131     1.000000
   21.1 Ag    1  5g4+         0.486131     1.000000
   22.1 Ag    1  5g2+         0.486131     1.000000
   23.1 Ag    1  5g0          0.194452     1.000000
   24.1 Ag    1  5g4+         0.194452     1.000000
   25.1 Ag    1  5g2+         0.194452     1.000000
    1.2 B3u   1  2px          7.470701     0.004740
                              3.735743     0.037601
                              1.868068     0.051060
                              0.934132     0.145659
                              0.467115     0.223793
                              0.233582     0.319947
                              0.116803     0.285019
                              0.058408     0.144881
                              0.029207     0.017696
    2.2 B3u   1  2px          0.566611     1.000000
    3.2 B3u   1  2px          0.436327     1.000000
    4.2 B3u   1  2px          0.143772     1.000000
    5.2 B3u   1  2px          0.057917     1.000000
    6.2 B3u   1  2px          0.023167     1.000000
    7.2 B3u   1  4f1+         1.002171     1.000000
    8.2 B3u   1  4f3+         1.002171     1.000000
    9.2 B3u   1  4f1+         0.799174     1.000000
   10.2 B3u   1  4f3+         0.799174     1.000000
   11.2 B3u   1  4f1+         0.272717     1.000000
   12.2 B3u   1  4f3+         0.272717     1.000000
   13.2 B3u   1  4f1+         0.109087     1.000000
   14.2 B3u   1  4f3+         0.109087     1.000000
   15.2 B3u   1  6h1+         0.632779     1.000000
   16.2 B3u   1  6h3+         0.632779     1.000000
   17.2 B3u   1  6h5+         0.632779     1.000000
   18.2 B3u   1  6h1+         0.253112     1.000000
   19.2 B3u   1  6h3+         0.253112     1.000000
   20.2 B3u   1  6h5+         0.253112     1.000000
    1.3 B2u   1  2py          7.470701     0.004740
                              3.735743     0.037601
                              1.868068     0.051060
                              0.934132     0.145659
                              0.467115     0.223793
                              0.233582     0.319947
                              0.116803     0.285019
                              0.058408     0.144881
                              0.029207     0.017696
    2.3 B2u   1  2py          0.566611     1.000000
    3.3 B2u   1  2py          0.436327     1.000000
    4.3 B2u   1  2py          0.143772     1.000000
    5.3 B2u   1  2py          0.057917     1.000000
    6.3 B2u   1  2py          0.023167     1.000000
    7.3 B2u   1  4f1-         1.002171     1.000000
    8.3 B2u   1  4f3-         1.002171     1.000000
    9.3 B2u   1  4f1-         0.799174     1.000000
   10.3 B2u   1  4f3-         0.799174     1.000000
   11.3 B2u   1  4f1-         0.272717     1.000000
   12.3 B2u   1  4f3-         0.272717     1.000000
   13.3 B2u   1  4f1-         0.109087     1.000000
   14.3 B2u   1  4f3-         0.109087     1.000000
   15.3 B2u   1  6h1-         0.632779     1.000000
   16.3 B2u   1  6h3-         0.632779     1.000000
   17.3 B2u   1  6h5-         0.632779     1.000000
   18.3 B2u   1  6h1-         0.253112     1.000000
   19.3 B2u   1  6h3-         0.253112     1.000000
   20.3 B2u   1  6h5-         0.253112     1.000000
    1.4 B1g   1  3d2-         1.022256     1.000000
    2.4 B1g   1  3d2-         0.808233     1.000000
    3.4 B1g   1  3d2-         0.380163     1.000000
    4.4 B1g   1  3d2-         0.134838     1.000000
    5.4 B1g   1  3d2-         0.053935     1.000000
    6.4 B1g   1  5g2-         0.824366     1.000000
    7.4 B1g   1  5g4-         0.824366     1.000000
    8.4 B1g   1  5g2-         0.486131     1.000000
    9.4 B1g   1  5g4-         0.486131     1.000000
   10.4 B1g   1  5g2-         0.194452     1.000000
   11.4 B1g   1  5g4-         0.194452     1.000000
    1.5 B1u   1  2pz          7.470701     0.004740
                              3.735743     0.037601
                              1.868068     0.051060
                              0.934132     0.145659
                              0.467115     0.223793
                              0.233582     0.319947
                              0.116803     0.285019
                              0.058408     0.144881
                              0.029207     0.017696
    2.5 B1u   1  2pz          0.566611     1.000000
    3.5 B1u   1  2pz          0.436327     1.000000
    4.5 B1u   1  2pz          0.143772     1.000000
    5.5 B1u   1  2pz          0.057917     1.000000
    6.5 B1u   1  2pz          0.023167     1.000000
    7.5 B1u   1  4f0          1.002171     1.000000
    8.5 B1u   1  4f2+         1.002171     1.000000
    9.5 B1u   1  4f0          0.799174     1.000000
   10.5 B1u   1  4f2+         0.799174     1.000000
   11.5 B1u   1  4f0          0.272717     1.000000
   12.5 B1u   1  4f2+         0.272717     1.000000
   13.5 B1u   1  4f0          0.109087     1.000000
   14.5 B1u   1  4f2+         0.109087     1.000000
   15.5 B1u   1  6h2+         0.632779     1.000000
   16.5 B1u   1  6h4+         0.632779     1.000000
   17.5 B1u   1  6h0          0.632779     1.000000
   18.5 B1u   1  6h2+         0.253112     1.000000
   19.5 B1u   1  6h4+         0.253112     1.000000
   20.5 B1u   1  6h0          0.253112     1.000000
    1.6 B2g   1  3d1+         1.022256     1.000000
    2.6 B2g   1  3d1+         0.808233     1.000000
    3.6 B2g   1  3d1+         0.380163     1.000000
    4.6 B2g   1  3d1+         0.134838     1.000000
    5.6 B2g   1  3d1+         0.053935     1.000000
    6.6 B2g   1  5g1+         0.824366     1.000000
    7.6 B2g   1  5g3+         0.824366     1.000000
    8.6 B2g   1  5g1+         0.486131     1.000000
    9.6 B2g   1  5g3+         0.486131     1.000000
   10.6 B2g   1  5g1+         0.194452     1.000000
   11.6 B2g   1  5g3+         0.194452     1.000000
    1.7 B3g   1  3d1-         1.022256     1.000000
    2.7 B3g   1  3d1-         0.808233     1.000000
    3.7 B3g   1  3d1-         0.380163     1.000000
    4.7 B3g   1  3d1-         0.134838     1.000000
    5.7 B3g   1  3d1-         0.053935     1.000000
    6.7 B3g   1  5g1-         0.824366     1.000000
    7.7 B3g   1  5g3-         0.824366     1.000000
    8.7 B3g   1  5g1-         0.486131     1.000000
    9.7 B3g   1  5g3-         0.486131     1.000000
   10.7 B3g   1  5g1-         0.194452     1.000000
   11.7 B3g   1  5g3-         0.194452     1.000000
    1.8 Au    1  4f2-         1.002171     1.000000
    2.8 Au    1  4f2-         0.799174     1.000000
    3.8 Au    1  4f2-         0.272717     1.000000
    4.8 Au    1  4f2-         0.109087     1.000000
    5.8 Au    1  6h4-         0.632779     1.000000
    6.8 Au    1  6h2-         0.632779     1.000000
    7.8 Au    1  6h4-         0.253112     1.000000
    8.8 Au    1  6h2-         0.253112     1.000000

 NUCLEAR CHARGE:                    3
 NUMBER OF PRIMITIVE AOS:         213
 NUMBER OF SYMMETRY AOS:          158
 NUMBER OF CONTRACTIONS:          126   (  25Ag  +  20B3u +  20B2u +  11B1g +  20B1u +  11B2g +  11B3g +   8Au  )
 NUMBER OF CORE ORBITALS:           0   (   0Ag  +   0B3u +   0B2u +   0B1g +   0B1u +   0B2g +   0B3g +   0Au  )
 NUMBER OF VALENCE ORBITALS:        4   (   1Ag  +   1B3u +   1B2u +   0B1g +   1B1u +   0B2g +   0B3g +   0Au  )


 NUCLEAR REPULSION ENERGY    0.00000000

 EXTRA SYMMETRY OF AOS IN SYMMETRY 1:   1 1 1 1 1 1 2 3 2 3   2 3 2 3 2 3 4 5 6 4   5 6 4 5 6
 EXTRA SYMMETRY OF AOS IN SYMMETRY 2:   1 1 1 1 1 1 2 3 2 3   2 3 2 3 4 5 6 4 5 6
 EXTRA SYMMETRY OF AOS IN SYMMETRY 3:   1 1 1 1 1 1 2 3 2 3   2 3 2 3 4 5 6 4 5 6
 EXTRA SYMMETRY OF AOS IN SYMMETRY 4:   1 1 1 1 1 2 3 2 3 2   3
 EXTRA SYMMETRY OF AOS IN SYMMETRY 5:   1 1 1 1 1 1 2 3 2 3   2 3 2 3 4 5 6 4 5 6
 EXTRA SYMMETRY OF AOS IN SYMMETRY 6:   1 1 1 1 1 2 3 2 3 2   3
 EXTRA SYMMETRY OF AOS IN SYMMETRY 7:   1 1 1 1 1 2 3 2 3 2   3
 EXTRA SYMMETRY OF AOS IN SYMMETRY 8:   1 1 1 1 2 3 2 3

 Eigenvalues of metric

         1 0.116E-02 0.507E-02 0.534E-02 0.534E-02 0.319E-01 0.105E+00 0.105E+00 0.105E+00
         2 0.268E-02 0.115E-01 0.152E-01 0.152E-01 0.632E-01 0.288E+00 0.288E+00 0.406E+00
         3 0.268E-02 0.115E-01 0.152E-01 0.152E-01 0.632E-01 0.288E+00 0.288E+00 0.406E+00
         4 0.534E-02 0.105E+00 0.105E+00 0.109E+00 0.426E+00 0.754E+00 0.754E+00 0.150E+01
         5 0.268E-02 0.115E-01 0.152E-01 0.152E-01 0.632E-01 0.288E+00 0.288E+00 0.406E+00
         6 0.534E-02 0.105E+00 0.105E+00 0.109E+00 0.426E+00 0.754E+00 0.754E+00 0.150E+01
         7 0.534E-02 0.105E+00 0.105E+00 0.109E+00 0.426E+00 0.754E+00 0.754E+00 0.150E+01
         8 0.152E-01 0.288E+00 0.483E+00 0.483E+00 0.124E+01 0.152E+01 0.152E+01 0.246E+01


 Contracted 2-electron integrals neglected if value below      1.0D-12
 AO integral compression algorithm  1   Integral accuracy      1.0D-12

     30.671 MB (compressed) written to integral file ( 54.5%)


 NUMBER OF SORTED TWO-ELECTRON INTEGRALS:    4156552.     BUFFER LENGTH:  32768
 NUMBER OF SEGMENTS:   1  SEGMENT LENGTH:    4156552      RECORD LENGTH: 524288

 Memory used in sort:       4.71 MW

 SORT1 READ     6989366. AND WROTE     2907704. INTEGRALS IN      9 RECORDS. CPU TIME:     0.23 SEC, REAL TIME:     0.26 SEC
 SORT2 READ     2907704. AND WROTE     4156552. INTEGRALS IN    117 RECORDS. CPU TIME:     0.18 SEC, REAL TIME:     0.26 SEC

 FILE SIZES:   FILE 1:    50.1 MBYTE,  FILE 4:    37.8 MBYTE,   TOTAL:     87.9 MBYTE

 OPERATOR DM      FOR CENTER  0  COORDINATES:    0.000000    0.000000    0.000000
 OPERATOR EKIN    FOR CENTER  0  COORDINATES:    0.000000    0.000000    0.000000
 OPERATOR POT     FOR CENTER  0  COORDINATES:    0.000000    0.000000    0.000000


 **********************************************************************************************************************************
 DATASETS  * FILE   NREC   LENGTH (MB)   RECORD NAMES
              1      20       37.85       500      610      700      900      950      970     1000      129      960     1100   
                                          VAR    BASINP    GEOM    SYMINP    ZMAT    AOBASIS   BASIS     P2S    ABASIS      S 
                                         1400     1410     1420     1200     1210     1080     1600     1650     1300     1700   
                                         EKIN       V       ECP      H0       H01     AOSYM     SMH    MOLCAS    ERIS     OPER   

 PROGRAMS   *        TOTAL       INT
 CPU TIMES  *         1.82      1.71
 REAL TIME  *         2.99 SEC
 DISK USED  *        88.22 MB      
 **********************************************************************************************************************************


 PROGRAM * RHF-SCF (OPEN SHELL)       Authors: W. Meyer, H.-J. Werner


 NUMBER OF ELECTRONS:       2+    1-    SPACE SYMMETRY=2    SPIN SYMMETRY: Doublet 
 CONVERGENCE THRESHOLDS:    1.00E-05 (Density)    1.00E-07 (Energy)
 MAX. NUMBER OF ITERATIONS:       60
 INTERPOLATION TYPE:            DIIS
 INTERPOLATION STEPS:              2 (START)      1 (STEP)
 LEVEL SHIFTS:                 -0.60 (CLOSED) -0.30 (OPEN) 


 Singly occupied orbitals:      1.2

   Atom=B  basis=ECP2MWB_GUESS     lmin=0  lmax=1

 Orbital guess generated from atomic densities. Full valence occupancy:    1   1   1   0   1   0   0   0


 Molecular orbital dump at record        2100.2

 ITERATION    DDIFF          GRAD             ENERGY        2-EL.EN.            DIPOLE MOMENTS         DIIS   ORB.
    1      0.000D+00      0.000D+00        -2.51193791      2.202848    0.00000    0.00000    0.00000    0    start
    2      0.000D+00      0.962D-02        -2.52943753      2.336791    0.00000    0.00000    0.00000    1    diag,B
    3      0.829D-02      0.431D-02        -2.53688917      2.432580    0.00000    0.00000    0.00000    2    diag,B
    4      0.518D-02      0.198D-02        -2.53912020      2.474402    0.00000    0.00000    0.00000    3    diag,B
    5      0.383D-02      0.663D-03        -2.53929101      2.478833    0.00000    0.00000    0.00000    4    diag,B
    6      0.134D-02      0.200D-03        -2.53930380      2.480272    0.00000    0.00000    0.00000    5    diag,B
    7      0.550D-03      0.589D-04        -2.53930449      2.479987    0.00000    0.00000    0.00000    6    fixocc
    8      0.176D-03      0.173D-04        -2.53930455      2.480009    0.00000    0.00000    0.00000    7    diag,B
    9      0.463D-04      0.504D-05        -2.53930456      2.480002    0.00000    0.00000    0.00000    8    diag,B
   10      0.216D-04      0.573D-06        -2.53930456      2.479997    0.00000    0.00000    0.00000    9    orth
   11      0.112D-05      0.238D-06        -2.53930456      2.479998    0.00000    0.00000    0.00000    0    orth

 Final alpha occupancy:   1   1   0   0   0   0   0   0
 Final beta  occupancy:   1   0   0   0   0   0   0   0

 !RHF STATE 1.2 Energy                 -2.539304558879
 Nuclear energy                         0.00000000
 One-electron energy                   -3.77930339
 Two-electron energy                    1.23999883
 Virial quotient                       -1.93312651
 !RHF STATE 1.2 Dipole moment           0.00000000     0.00000000     0.00000000
 Dipole moment /Debye                   0.00000000     0.00000000     0.00000000
 

 !RHF expec          <1.2|EKIN|1.2>     1.313573913848
 
 !RHF expec           <1.2|POT|1.2>    -1.840532716032

 ELECTRON ORBITALS
 =================


   Orb  Occ    Energy  Couls-En    Coefficients

                                   1 1s      1 1s      1 1s      1 1s      1 1s      1 1s      1 3d0     1 3d2+    1 3d0     1 3d2+ 
                                   1 3d0     1 3d2+    1 3d0     1 3d2+    1 3d0     1 3d2+    1 5g0     1 5g4+    1 5g2+    1 5g0  
                                   1 5g4+    1 5g2+    1 5g0     1 5g4+    1 5g2+ 

   1.1   2    -0.4938   -1.8371  1.000022 -0.000068  0.000149  0.000051 -0.000262  0.000081 -0.002114  0.003661  0.001953 -0.003382
                                -0.000791  0.001370 -0.002426  0.004201 -0.001157  0.002004 -0.000003 -0.000005  0.000004 -0.000004
                                -0.000008  0.000006 -0.000023 -0.000046  0.000035

                                   1 2px     1 2px     1 2px     1 2px     1 2px     1 2px     1 4f1+    1 4f3+    1 4f1+    1 4f3+ 
                                   1 4f1+    1 4f3+    1 4f1+    1 4f3+    1 6h1+    1 6h3+    1 6h5+    1 6h1+    1 6h3+    1 6h5+ 


   1.2   +    -0.3118   -1.4045  1.000630 -0.001529  0.001396 -0.000996  0.000526 -0.000105 -0.000016  0.000021  0.000051 -0.000066
                                 0.000060 -0.000077 -0.000063  0.000082 -0.000000  0.000000 -0.000000 -0.000001  0.000001 -0.000001

 HOMO      1.2    -0.311761 =      -8.4834eV
 LUMO      1.3     0.023146 =       0.6298eV
 LUMO-HOMO         0.334907 =       9.1133eV


 **********************************************************************************************************************************
 DATASETS  * FILE   NREC   LENGTH (MB)   RECORD NAMES
              1      20       37.85       500      610      700      900      950      970     1000      129      960     1100   
                                          VAR    BASINP    GEOM    SYMINP    ZMAT    AOBASIS   BASIS     P2S    ABASIS      S 
                                         1400     1410     1420     1200     1210     1080     1600     1650     1300     1700   
                                         EKIN       V       ECP      H0       H01     AOSYM     SMH    MOLCAS    ERIS     OPER   

              2       4        2.83       700     1000      520     2100   
                                         GEOM     BASIS   MCVARS     RHF  

 PROGRAMS   *        TOTAL        HF       INT
 CPU TIMES  *         2.06      0.24      1.71
 REAL TIME  *         3.50 SEC
 DISK USED  *        88.22 MB      
 **********************************************************************************************************************************
 SETTING SCF(I)         =        -2.53930456  AU                              
 SETTING _CC_NORM_MAX   =         2.00000000                                  


 PROGRAM * CISD (Restricted open-shell CI(SD))     Authors: C. Hampel, H.-J. Werner, 1991, M. Deegan, P.J. Knowles, 1992


 Convergence thresholds:  THRVAR = 1.00D-08  THRDEN = 1.00D-06

 Number of closed-shell orbitals:   1 (   1   0   0   0   0   0   0   0 )
 Number of active  orbitals:        1 (   0   1   0   0   0   0   0   0 )
 Number of external orbitals:     124 (  24  19  20  11  20  11  11   8 )

 Number of N-1 electron functions:               3
 Number of N-2 electron functions:               3
 Number of singly external CSFs:                68
 Number of doubly external CSFs:              5227
 Total number of CSFs:                        5295

 Molecular orbitals read from record     2100.2  Type=RHF/CANONICAL (state 1.2)

 Integral transformation finished. Total CPU:   0.02 sec, npass=  1  Memory used:   0.08 MW

 Starting RMP2 calculation

 Wavefunction is spin-projected

 ITER.      SQ.NORM     CORR.ENERGY   TOTAL ENERGY   ENERGY CHANGE        DEN1      VAR(S)    VAR(P)  DIIS     TIME
   1      1.03026295    -0.05387801    -2.59318256    -0.05387801    -0.00045093  0.13D-04  0.28D-03  1  1     0.03
   2      1.03102643    -0.05438470    -2.59368926    -0.00050669    -0.00000067  0.16D-07  0.40D-06  2  2     0.03
   3      1.03104474    -0.05439244    -2.59369700    -0.00000774    -0.00000000  0.11D-09  0.88D-09  3  3     0.03
   4      1.03104497    -0.05439249    -2.59369705    -0.00000005    -0.00000000  0.62D-12  0.28D-11  4  4     0.03

 Norm of t1 vector:      0.03760273      S-energy:    -0.00215616      T1 diagnostic:  0.00028204
 Norm of t2 vector:      0.17213659      P-energy:    -0.05223633
                                         Alpha-Beta:  -0.04859176
                                         Alpha-Alpha: -0.00364457
                                         Beta-Beta:    0.00000000

 Spin contamination <S**2-Sz**2-Sz>     0.00000000
  Reference energy                     -2.539304558879
  RHF-RMP2 correlation energy          -0.054392489388
 !RHF-RMP2 energy                      -2.593697048268
 (NB above energy spin projected)

 Starting RCISD calculation

 ITER.      SQ.NORM     CORR.ENERGY   TOTAL ENERGY   ENERGY CHANGE        DEN1      VAR(S)    VAR(P)  DIIS     TIME
   1      1.04413731    -0.06130870    -2.60061326    -0.06130870    -0.00586935  0.42D-03  0.34D-02  1  1     0.06
   2      1.06573063    -0.06973148    -2.60903603    -0.00842277    -0.00052862  0.23D-04  0.31D-03  2  2     0.10
   3      1.07540333    -0.07287641    -2.61218097    -0.00314494    -0.00003877  0.23D-05  0.20D-04  3  3     0.13
   4      1.07719310    -0.07330995    -2.61261451    -0.00043354    -0.00000268  0.25D-06  0.14D-05  4  4     0.17
   5      1.07752856    -0.07333597    -2.61264053    -0.00002602    -0.00000019  0.45D-07  0.92D-07  5  5     0.19
   6      1.07753089    -0.07333743    -2.61264199    -0.00000146    -0.00000002  0.40D-08  0.86D-08  6  6     0.23
   7      1.07753132    -0.07333753    -2.61264209    -0.00000010    -0.00000000  0.34D-09  0.97D-09  6  1     0.26

 Norm of t1 vector:      0.05994306      S-energy:    -0.00285605      T1 diagnostic:  0.01276902
 Norm of t2 vector:      0.27191571      P-energy:    -0.07048190
                                         Alpha-Beta:  -0.06663209
                                         Alpha-Alpha: -0.00384981
                                         Beta-Beta:    0.00000000

 Doubles amplitudes (print threshold =  0.500E-01):

         I         J         SYM. A    SYM. B    A         B      T(IJ, AB) [Alpha-Beta]

         1         1         3         3         1         1     -0.06667241
         1         1         3         3         1         2      0.06117758
         1         1         3         3         2         1      0.06117758
         1         1         3         3         2         2     -0.05633430
         1         1         5         5         1         1     -0.06667241
         1         1         5         5         1         2      0.06117758
         1         1         5         5         2         1      0.06117758
         1         1         5         5         2         2     -0.05633430
         2         1         1         2         5         1     -0.05067481

 Spin contamination <S**2-Sz**2-Sz>     0.00000000
 

 ?Inconsistent energies:

 ecorr    -0.0733379444  -0.0733375301   -0.41D-06
 estrong  -0.0704818989  -0.0704818989    0.00D+00
 eclose    0.0000000000   0.0000000000    0.00D+00
 eweak     0.0000000000   0.0000000000    0.00D+00
 edist     0.0000000000   0.0000000000    0.00D+00

 RESULTS
 =======

  Reference energy                     -2.539304558879
  RCISD singles energy                 -0.002855631256
  RCISD pair energy                    -0.070481898866
  RCISD correlation energy             -0.073337530122
 
 !RHF-RCISD energy                     -2.612642089002

 Program statistics:

 Available memory in ccsd:               511999848
 Min. memory needed in ccsd:                 74529
 Max. memory used in ccsd:                   76517
 Max. memory used in cckext:                 98087 ( 7 integral passes)
 Max. memory used in cckint:                 82713 ( 1 integral passes)



 **********************************************************************************************************************************
 DATASETS  * FILE   NREC   LENGTH (MB)   RECORD NAMES
              1      20       37.85       500      610      700      900      950      970     1000      129      960     1100   
                                          VAR    BASINP    GEOM    SYMINP    ZMAT    AOBASIS   BASIS     P2S    ABASIS      S 
                                         1400     1410     1420     1200     1210     1080     1600     1650     1300     1700   
                                         EKIN       V       ECP      H0       H01     AOSYM     SMH    MOLCAS    ERIS     OPER   

              2       4        2.83       700     1000      520     2100   
                                         GEOM     BASIS   MCVARS     RHF  

 PROGRAMS   *        TOTAL     RCISD        HF       INT
 CPU TIMES  *         2.35      0.29      0.24      1.71
 REAL TIME  *         5.05 SEC
 DISK USED  *        88.22 MB      
 **********************************************************************************************************************************
 SETTING POSTHF(I)      =        -2.61264209  AU                              
                                                                                                                                                                                                                                                                

       SCF           POSTHF       EKIN          POT
    -2.53930456   -2.61264209   1.31357391   -1.84053272
                                                  

 RCISD/USERDEF energy=     -2.612642089002

        RCISD           HF-SCF  
     -2.61264209     -2.53930456
 **********************************************************************************************************************************
 Variable memory released
