<?xml version="1.0"?>
<molpro xmlns="http://www.molpro.net/schema/molpro-output"
  xmlns:xsd="http://www.w3.org/1999/XMLSchema"
  xmlns:cml="http://www.xml-cml.org/schema"
  xmlns:stm="http://www.xml-cml.org/schema"
  xmlns:xhtml="http://www.w3.org/1999/xhtml">
 <!--

 Primary working directories    : /global/cscratch1/sd/aannabe
 Secondary working directories  : /global/cscratch1/sd/aannabe
 Wavefunction directory         : /global/homes/a/aannabe/wfu/
 Main file repository           : /global/cscratch1/sd/aannabe/

 SHA1      : 2873118e99aab1bc19f5b6fc1784693c06d15c95
 NAME      : 2015.1.8
 ARCHNAME  : linux/x86_64
 FC        : /opt/cray/pe/craype/2.5.5/bin/ftn
 BLASLIB   : -Wl,-_start-group /opt/intel/compilers_and_libraries_2016.3.210/linux/mkl/lib/intel64/libmkl_intel_ilp64.a /opt/intel/compilers_and_libraries_2016.3.210/linux/mkl/lib/intel64/libmkl_intel_thread.a /opt/intel/compilers_and_libraries_2016.3.210/linux/mkl/lib/intel64/libmkl_core.a -Wl,-_end-group
 id        : lbl

 Nodes     nprocs
 nid00444     1

 Using customized tuning parameters: mindgm=8; mindgv=16; mindgc=4; mindgr=1; noblas=0; minvec=7
 default implementation of scratch files=df  

 --><job>
  <!--
 ***,B
 memory,512,m
 gthresh,twoint=1.e-12
 
 gprint,basis,orbitals
 gexpec,ekin,pot
 
 angstrom
 geometry={
 1                                                                               ! Number of atoms
 B 0.0 0.0 0.0
 }
 
 basis={
 Including file /global/homes/a/aannabe/docs/totals/pps/B.pp
 Including file /global/homes/a/aannabe/docs/totals/basis/aug-cc-pVnZ/B_6z.basis
 }
 
 {hf
 wf,3,2,1
 occ,1,1,0,0,0,0,0,0
 open,1.2
                                                                                 !closed,1,0,0,0,0,0,0,0
                                                                                 !sym,
 }
 scf(i)=energy
 
 _CC_NORM_MAX=2.0
 {rcisd
 maxit,100
 core
 }
 posthf(i)=energy
 
 table,scf,posthf,ekin,pot
 save,6.csv
 
 

 Variables initialized (889), CPU time= 0.00 sec
 Commands  initialized (702), CPU time= 0.01 sec, 572 directives.
 Default parameters read. Elapsed time= 0.11 sec

 Checking input...
 Passed
1


                                         ***  PROGRAM SYSTEM MOLPRO  ***
                                       Copyright, TTI GmbH Stuttgart, 2015
                                    Version 2015.1 linked Sep  7 2016 23:09:38


 **********************************************************************************************************************************
 LABEL *   B                                                                             
  64 bit serial version                                                                  DATE: 11-Jun-18          TIME: 12:16:11  
 **********************************************************************************************************************************

 SHA1:             2873118e99aab1bc19f5b6fc1784693c06d15c95
 **********************************************************************************************************************************
  -->
  <!--

 THRESHOLDS:

 ZERO    =  1.00D-12  ONEINT  =  1.00D-12  TWOINT  =  1.00D-12  PREFAC  =  1.00D-14  LOCALI  =  1.00D-09  EORDER  =  1.00D-04
 ENERGY  =  0.00D+00  ETEST   =  0.00D+00  EDENS   =  0.00D+00  THRDEDEF=  1.00D-06  GRADIENT=  1.00D-02  STEP    =  1.00D-03
 ORBITAL =  1.00D-05  CIVEC   =  1.00D-05  COEFF   =  1.00D-04  PRINTCI =  5.00D-02  PUNCHCI =  9.90D+01  OPTGRAD =  3.00D-04
 OPTENERG=  1.00D-06  OPTSTEP =  3.00D-04  THRGRAD =  1.00D-10  COMPRESS=  1.00D-11  VARMIN  =  1.00D-07  VARMAX  =  1.00D-03
 THRDOUB =  0.00D+00  THRDIV  =  1.00D-05  THRRED  =  1.00D-07  THRPSP  =  1.00D+00  THRDC   =  1.00D-10  THRCS   =  1.00D-10
 THRNRM  =  1.00D-08  THREQ   =  0.00D+00  THRDE   =  1.00D+00  THRREF  =  1.00D-05  SPARFAC =  1.00D+00  THRDLP  =  1.00D-07
 THRDIA  =  1.00D-10  THRDLS  =  1.00D-07  THRGPS  =  0.00D+00  THRKEX  =  0.00D+00  THRDIS  =  2.00D-01  THRVAR  =  1.00D-10
 THRLOC  =  1.00D-06  THRGAP  =  1.00D-06  THRLOCT = -1.00D+00  THRGAPT = -1.00D+00  THRORB  =  1.00D-06  THRMLTP =  0.00D+00
 THRCPQCI=  1.00D-10  KEXTA   =  0.00D+00  THRCOARS=  0.00D+00  SYMTOL  =  1.00D-06  GRADTOL =  1.00D-06  THROVL  =  1.00D-08
 THRORTH =  1.00D-08  GRID    =  1.00D-06  GRIDMAX =  1.00D-03  DTMAX   =  0.00D+00  THROCCDE=  1.00D-01  THROCCDE=  1.00D-01



 ZUNIT=ANG
 

Geometry recognized as XYZ


 Variable memory set to  512000000 words,  buffer space   230000 words

 SETTING BASIS          =    USERDEF
  --><jobstep command="HF-SCF" commandset="SCFPRO">
   <!--


 Recomputing integrals since basis changed


 Using spherical harmonics



 PROGRAM * SEWARD (Integral evaluation for generally contracted gaussian basis sets)     Author: Roland Lindh, 1990

 Geometry written to block  1 of record 700

 Orientation using atomic masses  
 Molecule type: Atom
 Symmetry elements: X,Y,Z
 Rotational constants:       0.0000000      0.0000000      0.0000000 GHz  (calculated with average atomic masses)

 Point group  D2h 


   --><cml:molecule>
    <cml:symmetry pointGroup="D2h"/>
    <cml:atomArray>
     <cml:atom id="a1" elementType="B" x3="0.0" y3="0.0" z3="0.0"/>
    </cml:atomArray>
    <cml:bondArray>
    </cml:bondArray>
   </cml:molecule><!--

 ATOMIC COORDINATES

 NR  ATOM    CHARGE       X              Y              Z

   1  B       3.00    0.000000000    0.000000000    0.000000000


          B   CORE POTENTIAL

          p POTENTIAL

 POWERS             1              3              2
 EXPONENTIALS   31.49298       22.56509       8.646690    
 COEFFICIENTS   3.000000       94.47895      -9.748000    

          s - p POTENTIAL

 POWERS             2
 EXPONENTIALS   4.062460    
 COEFFICIENTS   20.74800    


 BASIS DATA

   Nr Sym  Nuc  Type         Exponents   Contraction coefficients

    1.1 Ag    1  1s          11.760500    -0.003676
                              5.150520     0.025052
                              2.578276    -0.124923
                              1.290648    -0.066287
                              0.646080     0.100734
                              0.323418     0.337549
                              0.161898     0.430843
                              0.081044     0.248656
                              0.040569     0.031730
    2.1 Ag    1  1s           0.026766     1.000000
    3.1 Ag    1  1s           0.066915     1.000000
    4.1 Ag    1  1s           0.165446     1.000000
    5.1 Ag    1  1s           0.338547     1.000000
    6.1 Ag    1  1s           0.820708     1.000000
    7.1 Ag    1  1s           2.519425     1.000000
    8.1 Ag    1  3d0          0.046256     1.000000
    9.1 Ag    1  3d2+         0.046256     1.000000
   10.1 Ag    1  3d0          0.115640     1.000000
   11.1 Ag    1  3d2+         0.115640     1.000000
   12.1 Ag    1  3d0          0.293309     1.000000
   13.1 Ag    1  3d2+         0.293309     1.000000
   14.1 Ag    1  3d0          0.666330     1.000000
   15.1 Ag    1  3d2+         0.666330     1.000000
   16.1 Ag    1  3d0          1.152640     1.000000
   17.1 Ag    1  3d2+         1.152640     1.000000
   18.1 Ag    1  3d0          2.880570     1.000000
   19.1 Ag    1  3d2+         2.880570     1.000000
   20.1 Ag    1  5g0          0.149115     1.000000
   21.1 Ag    1  5g4+         0.149115     1.000000
   22.1 Ag    1  5g2+         0.149115     1.000000
   23.1 Ag    1  5g0          0.372788     1.000000
   24.1 Ag    1  5g4+         0.372788     1.000000
   25.1 Ag    1  5g2+         0.372788     1.000000
   26.1 Ag    1  5g0          0.859573     1.000000
   27.1 Ag    1  5g4+         0.859573     1.000000
   28.1 Ag    1  5g2+         0.859573     1.000000
   29.1 Ag    1  5g0          1.473809     1.000000
   30.1 Ag    1  5g4+         1.473809     1.000000
   31.1 Ag    1  5g2+         1.473809     1.000000
   32.1 Ag    1  7i6+         0.387968     1.000000
   33.1 Ag    1  7i4+         0.387968     1.000000
   34.1 Ag    1  7i2+         0.387968     1.000000
   35.1 Ag    1  7i0          0.387968     1.000000
   36.1 Ag    1  7i6+         0.969919     1.000000
   37.1 Ag    1  7i4+         0.969919     1.000000
   38.1 Ag    1  7i2+         0.969919     1.000000
   39.1 Ag    1  7i0          0.969919     1.000000
    1.2 B3u   1  2px          7.470701     0.004740
                              3.735743     0.037601
                              1.868068     0.051060
                              0.934132     0.145659
                              0.467115     0.223793
                              0.233582     0.319947
                              0.116803     0.285019
                              0.058408     0.144881
                              0.029207     0.017696
    2.2 B3u   1  2px          0.021594     1.000000
    3.2 B3u   1  2px          0.053986     1.000000
    4.2 B3u   1  2px          0.133676     1.000000
    5.2 B3u   1  2px          0.282933     1.000000
    6.2 B3u   1  2px          0.728159     1.000000
    7.2 B3u   1  2px          0.913979     1.000000
    8.2 B3u   1  4f1+         0.077013     1.000000
    9.2 B3u   1  4f3+         0.077013     1.000000
   10.2 B3u   1  4f1+         0.192532     1.000000
   11.2 B3u   1  4f3+         0.192532     1.000000
   12.2 B3u   1  4f1+         0.448415     1.000000
   13.2 B3u   1  4f3+         0.448415     1.000000
   14.2 B3u   1  4f1+         0.915789     1.000000
   15.2 B3u   1  4f3+         0.915789     1.000000
   16.2 B3u   1  4f1+         1.499448     1.000000
   17.2 B3u   1  4f3+         1.499448     1.000000
   18.2 B3u   1  6h1+         0.233289     1.000000
   19.2 B3u   1  6h3+         0.233289     1.000000
   20.2 B3u   1  6h5+         0.233289     1.000000
   21.2 B3u   1  6h1+         0.583223     1.000000
   22.2 B3u   1  6h3+         0.583223     1.000000
   23.2 B3u   1  6h5+         0.583223     1.000000
   24.2 B3u   1  6h1+         1.271399     1.000000
   25.2 B3u   1  6h3+         1.271399     1.000000
   26.2 B3u   1  6h5+         1.271399     1.000000
    1.3 B2u   1  2py          7.470701     0.004740
                              3.735743     0.037601
                              1.868068     0.051060
                              0.934132     0.145659
                              0.467115     0.223793
                              0.233582     0.319947
                              0.116803     0.285019
                              0.058408     0.144881
                              0.029207     0.017696
    2.3 B2u   1  2py          0.021594     1.000000
    3.3 B2u   1  2py          0.053986     1.000000
    4.3 B2u   1  2py          0.133676     1.000000
    5.3 B2u   1  2py          0.282933     1.000000
    6.3 B2u   1  2py          0.728159     1.000000
    7.3 B2u   1  2py          0.913979     1.000000
    8.3 B2u   1  4f1-         0.077013     1.000000
    9.3 B2u   1  4f3-         0.077013     1.000000
   10.3 B2u   1  4f1-         0.192532     1.000000
   11.3 B2u   1  4f3-         0.192532     1.000000
   12.3 B2u   1  4f1-         0.448415     1.000000
   13.3 B2u   1  4f3-         0.448415     1.000000
   14.3 B2u   1  4f1-         0.915789     1.000000
   15.3 B2u   1  4f3-         0.915789     1.000000
   16.3 B2u   1  4f1-         1.499448     1.000000
   17.3 B2u   1  4f3-         1.499448     1.000000
   18.3 B2u   1  6h1-         0.233289     1.000000
   19.3 B2u   1  6h3-         0.233289     1.000000
   20.3 B2u   1  6h5-         0.233289     1.000000
   21.3 B2u   1  6h1-         0.583223     1.000000
   22.3 B2u   1  6h3-         0.583223     1.000000
   23.3 B2u   1  6h5-         0.583223     1.000000
   24.3 B2u   1  6h1-         1.271399     1.000000
   25.3 B2u   1  6h3-         1.271399     1.000000
   26.3 B2u   1  6h5-         1.271399     1.000000
    1.4 B1g   1  3d2-         0.046256     1.000000
    2.4 B1g   1  3d2-         0.115640     1.000000
    3.4 B1g   1  3d2-         0.293309     1.000000
    4.4 B1g   1  3d2-         0.666330     1.000000
    5.4 B1g   1  3d2-         1.152640     1.000000
    6.4 B1g   1  3d2-         2.880570     1.000000
    7.4 B1g   1  5g2-         0.149115     1.000000
    8.4 B1g   1  5g4-         0.149115     1.000000
    9.4 B1g   1  5g2-         0.372788     1.000000
   10.4 B1g   1  5g4-         0.372788     1.000000
   11.4 B1g   1  5g2-         0.859573     1.000000
   12.4 B1g   1  5g4-         0.859573     1.000000
   13.4 B1g   1  5g2-         1.473809     1.000000
   14.4 B1g   1  5g4-         1.473809     1.000000
   15.4 B1g   1  7i2-         0.387968     1.000000
   16.4 B1g   1  7i6-         0.387968     1.000000
   17.4 B1g   1  7i4-         0.387968     1.000000
   18.4 B1g   1  7i2-         0.969919     1.000000
   19.4 B1g   1  7i6-         0.969919     1.000000
   20.4 B1g   1  7i4-         0.969919     1.000000
    1.5 B1u   1  2pz          7.470701     0.004740
                              3.735743     0.037601
                              1.868068     0.051060
                              0.934132     0.145659
                              0.467115     0.223793
                              0.233582     0.319947
                              0.116803     0.285019
                              0.058408     0.144881
                              0.029207     0.017696
    2.5 B1u   1  2pz          0.021594     1.000000
    3.5 B1u   1  2pz          0.053986     1.000000
    4.5 B1u   1  2pz          0.133676     1.000000
    5.5 B1u   1  2pz          0.282933     1.000000
    6.5 B1u   1  2pz          0.728159     1.000000
    7.5 B1u   1  2pz          0.913979     1.000000
    8.5 B1u   1  4f0          0.077013     1.000000
    9.5 B1u   1  4f2+         0.077013     1.000000
   10.5 B1u   1  4f0          0.192532     1.000000
   11.5 B1u   1  4f2+         0.192532     1.000000
   12.5 B1u   1  4f0          0.448415     1.000000
   13.5 B1u   1  4f2+         0.448415     1.000000
   14.5 B1u   1  4f0          0.915789     1.000000
   15.5 B1u   1  4f2+         0.915789     1.000000
   16.5 B1u   1  4f0          1.499448     1.000000
   17.5 B1u   1  4f2+         1.499448     1.000000
   18.5 B1u   1  6h2+         0.233289     1.000000
   19.5 B1u   1  6h4+         0.233289     1.000000
   20.5 B1u   1  6h0          0.233289     1.000000
   21.5 B1u   1  6h2+         0.583223     1.000000
   22.5 B1u   1  6h4+         0.583223     1.000000
   23.5 B1u   1  6h0          0.583223     1.000000
   24.5 B1u   1  6h2+         1.271399     1.000000
   25.5 B1u   1  6h4+         1.271399     1.000000
   26.5 B1u   1  6h0          1.271399     1.000000
    1.6 B2g   1  3d1+         0.046256     1.000000
    2.6 B2g   1  3d1+         0.115640     1.000000
    3.6 B2g   1  3d1+         0.293309     1.000000
    4.6 B2g   1  3d1+         0.666330     1.000000
    5.6 B2g   1  3d1+         1.152640     1.000000
    6.6 B2g   1  3d1+         2.880570     1.000000
    7.6 B2g   1  5g1+         0.149115     1.000000
    8.6 B2g   1  5g3+         0.149115     1.000000
    9.6 B2g   1  5g1+         0.372788     1.000000
   10.6 B2g   1  5g3+         0.372788     1.000000
   11.6 B2g   1  5g1+         0.859573     1.000000
   12.6 B2g   1  5g3+         0.859573     1.000000
   13.6 B2g   1  5g1+         1.473809     1.000000
   14.6 B2g   1  5g3+         1.473809     1.000000
   15.6 B2g   1  7i5+         0.387968     1.000000
   16.6 B2g   1  7i3+         0.387968     1.000000
   17.6 B2g   1  7i1+         0.387968     1.000000
   18.6 B2g   1  7i5+         0.969919     1.000000
   19.6 B2g   1  7i3+         0.969919     1.000000
   20.6 B2g   1  7i1+         0.969919     1.000000
    1.7 B3g   1  3d1-         0.046256     1.000000
    2.7 B3g   1  3d1-         0.115640     1.000000
    3.7 B3g   1  3d1-         0.293309     1.000000
    4.7 B3g   1  3d1-         0.666330     1.000000
    5.7 B3g   1  3d1-         1.152640     1.000000
    6.7 B3g   1  3d1-         2.880570     1.000000
    7.7 B3g   1  5g1-         0.149115     1.000000
    8.7 B3g   1  5g3-         0.149115     1.000000
    9.7 B3g   1  5g1-         0.372788     1.000000
   10.7 B3g   1  5g3-         0.372788     1.000000
   11.7 B3g   1  5g1-         0.859573     1.000000
   12.7 B3g   1  5g3-         0.859573     1.000000
   13.7 B3g   1  5g1-         1.473809     1.000000
   14.7 B3g   1  5g3-         1.473809     1.000000
   15.7 B3g   1  7i5-         0.387968     1.000000
   16.7 B3g   1  7i3-         0.387968     1.000000
   17.7 B3g   1  7i1-         0.387968     1.000000
   18.7 B3g   1  7i5-         0.969919     1.000000
   19.7 B3g   1  7i3-         0.969919     1.000000
   20.7 B3g   1  7i1-         0.969919     1.000000
    1.8 Au    1  4f2-         0.077013     1.000000
    2.8 Au    1  4f2-         0.192532     1.000000
    3.8 Au    1  4f2-         0.448415     1.000000
    4.8 Au    1  4f2-         0.915789     1.000000
    5.8 Au    1  4f2-         1.499448     1.000000
    6.8 Au    1  6h4-         0.233289     1.000000
    7.8 Au    1  6h2-         0.233289     1.000000
    8.8 Au    1  6h4-         0.583223     1.000000
    9.8 Au    1  6h2-         0.583223     1.000000
   10.8 Au    1  6h4-         1.271399     1.000000
   11.8 Au    1  6h2-         1.271399     1.000000

 NUCLEAR CHARGE:                    3
 NUMBER OF PRIMITIVE AOS:         325
 NUMBER OF SYMMETRY AOS:          220
 NUMBER OF CONTRACTIONS:          188   (  39Ag  +  26B3u +  26B2u +  20B1g +  26B1u +  20B2g +  20B3g +  11Au  )
 NUMBER OF CORE ORBITALS:           0   (   0Ag  +   0B3u +   0B2u +   0B1g +   0B1u +   0B2g +   0B3g +   0Au  )
 NUMBER OF VALENCE ORBITALS:        4   (   1Ag  +   1B3u +   1B2u +   0B1g +   1B1u +   0B2g +   0B3g +   0Au  )


 NUCLEAR REPULSION ENERGY    0.00000000

 EXTRA SYMMETRY OF AOS IN SYMMETRY 1:   1 1 1 1 1 1 1 2 3 2   3 2 3 2 3 2 3 2 3 4   5 6 4 5 6 4 5 6 4 5   6 7 8 910 7 8 910
 EXTRA SYMMETRY OF AOS IN SYMMETRY 2:   1 1 1 1 1 1 1 2 3 2   3 2 3 2 3 2 3 4 5 6   4 5 6 4 5 6
 EXTRA SYMMETRY OF AOS IN SYMMETRY 3:   1 1 1 1 1 1 1 2 3 2   3 2 3 2 3 2 3 4 5 6   4 5 6 4 5 6
 EXTRA SYMMETRY OF AOS IN SYMMETRY 4:   1 1 1 1 1 1 2 3 2 3   2 3 2 3 4 5 6 4 5 6
 EXTRA SYMMETRY OF AOS IN SYMMETRY 5:   1 1 1 1 1 1 1 2 3 2   3 2 3 2 3 2 3 4 5 6   4 5 6 4 5 6
 EXTRA SYMMETRY OF AOS IN SYMMETRY 6:   1 1 1 1 1 1 2 3 2 3   2 3 2 3 4 5 6 4 5 6
 EXTRA SYMMETRY OF AOS IN SYMMETRY 7:   1 1 1 1 1 1 2 3 2 3   2 3 2 3 4 5 6 4 5 6
 EXTRA SYMMETRY OF AOS IN SYMMETRY 8:   1 1 1 1 1 2 3 2 3 2   3

 Eigenvalues of metric

         1 0.546E-04 0.377E-02 0.160E-01 0.160E-01 0.315E-01 0.778E-01 0.778E-01 0.778E-01
         2 0.813E-03 0.396E-02 0.249E-01 0.275E-01 0.275E-01 0.145E+00 0.165E+00 0.165E+00
         3 0.813E-03 0.396E-02 0.249E-01 0.275E-01 0.275E-01 0.145E+00 0.165E+00 0.165E+00
         4 0.160E-01 0.778E-01 0.778E-01 0.102E+00 0.341E+00 0.394E+00 0.394E+00 0.533E+00
         5 0.813E-03 0.396E-02 0.249E-01 0.275E-01 0.275E-01 0.145E+00 0.165E+00 0.165E+00
         6 0.160E-01 0.778E-01 0.778E-01 0.102E+00 0.341E+00 0.394E+00 0.394E+00 0.533E+00
         7 0.160E-01 0.778E-01 0.778E-01 0.102E+00 0.341E+00 0.394E+00 0.394E+00 0.533E+00
         8 0.275E-01 0.165E+00 0.252E+00 0.252E+00 0.574E+00 0.880E+00 0.880E+00 0.149E+01


 Contracted 2-electron integrals neglected if value below      1.0D-12
 AO integral compression algorithm  1   Integral accuracy      1.0D-12

     116.654 MB (compressed) written to integral file ( 46.0%)


 NUMBER OF SORTED TWO-ELECTRON INTEGRALS:   20212815.     BUFFER LENGTH:  32768
 NUMBER OF SEGMENTS:   2  SEGMENT LENGTH:   15998787      RECORD LENGTH: 524288

 Memory used in sort:      16.56 MW

 SORT1 READ    31710950. AND WROTE    13213985. INTEGRALS IN     39 RECORDS. CPU TIME:     1.04 SEC, REAL TIME:     1.56 SEC
 SORT2 READ    13213985. AND WROTE    20212815. INTEGRALS IN    445 RECORDS. CPU TIME:     0.60 SEC, REAL TIME:     1.25 SEC

 FILE SIZES:   FILE 1:   136.6 MBYTE,  FILE 4:   163.6 MBYTE,   TOTAL:    300.2 MBYTE

 OPERATOR DM      FOR CENTER  0  COORDINATES:    0.000000    0.000000    0.000000
 OPERATOR EKIN    FOR CENTER  0  COORDINATES:    0.000000    0.000000    0.000000
 OPERATOR POT     FOR CENTER  0  COORDINATES:    0.000000    0.000000    0.000000


 **********************************************************************************************************************************
 DATASETS  * FILE   NREC   LENGTH (MB)   RECORD NAMES
              1      20       95.06       500      610      700      900      950      970     1000      129      960     1100   
                                          VAR    BASINP    GEOM    SYMINP    ZMAT    AOBASIS   BASIS     P2S    ABASIS      S 
                                         1400     1410     1420     1200     1210     1080     1600     1650     1300     1700   
                                         EKIN       V       ECP      H0       H01     AOSYM     SMH    MOLCAS    ERIS     OPER   

 PROGRAMS   *        TOTAL       INT
 CPU TIMES  *         7.23      7.13
 REAL TIME  *        10.65 SEC
 DISK USED  *       300.50 MB      
 **********************************************************************************************************************************


 PROGRAM * RHF-SCF (OPEN SHELL)       Authors: W. Meyer, H.-J. Werner


 NUMBER OF ELECTRONS:       2+    1-    SPACE SYMMETRY=2    SPIN SYMMETRY: Doublet 
 CONVERGENCE THRESHOLDS:    1.00E-05 (Density)    1.00E-07 (Energy)
 MAX. NUMBER OF ITERATIONS:       60
 INTERPOLATION TYPE:            DIIS
 INTERPOLATION STEPS:              2 (START)      1 (STEP)
 LEVEL SHIFTS:                 -0.60 (CLOSED) -0.30 (OPEN) 


 Singly occupied orbitals:      1.2

   Atom=B  basis=ECP2MWB_GUESS     lmin=0  lmax=1

 Orbital guess generated from atomic densities. Full valence occupancy:    1   1   1   0   1   0   0   0


 Molecular orbital dump at record        2100.2

 ITERATION    DDIFF          GRAD             ENERGY        2-EL.EN.            DIPOLE MOMENTS         DIIS   ORB.
    1      0.000D+00      0.000D+00        -2.51167962      2.201321    0.00000    0.00000    0.00000    0    start
    2      0.000D+00      0.798D-02        -2.52933664      2.336084    0.00000    0.00000    0.00000    1    diag,B
    3      0.478D-02      0.357D-02        -2.53686079      2.432364    0.00000    0.00000    0.00000    2    diag,B
    4      0.329D-02      0.165D-02        -2.53912107      2.474435    0.00000    0.00000    0.00000    3    diag,B
    5      0.249D-02      0.550D-03        -2.53929331      2.478856    0.00000    0.00000    0.00000    4    diag,B
    6      0.837D-03      0.161D-03        -2.53930521      2.480317    0.00000    0.00000    0.00000    5    diag,B
    7      0.397D-03      0.492D-04        -2.53930591      2.479999    0.00000    0.00000    0.00000    6    fixocc
    8      0.191D-03      0.138D-04        -2.53930596      2.480005    0.00000    0.00000    0.00000    7    diag,B
    9      0.271D-04      0.445D-05        -2.53930597      2.480008    0.00000    0.00000    0.00000    8    diag,B
   10      0.243D-04      0.540D-06        -2.53930597      2.480003    0.00000    0.00000    0.00000    9    orth
   11      0.551D-06      0.191D-06        -2.53930597      2.480002    0.00000    0.00000    0.00000    0    orth

 Final alpha occupancy:   1   1   0   0   0   0   0   0
 Final beta  occupancy:   1   0   0   0   0   0   0   0

 !RHF STATE 1.2 Energy                 -2.539305969788
   --><property name="Energy" method="RHF" principal="true" stateSymmetry="2" stateNumber="1"
     value="-2.53930596978794"/><!--
 Nuclear energy                         0.00000000
 One-electron energy                   -3.77930716
 Two-electron energy                    1.24000119
 Virial quotient                       -1.93309198
 !RHF STATE 1.2 Dipole moment           0.00000000     0.00000000     0.00000000
 Dipole moment /Debye                   0.00000000     0.00000000     0.00000000
   --><property name="Dipole moment" method="RHF" principal="true" stateSymmetry="2"
     stateNumber="1" value="0.0 0.0 0.0"/><!--
 

 !RHF expec          <1.2|EKIN|1.2>     1.313598111215
   --><property name="EKIN" method="RHF" principal="true" stateSymmetry="2" stateNumber="1"
     value="1.31359811121456" origin="0.0 0.0 0.0"/><!--
 
 !RHF expec           <1.2|POT|1.2>    -1.840538928736
   --><property name="POT" method="RHF" principal="true" stateSymmetry="2" stateNumber="1"
     value="-1.8405389287359" origin="0.0 0.0 0.0"/><!--

 ELECTRON ORBITALS
 =================


   Orb  Occ    Energy  Couls-En    Coefficients

                                   1 1s      1 1s      1 1s      1 1s      1 1s      1 1s      1 1s      1 3d0     1 3d2+    1 3d0  
                                   1 3d2+    1 3d0     1 3d2+    1 3d0     1 3d2+    1 3d0     1 3d2+    1 3d0     1 3d2+    1 5g0  
                                   1 5g4+    1 5g2+    1 5g0     1 5g4+    1 5g2+    1 5g0     1 5g4+    1 5g2+    1 5g0     1 5g4+ 
                                   1 5g2+    1 7i6+    1 7i4+    1 7i2+    1 7i0     1 7i6+    1 7i4+    1 7i2+    1 7i0  

   1.1   2    -0.4938   -1.8371  1.000261  0.000123 -0.000398  0.000022 -0.000040 -0.000015  0.000027 -0.000682  0.001182 -0.002688
                                 0.004656 -0.000662  0.001147  0.000148 -0.000257 -0.000486  0.000841 -0.000217  0.000376 -0.000019
                                -0.000037  0.000028 -0.000011 -0.000023  0.000017 -0.000000 -0.000001  0.000001 -0.000002 -0.000003
                                 0.000002  0.000000 -0.000000  0.000000 -0.000000  0.000000 -0.000000  0.000000 -0.000000

                                   1 2px     1 2px     1 2px     1 2px     1 2px     1 2px     1 2px     1 4f1+    1 4f3+    1 4f1+ 
                                   1 4f3+    1 4f1+    1 4f3+    1 4f1+    1 4f3+    1 4f1+    1 4f3+    1 6h1+    1 6h3+    1 6h5+ 
                                   1 6h1+    1 6h3+    1 6h5+    1 6h1+    1 6h3+    1 6h5+ 

   1.2   +    -0.3118   -1.4045  0.998504 -0.000118  0.001045 -0.000744  0.002042 -0.002857  0.002539 -0.000057  0.000073  0.000010
                                -0.000013  0.000059 -0.000076  0.000008 -0.000011  0.000003 -0.000004 -0.000001  0.000001 -0.000001
                                -0.000000  0.000000 -0.000000 -0.000000  0.000000 -0.000000

 HOMO      1.2    -0.311764 =      -8.4835eV
 LUMO      1.3     0.022419 =       0.6101eV
 LUMO-HOMO         0.334183 =       9.0936eV


 **********************************************************************************************************************************
 DATASETS  * FILE   NREC   LENGTH (MB)   RECORD NAMES
              1      20       95.06       500      610      700      900      950      970     1000      129      960     1100   
                                          VAR    BASINP    GEOM    SYMINP    ZMAT    AOBASIS   BASIS     P2S    ABASIS      S 
                                         1400     1410     1420     1200     1210     1080     1600     1650     1300     1700   
                                         EKIN       V       ECP      H0       H01     AOSYM     SMH    MOLCAS    ERIS     OPER   

              2       4        2.92       700     1000      520     2100   
                                         GEOM     BASIS   MCVARS     RHF  

 PROGRAMS   *        TOTAL        HF       INT
 CPU TIMES  *         8.03      0.79      7.13
 REAL TIME  *        11.71 SEC
 DISK USED  *       300.50 MB      
 **********************************************************************************************************************************
   -->
   <time start="12:16:12" end="12:16:23" cpu="8.03" system="1.37" real="11.71"/>
   <storage units="megabyte" memory="4097.84" sf="0.0" df="300.5" eaf="0.0"/>
  </jobstep><!--
 SETTING SCF(I)         =        -2.53930597  AU                              
 SETTING _CC_NORM_MAX   =         2.00000000                                  
  --><jobstep command="RCISD" commandset="CCSD">
   <!--


 PROGRAM * CISD (Restricted open-shell CI(SD))     Authors: C. Hampel, H.-J. Werner, 1991, M. Deegan, P.J. Knowles, 1992


 Convergence thresholds:  THRVAR = 1.00D-08  THRDEN = 1.00D-06

 Number of closed-shell orbitals:   1 (   1   0   0   0   0   0   0   0 )
 Number of active  orbitals:        1 (   0   1   0   0   0   0   0   0 )
 Number of external orbitals:     186 (  38  25  26  20  26  20  20  11 )

 Number of N-1 electron functions:               3
 Number of N-2 electron functions:               3
 Number of singly external CSFs:               102
 Number of doubly external CSFs:             11537
 Total number of CSFs:                       11639

 Molecular orbitals read from record     2100.2  Type=RHF/CANONICAL (state 1.2)

 Integral transformation finished. Total CPU:   0.09 sec, npass=  1  Memory used:   0.10 MW

 Starting RMP2 calculation

 Wavefunction is spin-projected

 ITER.      SQ.NORM     CORR.ENERGY   TOTAL ENERGY   ENERGY CHANGE        DEN1      VAR(S)    VAR(P)  DIIS     TIME
   1      1.03032791    -0.05448544    -2.59379141    -0.05448544    -0.00044982  0.13D-04  0.28D-03  1  1     0.10
   2      1.03108897    -0.05499071    -2.59429668    -0.00050527    -0.00000067  0.17D-07  0.40D-06  2  2     0.10
   3      1.03110731    -0.05499848    -2.59430445    -0.00000777    -0.00000000  0.11D-09  0.88D-09  3  3     0.10
   4      1.03110755    -0.05499853    -2.59430450    -0.00000005    -0.00000000  0.66D-12  0.29D-11  4  4     0.10

 Norm of t1 vector:      0.03762845      S-energy:    -0.00215979      T1 diagnostic:  0.00028196
 Norm of t2 vector:      0.17231265      P-energy:    -0.05283874
                                         Alpha-Beta:  -0.04916298
                                         Alpha-Alpha: -0.00367575
                                         Beta-Beta:    0.00000000

 Spin contamination <S**2-Sz**2-Sz>     0.00000000
  Reference energy                     -2.539305969788
   --><property name="energy" method="Reference" stateSymmetry="1" stateNumber="1"
     value="-2.53930596978794"/><!--
  RHF-RMP2 correlation energy          -0.054998534032
   --><property name="energy" method="RHF-RMP2 correlation" stateSymmetry="1" stateNumber="1"
     value="-0.549985340321223E-01"/><!--
 !RHF-RMP2 energy                      -2.594304503820
   --><property name="energy" method="RHF-RMP2" principal="true" stateSymmetry="2"
     stateNumber="1" value="-2.59430450382006"/><!--
 (NB above energy spin projected)

 Starting RCISD calculation

 ITER.      SQ.NORM     CORR.ENERGY   TOTAL ENERGY   ENERGY CHANGE        DEN1      VAR(S)    VAR(P)  DIIS     TIME
   1      1.04399794    -0.06150306    -2.60080903    -0.06150306    -0.00590907  0.43D-03  0.33D-02  1  1     0.24
   2      1.06365791    -0.06995933    -2.60926530    -0.00845628    -0.00066410  0.31D-04  0.40D-03  2  2     0.38
   3      1.07450784    -0.07297000    -2.61227597    -0.00301067    -0.00006272  0.35D-05  0.33D-04  3  3     0.53
   4      1.07689226    -0.07351321    -2.61281918    -0.00054321    -0.00000406  0.31D-06  0.22D-05  4  4     0.68
   5      1.07734630    -0.07355546    -2.61286143    -0.00004225    -0.00000025  0.59D-07  0.12D-06  5  5     0.81
   6      1.07736559    -0.07355776    -2.61286373    -0.00000230    -0.00000002  0.59D-08  0.12D-07  6  6     0.96
   7      1.07736341    -0.07355789    -2.61286386    -0.00000013    -0.00000000  0.47D-09  0.14D-08  6  1     1.09

 Norm of t1 vector:      0.05997186      S-energy:    -0.00285546      T1 diagnostic:  0.01283227
 Norm of t2 vector:      0.27160042      P-energy:    -0.07070272
                                         Alpha-Beta:  -0.06682824
                                         Alpha-Alpha: -0.00387448
                                         Beta-Beta:    0.00000000

 Doubles amplitudes (print threshold =  0.500E-01):

         I         J         SYM. A    SYM. B    A         B      T(IJ, AB) [Alpha-Beta]

         1         1         3         3         1         1     -0.06306991
         1         1         3         3         1         2      0.05974303
         1         1         3         3         2         1      0.05974303
         1         1         3         3         2         2     -0.05676185
         1         1         5         5         1         1     -0.06306991
         1         1         5         5         1         2      0.05974303
         1         1         5         5         2         1      0.05974303
         1         1         5         5         2         2     -0.05676185

 Spin contamination <S**2-Sz**2-Sz>     0.00000000
 

 ?Inconsistent energies:

 ecorr    -0.0735581736  -0.0735578901   -0.28D-06
 estrong  -0.0707027158  -0.0707027158    0.00D+00
 eclose    0.0000000000   0.0000000000    0.00D+00
 eweak     0.0000000000   0.0000000000    0.00D+00
 edist     0.0000000000   0.0000000000    0.00D+00

 RESULTS
 =======

  Reference energy                     -2.539305969788
   --><property name="energy" method="Reference" stateSymmetry="1" stateNumber="1"
     value="-2.53930596978794"/><!--
  RCISD singles energy                 -0.002855174306
   --><property name="energy" method="RCISD singles" stateSymmetry="1" stateNumber="1"
     value="-0.285517430645538E-02"/><!--
  RCISD pair energy                    -0.070702715769
   --><property name="energy" method="RCISD pair" stateSymmetry="1" stateNumber="1"
     value="-0.707027157690753E-01"/><!--
  RCISD correlation energy             -0.073557890076
   --><property name="energy" method="RCISD correlation" stateSymmetry="1" stateNumber="1"
     value="-0.735578900755307E-01"/><!--
 
 !RHF-RCISD energy                     -2.612863859863
   --><property name="energy" method="RHF-RCISD" principal="true" stateSymmetry="1"
     stateNumber="1" value="-2.61286385986347"/><!--

 Program statistics:

 Available memory in ccsd:               511999848
 Min. memory needed in ccsd:                161305
 Max. memory used in ccsd:                  165689
 Max. memory used in cckext:                182827 ( 7 integral passes)
 Max. memory used in cckint:                103562 ( 1 integral passes)



 **********************************************************************************************************************************
 DATASETS  * FILE   NREC   LENGTH (MB)   RECORD NAMES
              1      20       95.06       500      610      700      900      950      970     1000      129      960     1100   
                                          VAR    BASINP    GEOM    SYMINP    ZMAT    AOBASIS   BASIS     P2S    ABASIS      S 
                                         1400     1410     1420     1200     1210     1080     1600     1650     1300     1700   
                                         EKIN       V       ECP      H0       H01     AOSYM     SMH    MOLCAS    ERIS     OPER   

              2       4        2.92       700     1000      520     2100   
                                         GEOM     BASIS   MCVARS     RHF  

 PROGRAMS   *        TOTAL     RCISD        HF       INT
 CPU TIMES  *         9.16      1.14      0.79      7.13
 REAL TIME  *        13.29 SEC
 DISK USED  *       300.50 MB      
 **********************************************************************************************************************************
   -->
   <time start="12:16:23" end="12:16:24" cpu="1.13" system="0.1" real="1.58"/>
   <storage units="megabyte" memory="4097.84" sf="0.0" df="300.5" eaf="0.0"/>
  </jobstep><!--
 SETTING POSTHF(I)      =        -2.61286386  AU                              
                                                                                                                                                                                                                                                                

       SCF           POSTHF       EKIN          POT
    -2.53930597   -2.61286386   1.31359811   -1.84053893
                                                  
-->
<table xmlns="http://www.w3.org/1999/xhtml" id="table1">
<thead><tr><th>SCF</th><th>POSTHF</th><th>EKIN</th><th>POT</th></tr></thead><tbody>
<tr><td>   -2.53930597</td><td>   -2.61286386</td><td>   1.31359811</td><td>   -1.84053893</td></tr>
</tbody></table>
<!--

 RCISD/USERDEF energy=     -2.612863859863

        RCISD           HF-SCF  
     -2.61286386     -2.53930597
 **********************************************************************************************************************************
 Variable memory released
  --><stm:metadataList>
   <stm:metadata name="dc:date" content="2018-06-11T12:16:25-07:00"/>
   <stm:metadata name="dc:creator" content="aannabe"/>
   <stm:metadata name="dc:title" content="B"/>
   <stm:metadata name="cmlm:insilico" content="Molpro"/>
  </stm:metadataList><!--
  --><platform>
   <version major="2015" minor="1" SHA="2873118e99aab1bc19f5b6fc1784693c06d15c95"
     integer_bits="64" parallelism="serial">
    2015.1
    <date year="2018" month="6" day="11" hour="12" minute="16" second="11">
     2018-06-11T12:16:11
    </date>
   </version>
   <licence id="lbl"/>
   <parallel processes="1" nodes="1" all_processes="1" openmp="1"/>
   <machine hostname="" architecture="">
     64 bit serial version
    <sysinfo name="cpu MHz" content="2301.000"/>
    <sysinfo name="MemTotal" content="131899616 kB"/>
    <sysinfo name="vendor_id" content="GenuineIntel"/>
    <sysinfo name="cpu family" content="6"/>
    <sysinfo name="model name" content="Intel(R) Xeon(R) CPU E5-2698 v3 @ 2.30GHz"/>
    <sysinfo name="flags"
      content="fpu vme de pse tsc msr pae mce cx8 apic sep mtrr pge mca cmov pat pse36 clflush dts acpi mmx fxsr sse sse2 ss ht tm pbe syscall nx pdpe1gb rdtscp lm constant_tsc arch_perfmon pebs bts rep_good nopl xtopology nonstop_tsc aperfmperf eagerfpu pni pclmulqdq dtes64 monitor ds_cpl vmx smx est tm2 ssse3 sdbg fma cx16 xtpr pdcm pcid dca sse4_1 sse4_2 x2apic movbe popcnt tsc_deadline_timer aes xsave avx f16c rdrand lahf_lm abm ida arat epb invpcid_single pln pts dtherm kaiser tpr_shadow vnmi flexpriority ept vpid fsgsbase tsc_adjust bmi1 avx2 smep bmi2 erms invpcid cqm xsaveopt cqm_llc cqm_occup_llc"/>
    <sysinfo name="MemTotal" content="131899616 kB"/>
    <sysinfo name="cache size" content="40960 KB"/>
    <sysinfo name="ncpu" content="64"/>
   </machine>
  </platform><!--
  -->
  <input>
   <p> ***,B </p>
   <p> memory,512,m </p>
   <p> gthresh,twoint=1.e-12 </p>
   <p> gprint,basis,orbitals </p>
   <p> gexpec,ekin,pot </p>
   <p> angstrom </p>
   <p> geometry={ </p>
   <p> 1                                                                               ! Number of atoms </p>
   <p> B 0.0 0.0 0.0 </p>
   <p> } </p>
   <p> basis={ </p>
   <include file="/global/homes/a/aannabe/docs/totals/pps/B.pp"/>
   <include file="/global/homes/a/aannabe/docs/totals/basis/aug-cc-pVnZ/B_6z.basis"/>
   <p> } </p>
   <p> {hf </p>
   <p> wf,3,2,1 </p>
   <p> occ,1,1,0,0,0,0,0,0 </p>
   <p> open,1.2 </p>
   <p>                                                                                 !closed,1,0,0,0,0,0,0,0 </p>
   <p>                                                                                 !sym, </p>
   <p> } </p>
   <p> scf(i)=energy </p>
   <p> _CC_NORM_MAX=2.0 </p>
   <p> {rcisd </p>
   <p> maxit,100 </p>
   <p> core </p>
   <p> } </p>
   <p> posthf(i)=energy </p>
   <p> table,scf,posthf,ekin,pot </p>
   <p> save,6.csv </p>
  </input>
  <!--
 --></job><!--
--></molpro>
