
 Primary working directories    : /global/cscratch1/sd/aannabe
 Secondary working directories  : /global/cscratch1/sd/aannabe
 Wavefunction directory         : /global/homes/a/aannabe/wfu/
 Main file repository           : /global/cscratch1/sd/aannabe/

 SHA1      : 19cd028119e0e09f93f0674bd8af7968d9b3eff6
 NAME      : 2015.1.36
 ARCHNAME  : linux/x86_64
 FC        : /opt/cray/pe/craype/2.5.14/bin/ftn
 BLASLIB   : -L/opt/intel/compilers_and_libraries_2018.1.163/linux/mkl/lib/intel64 -Wl,-_start-group -lmkl_intel_ilp64 -lmkl_intel_thread -lmkl_core -Wl,-_end-group -liomp5
 id        : lbl

 Nodes     nprocs
 nid00447     1

 Using customized tuning parameters: mindgm=7; mindgv=16; mindgc=1; mindgr=1; noblas=0; minvec=7
 default implementation of scratch files=df  

 ***,P
 memory,512,m
 gthresh,twoint=1.e-12
 
 gprint,basis,orbitals
 gexpec,ekin,pot
 
 angstrom
 geometry={
 1                                                                               ! Number of atoms
 P 0.0 0.0 0.0
 }
 
 basis={
 Including file /global/homes/a/aannabe/repos/pseudopotentiallibrary/recipes/P/ccECP_He_core/P.ccECP.molpro
 Including file /global/homes/a/aannabe/repos/pseudopotentiallibrary/recipes/P/ccECP_He_core/cc-pCVQZ.molpro
 }
 
 {hf
  wf,13,8,3
  occ,2,2,2,0,2,0,0,0
  closed,2,1,1,0,1,0,0,0
                                                                                 !open,2.3,2.5,2.2
 }
 scf(i)=energy
 
 _CC_NORM_MAX=2.0
 {ci
 maxit,100
 core
 }
 posthf(i)=energy
 
 table,scf,posthf,ekin,pot
 save,4.csv,new
 
 

 Variables initialized (889), CPU time= 0.01 sec
 Commands  initialized (702), CPU time= 0.00 sec, 572 directives.
 Default parameters read. Elapsed time= 0.21 sec

 Checking input...
 Passed
1


                                         ***  PROGRAM SYSTEM MOLPRO  ***
                                       Copyright, TTI GmbH Stuttgart, 2015
                                    Version 2015.1 linked Dec 29 2018 15:55:43


 **********************************************************************************************************************************
 LABEL *   P                                                                             
  64 bit serial version                                                                  DATE: 03-Jan-19          TIME: 19:58:02  
 **********************************************************************************************************************************

 SHA1:             19cd028119e0e09f93f0674bd8af7968d9b3eff6
 **********************************************************************************************************************************

 THRESHOLDS:

 ZERO    =  1.00D-12  ONEINT  =  1.00D-12  TWOINT  =  1.00D-12  PREFAC  =  1.00D-14  LOCALI  =  1.00D-09  EORDER  =  1.00D-04
 ENERGY  =  0.00D+00  ETEST   =  0.00D+00  EDENS   =  0.00D+00  THRDEDEF=  1.00D-06  GRADIENT=  1.00D-02  STEP    =  1.00D-03
 ORBITAL =  1.00D-05  CIVEC   =  1.00D-05  COEFF   =  1.00D-04  PRINTCI =  5.00D-02  PUNCHCI =  9.90D+01  OPTGRAD =  3.00D-04
 OPTENERG=  1.00D-06  OPTSTEP =  3.00D-04  THRGRAD =  1.00D-10  COMPRESS=  1.00D-11  VARMIN  =  1.00D-07  VARMAX  =  1.00D-03
 THRDOUB =  0.00D+00  THRDIV  =  1.00D-05  THRRED  =  1.00D-07  THRPSP  =  1.00D+00  THRDC   =  1.00D-10  THRCS   =  1.00D-10
 THRNRM  =  1.00D-08  THREQ   =  0.00D+00  THRDE   =  1.00D+00  THRREF  =  1.00D-05  SPARFAC =  1.00D+00  THRDLP  =  1.00D-07
 THRDIA  =  1.00D-10  THRDLS  =  1.00D-07  THRGPS  =  0.00D+00  THRKEX  =  0.00D+00  THRDIS  =  2.00D-01  THRVAR  =  1.00D-10
 THRLOC  =  1.00D-06  THRGAP  =  1.00D-06  THRLOCT = -1.00D+00  THRGAPT = -1.00D+00  THRORB  =  1.00D-06  THRMLTP =  0.00D+00
 THRCPQCI=  1.00D-10  KEXTA   =  0.00D+00  THRCOARS=  0.00D+00  SYMTOL  =  1.00D-06  GRADTOL =  1.00D-06  THROVL  =  1.00D-08
 THRORTH =  1.00D-08  GRID    =  1.00D-06  GRIDMAX =  1.00D-03  DTMAX   =  0.00D+00  THROCCDE=  1.00D-01  THROCCDE=  1.00D-01



 ZUNIT=ANG
 

Geometry recognized as XYZ


 Variable memory set to  512000000 words,  buffer space   230000 words

 SETTING BASIS          =    USERDEF


 Recomputing integrals since basis changed


 Using spherical harmonics



 PROGRAM * SEWARD (Integral evaluation for generally contracted gaussian basis sets)     Author: Roland Lindh, 1990

 Geometry written to block  1 of record 700

 Orientation using atomic masses  
 Molecule type: Atom
 Symmetry elements: X,Y,Z
 Rotational constants:       0.0000000      0.0000000      0.0000000 GHz  (calculated with average atomic masses)

 Point group  D2h 



 ATOMIC COORDINATES

 NR  ATOM    CHARGE       X              Y              Z

   1  P       5.00    0.000000000    0.000000000    0.000000000


          P   CORE POTENTIAL

          d POTENTIAL

 POWERS             1              3              2              1              1
 EXPONENTIALS   15.07330       18.11318       17.37154       0.000000       0.000000    
 COEFFICIENTS   13.00000       195.9529      -117.6111       5.000000      -13.00000    

          s - d POTENTIAL

 POWERS             2              2
 EXPONENTIALS   101.9820       37.48588    
 COEFFICIENTS   25.19723       189.4263    

          p - d POTENTIAL

 POWERS             2
 EXPONENTIALS   1.000000    
 COEFFICIENTS   0.000000    


 BASIS DATA

   Nr Sym  Nuc  Type         Exponents   Contraction coefficients

    1.1 Ag    1  1s         269.443884     0.000055    0.000018
    2.1 Ag                  127.601401    -0.000624   -0.000026
                             60.428603     0.019400   -0.004933
                             28.617367    -0.165509    0.050120
                             13.552418    -0.054265    0.015801
                              6.418062     0.254440   -0.084463
                              3.039422     0.549661   -0.246742
                              1.439389     0.322285   -0.276326
                              0.681656     0.026632    0.100274
                              0.322814     0.004203    0.517201
                              0.152876    -0.001233    0.479758
                              0.072398     0.000497    0.124099
    3.1 Ag    1  1s          14.351753     1.000000
    4.1 Ag    1  1s           5.892935     1.000000
    5.1 Ag    1  1s           2.419682     1.000000
    6.1 Ag    1  1s           0.686898     1.000000
    7.1 Ag    1  1s           0.276109     1.000000
    8.1 Ag    1  1s           0.110986     1.000000
    9.1 Ag    1  3d0         21.344811     1.000000
   10.1 Ag    1  3d2+        21.344811     1.000000
   11.1 Ag    1  3d0          8.578318     1.000000
   12.1 Ag    1  3d2+         8.578318     1.000000
   13.1 Ag    1  3d0          3.447561     1.000000
   14.1 Ag    1  3d2+         3.447561     1.000000
   15.1 Ag    1  3d0          0.984476     1.000000
   16.1 Ag    1  3d2+         0.984476     1.000000
   17.1 Ag    1  3d0          0.399580     1.000000
   18.1 Ag    1  3d2+         0.399580     1.000000
   19.1 Ag    1  3d0          0.162182     1.000000
   20.1 Ag    1  3d2+         0.162182     1.000000
   21.1 Ag    1  5g0         10.675335     1.000000
   22.1 Ag    1  5g4+        10.675335     1.000000
   23.1 Ag    1  5g2+        10.675335     1.000000
   24.1 Ag    1  5g0          0.589583     1.000000
   25.1 Ag    1  5g4+         0.589583     1.000000
   26.1 Ag    1  5g2+         0.589583     1.000000
    1.2 B3u   1  2px         48.154282     0.012884   -0.003152
    2.2 B3u                  25.406431     0.097095   -0.023006
                             13.404555     0.178215   -0.042398
                              7.072308     0.265964   -0.067477
                              3.731384     0.312933   -0.082952
                              1.968696     0.230686   -0.066026
                              1.038693     0.080489    0.034468
                              0.548020     0.009085    0.209018
                              0.289138     0.001248    0.347179
                              0.152550    -0.000066    0.344806
                              0.080486     0.000129    0.181731
                              0.042465    -0.000029    0.036649
    3.2 B3u   1  2px         15.611575     1.000000
    4.2 B3u   1  2px          7.445592     1.000000
    5.2 B3u   1  2px          3.551009     1.000000
    6.2 B3u   1  2px          1.581855     1.000000
    7.2 B3u   1  2px          0.658132     1.000000
    8.2 B3u   1  2px          0.273816     1.000000
    9.2 B3u   1  4f1+        14.757406     1.000000
   10.2 B3u   1  4f3+        14.757406     1.000000
   11.2 B3u   1  4f1+         5.264403     1.000000
   12.2 B3u   1  4f3+         5.264403     1.000000
   13.2 B3u   1  4f1+         0.694441     1.000000
   14.2 B3u   1  4f3+         0.694441     1.000000
   15.2 B3u   1  4f1+         0.279257     1.000000
   16.2 B3u   1  4f3+         0.279257     1.000000
    1.3 B2u   1  2py         48.154282     0.012884   -0.003152
    2.3 B2u                  25.406431     0.097095   -0.023006
                             13.404555     0.178215   -0.042398
                              7.072308     0.265964   -0.067477
                              3.731384     0.312933   -0.082952
                              1.968696     0.230686   -0.066026
                              1.038693     0.080489    0.034468
                              0.548020     0.009085    0.209018
                              0.289138     0.001248    0.347179
                              0.152550    -0.000066    0.344806
                              0.080486     0.000129    0.181731
                              0.042465    -0.000029    0.036649
    3.3 B2u   1  2py         15.611575     1.000000
    4.3 B2u   1  2py          7.445592     1.000000
    5.3 B2u   1  2py          3.551009     1.000000
    6.3 B2u   1  2py          1.581855     1.000000
    7.3 B2u   1  2py          0.658132     1.000000
    8.3 B2u   1  2py          0.273816     1.000000
    9.3 B2u   1  4f1-        14.757406     1.000000
   10.3 B2u   1  4f3-        14.757406     1.000000
   11.3 B2u   1  4f1-         5.264403     1.000000
   12.3 B2u   1  4f3-         5.264403     1.000000
   13.3 B2u   1  4f1-         0.694441     1.000000
   14.3 B2u   1  4f3-         0.694441     1.000000
   15.3 B2u   1  4f1-         0.279257     1.000000
   16.3 B2u   1  4f3-         0.279257     1.000000
    1.4 B1g   1  3d2-        21.344811     1.000000
    2.4 B1g   1  3d2-         8.578318     1.000000
    3.4 B1g   1  3d2-         3.447561     1.000000
    4.4 B1g   1  3d2-         0.984476     1.000000
    5.4 B1g   1  3d2-         0.399580     1.000000
    6.4 B1g   1  3d2-         0.162182     1.000000
    7.4 B1g   1  5g2-        10.675335     1.000000
    8.4 B1g   1  5g4-        10.675335     1.000000
    9.4 B1g   1  5g2-         0.589583     1.000000
   10.4 B1g   1  5g4-         0.589583     1.000000
    1.5 B1u   1  2pz         48.154282     0.012884   -0.003152
    2.5 B1u                  25.406431     0.097095   -0.023006
                             13.404555     0.178215   -0.042398
                              7.072308     0.265964   -0.067477
                              3.731384     0.312933   -0.082952
                              1.968696     0.230686   -0.066026
                              1.038693     0.080489    0.034468
                              0.548020     0.009085    0.209018
                              0.289138     0.001248    0.347179
                              0.152550    -0.000066    0.344806
                              0.080486     0.000129    0.181731
                              0.042465    -0.000029    0.036649
    3.5 B1u   1  2pz         15.611575     1.000000
    4.5 B1u   1  2pz          7.445592     1.000000
    5.5 B1u   1  2pz          3.551009     1.000000
    6.5 B1u   1  2pz          1.581855     1.000000
    7.5 B1u   1  2pz          0.658132     1.000000
    8.5 B1u   1  2pz          0.273816     1.000000
    9.5 B1u   1  4f0         14.757406     1.000000
   10.5 B1u   1  4f2+        14.757406     1.000000
   11.5 B1u   1  4f0          5.264403     1.000000
   12.5 B1u   1  4f2+         5.264403     1.000000
   13.5 B1u   1  4f0          0.694441     1.000000
   14.5 B1u   1  4f2+         0.694441     1.000000
   15.5 B1u   1  4f0          0.279257     1.000000
   16.5 B1u   1  4f2+         0.279257     1.000000
    1.6 B2g   1  3d1+        21.344811     1.000000
    2.6 B2g   1  3d1+         8.578318     1.000000
    3.6 B2g   1  3d1+         3.447561     1.000000
    4.6 B2g   1  3d1+         0.984476     1.000000
    5.6 B2g   1  3d1+         0.399580     1.000000
    6.6 B2g   1  3d1+         0.162182     1.000000
    7.6 B2g   1  5g1+        10.675335     1.000000
    8.6 B2g   1  5g3+        10.675335     1.000000
    9.6 B2g   1  5g1+         0.589583     1.000000
   10.6 B2g   1  5g3+         0.589583     1.000000
    1.7 B3g   1  3d1-        21.344811     1.000000
    2.7 B3g   1  3d1-         8.578318     1.000000
    3.7 B3g   1  3d1-         3.447561     1.000000
    4.7 B3g   1  3d1-         0.984476     1.000000
    5.7 B3g   1  3d1-         0.399580     1.000000
    6.7 B3g   1  3d1-         0.162182     1.000000
    7.7 B3g   1  5g1-        10.675335     1.000000
    8.7 B3g   1  5g3-        10.675335     1.000000
    9.7 B3g   1  5g1-         0.589583     1.000000
   10.7 B3g   1  5g3-         0.589583     1.000000
    1.8 Au    1  4f2-        14.757406     1.000000
    2.8 Au    1  4f2-         5.264403     1.000000
    3.8 Au    1  4f2-         0.694441     1.000000
    4.8 Au    1  4f2-         0.279257     1.000000

 NUCLEAR CHARGE:                    5
 NUMBER OF PRIMITIVE AOS:         178
 NUMBER OF SYMMETRY AOS:          148
 NUMBER OF CONTRACTIONS:          108   (  26Ag  +  16B3u +  16B2u +  10B1g +  16B1u +  10B2g +  10B3g +   4Au  )
 NUMBER OF CORE ORBITALS:           0   (   0Ag  +   0B3u +   0B2u +   0B1g +   0B1u +   0B2g +   0B3g +   0Au  )
 NUMBER OF VALENCE ORBITALS:        4   (   1Ag  +   1B3u +   1B2u +   0B1g +   1B1u +   0B2g +   0B3g +   0Au  )


 NUCLEAR REPULSION ENERGY    0.00000000

 EXTRA SYMMETRY OF AOS IN SYMMETRY 1:   1 1 1 1 1 1 1 1 2 3   2 3 2 3 2 3 2 3 2 3   4 5 6 4 5 6
 EXTRA SYMMETRY OF AOS IN SYMMETRY 2:   1 1 1 1 1 1 1 1 2 3   2 3 2 3 2 3
 EXTRA SYMMETRY OF AOS IN SYMMETRY 3:   1 1 1 1 1 1 1 1 2 3   2 3 2 3 2 3
 EXTRA SYMMETRY OF AOS IN SYMMETRY 4:   1 1 1 1 1 1 2 3 2 3
 EXTRA SYMMETRY OF AOS IN SYMMETRY 5:   1 1 1 1 1 1 1 1 2 3   2 3 2 3 2 3
 EXTRA SYMMETRY OF AOS IN SYMMETRY 6:   1 1 1 1 1 1 2 3 2 3
 EXTRA SYMMETRY OF AOS IN SYMMETRY 7:   1 1 1 1 1 1 2 3 2 3

 Eigenvalues of metric

         1 0.455E-04 0.584E-03 0.106E-01 0.367E-01 0.704E-01 0.704E-01 0.147E+00 0.147E+00
         2 0.364E-03 0.776E-02 0.240E-01 0.637E-01 0.226E+00 0.336E+00 0.336E+00 0.456E+00
         3 0.364E-03 0.776E-02 0.240E-01 0.637E-01 0.226E+00 0.336E+00 0.336E+00 0.456E+00
         4 0.704E-01 0.147E+00 0.476E+00 0.897E+00 0.988E+00 0.988E+00 0.101E+01 0.101E+01
         5 0.364E-03 0.776E-02 0.240E-01 0.637E-01 0.226E+00 0.336E+00 0.336E+00 0.456E+00
         6 0.704E-01 0.147E+00 0.476E+00 0.897E+00 0.988E+00 0.988E+00 0.101E+01 0.101E+01
         7 0.704E-01 0.147E+00 0.476E+00 0.897E+00 0.988E+00 0.988E+00 0.101E+01 0.101E+01
         8 0.336E+00 0.456E+00 0.151E+01 0.170E+01


 Contracted 2-electron integrals neglected if value below      1.0D-12
 AO integral compression algorithm  1   Integral accuracy      1.0D-12

     19.137 MB (compressed) written to integral file ( 57.7%)


 NUMBER OF SORTED TWO-ELECTRON INTEGRALS:    2285089.     BUFFER LENGTH:  32768
 NUMBER OF SEGMENTS:   1  SEGMENT LENGTH:    2285089      RECORD LENGTH: 524288

 Memory used in sort:       2.84 MW

 SORT1 READ     4189600. AND WROTE     1738785. INTEGRALS IN      5 RECORDS. CPU TIME:     0.09 SEC, REAL TIME:     0.14 SEC
 SORT2 READ     1738785. AND WROTE     2285089. INTEGRALS IN     73 RECORDS. CPU TIME:     0.11 SEC, REAL TIME:     0.23 SEC

 FILE SIZES:   FILE 1:    39.3 MBYTE,  FILE 4:    21.0 MBYTE,   TOTAL:     60.3 MBYTE

 OPERATOR DM      FOR CENTER  0  COORDINATES:    0.000000    0.000000    0.000000
 OPERATOR EKIN    FOR CENTER  0  COORDINATES:    0.000000    0.000000    0.000000
 OPERATOR POT     FOR CENTER  0  COORDINATES:    0.000000    0.000000    0.000000


 **********************************************************************************************************************************
 DATASETS  * FILE   NREC   LENGTH (MB)   RECORD NAMES
              1      20       30.59       500      610      700      900      950      970     1000      129      960     1100   
                                          VAR    BASINP    GEOM    SYMINP    ZMAT    AOBASIS   BASIS     P2S    ABASIS      S 
                                         1400     1410     1420     1200     1210     1080     1600     1650     1300     1700   
                                         EKIN       V       ECP      H0       H01     AOSYM     SMH    MOLCAS    ERIS     OPER   

 PROGRAMS   *        TOTAL       INT
 CPU TIMES  *         1.75      1.63
 REAL TIME  *        40.46 SEC
 DISK USED  *        60.61 MB      
 **********************************************************************************************************************************


 PROGRAM * RHF-SCF (OPEN SHELL)       Authors: W. Meyer, H.-J. Werner


 NUMBER OF ELECTRONS:       8+    5-    SPACE SYMMETRY=8    SPIN SYMMETRY: Quartet 
 CONVERGENCE THRESHOLDS:    1.00E-05 (Density)    1.00E-07 (Energy)
 MAX. NUMBER OF ITERATIONS:       60
 INTERPOLATION TYPE:            DIIS
 INTERPOLATION STEPS:              2 (START)      1 (STEP)
 LEVEL SHIFTS:                 -0.60 (CLOSED) -0.30 (OPEN) 

 Number of closed-shell orbitals:    5 (   2   1   1   0   1   0   0   0 )
 Number of open-shell orbitals:      3 (   0   1   1   0   1   0   0   0 )



   Atom=P  basis=ECP10MWB_GUESS    lmin=0  lmax=1

 Orbital guess generated from atomic densities. Full valence occupancy:    1   1   1   0   1   0   0   0


 Molecular orbital dump at record        2100.2

 ITERATION    DDIFF          GRAD             ENERGY        2-EL.EN.            DIPOLE MOMENTS         DIIS   ORB.
    1      0.000D+00      0.000D+00      -109.26429591    222.172520    0.00000    0.00000    0.00000    0    start
    2      0.000D+00      0.638D+00      -122.93462649    124.589174    0.00000    0.00000    0.00000    1    diag,B
    3      0.237D+01      0.256D+00      -125.14308689    145.982769    0.00000    0.00000    0.00000    2    diag,B
    4      0.377D+00      0.266D-01      -125.24054754    148.491176    0.00000    0.00000    0.00000    3    diag,B
    5      0.101D+00      0.709D-02      -125.25592593    149.013839    0.00000    0.00000    0.00000    4    diag,B
    6      0.533D-01      0.231D-02      -125.25859250    149.266468    0.00000    0.00000    0.00000    5    diag,B
    7      0.293D-01      0.546D-03      -125.25869886    149.278457    0.00000    0.00000    0.00000    6    fixocc
    8      0.271D-02      0.153D-03      -125.25870584    149.259808    0.00000    0.00000    0.00000    7    diag,B
    9      0.386D-02      0.164D-04      -125.25870589    149.258069    0.00000    0.00000    0.00000    8    diag,B
   10      0.454D-03      0.920D-06      -125.25870589    149.258051    0.00000    0.00000    0.00000    9    orth
   11      0.146D-04      0.149D-06      -125.25870589    149.258069    0.00000    0.00000    0.00000    9    diag,B
   12      0.134D-05      0.171D-07      -125.25870589    149.258073    0.00000    0.00000    0.00000    0    orth

 Final alpha occupancy:   2   2   2   0   2   0   0   0
 Final beta  occupancy:   2   1   1   0   1   0   0   0

 !RHF STATE 1.8 Energy               -125.258705886979
 Nuclear energy                         0.00000000
 One-electron energy                 -199.88774226
 Two-electron energy                   74.62903637
 Virial quotient                       -1.27363335
 !RHF STATE 1.8 Dipole moment           0.00000000     0.00000000     0.00000000
 Dipole moment /Debye                   0.00000000     0.00000000     0.00000000
 

 !RHF expec          <1.8|EKIN|1.8>    98.347539333648
 
 !RHF expec           <1.8|POT|1.8>   -23.457376962663

 ELECTRON ORBITALS
 =================


   Orb  Occ    Energy  Couls-En    Coefficients

                                   1 1s      1 1s      1 1s      1 1s      1 1s      1 1s      1 1s      1 1s      1 3d0     1 3d2+ 
                                   1 3d0     1 3d2+    1 3d0     1 3d2+    1 3d0     1 3d2+    1 3d0     1 3d2+    1 3d0     1 3d2+ 
                                   1 5g0     1 5g4+    1 5g2+    1 5g0     1 5g4+    1 5g2+ 

   1.1   2    -7.5350  -29.2869  1.000351  0.001171  0.000003 -0.000012  0.000246 -0.000038 -0.000859 -0.000460 -0.000000  0.000000
                                 0.000000 -0.000000 -0.000000  0.000000  0.000000  0.000000  0.000000 -0.000000 -0.000000  0.000000
                                 0.000000  0.000000 -0.000000  0.000000 -0.000000 -0.000000

   2.1   2    -0.6996   -7.9194  0.000302  1.000840  0.000017 -0.000030  0.000140 -0.000049 -0.000571 -0.000362  0.000000 -0.000000
                                -0.000000  0.000000  0.000000 -0.000000 -0.000000 -0.000000  0.000000 -0.000000 -0.000000  0.000000
                                 0.000000  0.000000 -0.000000  0.000000 -0.000000 -0.000000

                                   1 2px     1 2px     1 2px     1 2px     1 2px     1 2px     1 2px     1 2px     1 4f1+    1 4f3+ 
                                   1 4f1+    1 4f3+    1 4f1+    1 4f3+    1 4f1+    1 4f3+ 

   1.2   2    -5.4978  -26.1359  0.999959  0.000003  0.000014  0.000004  0.000021  0.000008  0.000001 -0.000002 -0.000000  0.000000
                                -0.000000 -0.000000 -0.000000  0.000000 -0.000000 -0.000000

   2.2   +    -0.3912   -6.4298 -0.000033  1.000009  0.000012  0.000004  0.000019  0.000005 -0.000000 -0.000008  0.000000  0.000000
                                -0.000000 -0.000000 -0.000000  0.000000 -0.000000 -0.000000

                                   1 2py     1 2py     1 2py     1 2py     1 2py     1 2py     1 2py     1 2py     1 4f1-    1 4f3- 
                                   1 4f1-    1 4f3-    1 4f1-    1 4f3-    1 4f1-    1 4f3- 

   1.3   2    -5.4978  -26.1359  0.999959  0.000003  0.000014  0.000004  0.000021  0.000008  0.000001 -0.000002 -0.000000 -0.000000
                                -0.000000  0.000000 -0.000000 -0.000000 -0.000000  0.000000

   2.3   +    -0.3912   -6.4298 -0.000033  1.000009  0.000012  0.000004  0.000019  0.000005 -0.000000 -0.000008  0.000000 -0.000000
                                -0.000000  0.000000 -0.000000 -0.000000 -0.000000  0.000000

                                   1 2pz     1 2pz     1 2pz     1 2pz     1 2pz     1 2pz     1 2pz     1 2pz     1 4f0     1 4f2+ 
                                   1 4f0     1 4f2+    1 4f0     1 4f2+    1 4f0     1 4f2+ 

   1.5   2    -5.4978  -26.1359  0.999959  0.000003  0.000014  0.000004  0.000021  0.000008  0.000001 -0.000002 -0.000000  0.000000
                                 0.000000  0.000000  0.000000  0.000000 -0.000000 -0.000000

   2.5   +    -0.3912   -6.4298 -0.000033  1.000009  0.000012  0.000004  0.000019  0.000005 -0.000000 -0.000008  0.000000 -0.000000
                                -0.000000 -0.000000  0.000000 -0.000000 -0.000000 -0.000000

 HOMO      2.2    -0.391237 =     -10.6461eV
 LUMO      3.1     0.296513 =       8.0685eV
 LUMO-HOMO         0.687750 =      18.7146eV


 **********************************************************************************************************************************
 DATASETS  * FILE   NREC   LENGTH (MB)   RECORD NAMES
              1      20       30.59       500      610      700      900      950      970     1000      129      960     1100   
                                          VAR    BASINP    GEOM    SYMINP    ZMAT    AOBASIS   BASIS     P2S    ABASIS      S 
                                         1400     1410     1420     1200     1210     1080     1600     1650     1300     1700   
                                         EKIN       V       ECP      H0       H01     AOSYM     SMH    MOLCAS    ERIS     OPER   

              2       4        2.81       700     1000      520     2100   
                                         GEOM     BASIS   MCVARS     RHF  

 PROGRAMS   *        TOTAL        HF       INT
 CPU TIMES  *         1.93      0.18      1.63
 REAL TIME  *        44.14 SEC
 DISK USED  *        60.61 MB      
 **********************************************************************************************************************************
 SETTING SCF(I)         =      -125.25870589  AU                              
 SETTING _CC_NORM_MAX   =         2.00000000                                  


 PROGRAM * CI (Multireference internally contracted CI)     Authors: H.-J. Werner, P.J. Knowles, 1987


 Convergence thresholds:  THRVAR = 1.00D-08  THRDEN = 1.00D-06

 Number of optimized states:  1  Roots:   1
 Number of reference states:  1  Roots:   1

 Reference symmetry:                   8   Quartet 
 Number of electrons:                 13
 Maximum number of shells:             3
 Maximum number of spin couplings:    14

 Reference space:        1 conf        1 CSFs
 N elec internal:       46 conf       46 CSFs
 N-1 el internal:       83 conf      188 CSFs
 N-2 el internal:       33 conf      223 CSFs

 Number of electrons in valence space:                     13
 Maximum number of open shell orbitals in reference space:  3
 Maximum number of open shell orbitals in internal spaces:  7


 Number of closed-shell orbitals:   5 (   2   1   1   0   1   0   0   0 )
 Number of active  orbitals:        3 (   0   1   1   0   1   0   0   0 )
 Number of external orbitals:     100 (  24  14  14  10  14  10  10   4 )

 Molecular orbitals read from record     2100.2  Type=RHF/CANONICAL (state 1.8)

 Integral transformation finished. Total CPU:   0.02 sec, npass=  1  Memory used:   0.12 MW

 Number of p-space configurations:   1

 Reference wavefunction optimized for reference space (refopt=1)

 State     Reference Energy 
   1        -125.25870589

 Number of blocks in overlap matrix:    58   Smallest eigenvalue:  0.10D+01
 Number of N-2 electron functions:      58
 Number of N-1 electron functions:     188

 Number of internal configurations:                    7
 Number of singly external configurations:          2532
 Number of doubly external configurations:         38046
 Total number of contracted configurations:        40585
 Total number of uncontracted configurations:     147175

 Diagonal Coupling coefficients finished.               Storage:   13027 words, CPU-Time:      0.00 seconds.
 Energy denominators for pairs finished in 1 passes.    Storage:   31919 words, CPU-time:      0.00 seconds.

  ITER. STATE  ROOT     SQ.NORM     CORR.ENERGY   TOTAL ENERGY   ENERGY CHANGE       DEN1      VAR(S)    VAR(P)      TIME
    1     1     1     1.00000000     0.00000000  -125.25870589    -0.00000000    -0.44351166  0.48D-01  0.44D-01     0.04
    2     1     1     1.07311562    -0.39555995  -125.65426584    -0.39555995    -0.00808033  0.25D-02  0.10D-02     0.10
    3     1     1     1.05368752    -0.40338557  -125.66209146    -0.00782562    -0.00007180  0.64D-05  0.11D-04     0.18
    4     1     1     1.05319760    -0.40345980  -125.66216568    -0.00007422    -0.00000133  0.35D-06  0.20D-06     0.24
    5     1     1     1.05322873    -0.40346117  -125.66216705    -0.00000137    -0.00000003  0.64D-08  0.49D-08     0.31
    6     1     1     1.05322290    -0.40346120  -125.66216708    -0.00000003    -0.00000000  0.13D-09  0.13D-09     0.38


 =====================================
 Analysis of CPU times by interactions
 =====================================

       I      S      P

 I   0.0%
 S   0.0%  10.5%
 P   0.0%   5.3%  21.1%

 Initialization:  10.5%
 Other:           52.6%

 Total CPU:        0.4 seconds
 =====================================



 Reference coefficients greater than 0.0500000
 =============================================
 222/2/2/           0.9744001

 Coefficients of singly external configurations greater than 0.0500000
 =====================================================================

 2/2/2\2/   5.1    -0.0518485



 RESULTS FOR STATE 1.8
 =====================

 Coefficient of reference function:   C(0) = 0.97440015 (fixed)   0.97440015 (relaxed)

 Energy contributions of configuration classes

 CLASS          SQ.NORM        ECORR1        ECORR2
 +++++++++++++++++++++++++++++++++++++++++++++++++++
 Internals    0.00001157   -0.00009944   -0.00009885
 Singles      0.02310895   -0.04657811   -0.05307550
 Pairs        0.03011456   -0.35678365   -0.35028685
 Total        1.05323509   -0.40346120   -0.40346120
 +++++++++++++++++++++++++++++++++++++++++++++++++++


 Reference energy                    -125.25870589
 Nuclear energy                         0.00000000
 Kinetic energy                        98.66838143
 One electron energy                 -199.66848868
 Two electron energy                   74.00632160
 Virial quotient                       -1.27358091
 Correlation energy                    -0.40346120
 !CI(SD) STATE 1.8 Energy            -125.662167083860

 Properties without orbital relaxation:

 !CI(SD) STATE 1.8 Dipole moment        0.00000000     0.00000000     0.00000000
 Dipole moment /Debye                   0.00000000     0.00000000     0.00000000

 Cluster corrected energies          -125.68364538 (Davidson, fixed reference)
 Cluster corrected energies          -125.68364538 (Davidson, relaxed reference)

 Cluster corrected energies          -125.67990808 (Pople, fixed reference)
 Cluster corrected energies          -125.67990808 (Pople, relaxed reference)

 

 !CI(SD) expec       <1.8|EKIN|1.8>    98.668381434097
 
 !CI(SD) expec        <1.8|POT|1.8>   -23.466206008708


 **********************************************************************************************************************************
 DATASETS  * FILE   NREC   LENGTH (MB)   RECORD NAMES
              1      21       31.36       500      610      700      900      950      970     1000      129      960     1100   
                                          VAR    BASINP    GEOM    SYMINP    ZMAT    AOBASIS   BASIS     P2S    ABASIS      S 
                                         1400     1410     1420     1200     1210     1080     1600     1650     1300     1700   
                                         EKIN       V       ECP      H0       H01     AOSYM     SMH    MOLCAS    ERIS     OPER   
                                         1380   
                                         JKOP   

              2       4        2.81       700     1000      520     2100   
                                         GEOM     BASIS   MCVARS     RHF  

 PROGRAMS   *        TOTAL        CI        HF       INT
 CPU TIMES  *         2.37      0.43      0.18      1.63
 REAL TIME  *        48.37 SEC
 DISK USED  *        60.61 MB      
 **********************************************************************************************************************************
 SETTING POSTHF(I)      =      -125.66216708  AU                              
                                                                                                                                                                                                                                                                

         SCF            POSTHF       EKIN           POT
    -125.2587059   -125.6621671   98.66838143   -23.46620601
                                                  

 CI/USERDEF energy=   -125.662167083860

        CI              HF-SCF  
   -125.66216708   -125.25870589
 **********************************************************************************************************************************
 Molpro calculation terminated
 Variable memory released
