
 Primary working directories    : /global/cscratch1/sd/aannabe
 Secondary working directories  : /global/cscratch1/sd/aannabe
 Wavefunction directory         : /global/homes/a/aannabe/wfu/
 Main file repository           : /global/cscratch1/sd/aannabe/

 SHA1      : 19cd028119e0e09f93f0674bd8af7968d9b3eff6
 NAME      : 2015.1.36
 ARCHNAME  : linux/x86_64
 FC        : /opt/cray/pe/craype/2.5.14/bin/ftn
 BLASLIB   : -L/opt/intel/compilers_and_libraries_2018.1.163/linux/mkl/lib/intel64 -Wl,-_start-group -lmkl_intel_ilp64 -lmkl_intel_thread -lmkl_core -Wl,-_end-group -liomp5
 id        : lbl

 Nodes     nprocs
 nid00447     1

 Using customized tuning parameters: mindgm=7; mindgv=16; mindgc=1; mindgr=1; noblas=0; minvec=7
 default implementation of scratch files=df  

 ***,P
 memory,512,m
 gthresh,twoint=1.e-12
 
 gprint,basis,orbitals
 gexpec,ekin,pot
 
 angstrom
 geometry={
 1                                                                               ! Number of atoms
 P 0.0 0.0 0.0
 }
 
 basis={
 Including file /global/homes/a/aannabe/repos/pseudopotentiallibrary/recipes/P/ccECP_He_core/P.ccECP.molpro
 Including file /global/homes/a/aannabe/repos/pseudopotentiallibrary/recipes/P/ccECP_He_core/cc-pCV6Z.molpro
 }
 
 {hf
  wf,13,8,3
  occ,2,2,2,0,2,0,0,0
  closed,2,1,1,0,1,0,0,0
                                                                                 !open,2.3,2.5,2.2
 }
 scf(i)=energy
 
 _CC_NORM_MAX=2.0
 {ci
 maxit,100
 core
 }
 posthf(i)=energy
 
 table,scf,posthf,ekin,pot
 save,6.csv,new
 
 

 Variables initialized (889), CPU time= 0.01 sec
 Commands  initialized (702), CPU time= 0.01 sec, 572 directives.
 Default parameters read. Elapsed time= 0.12 sec

 Checking input...
 Passed
1


                                         ***  PROGRAM SYSTEM MOLPRO  ***
                                       Copyright, TTI GmbH Stuttgart, 2015
                                    Version 2015.1 linked Dec 29 2018 15:55:43


 **********************************************************************************************************************************
 LABEL *   P                                                                             
  64 bit serial version                                                                  DATE: 03-Jan-19          TIME: 20:01:02  
 **********************************************************************************************************************************

 SHA1:             19cd028119e0e09f93f0674bd8af7968d9b3eff6
 **********************************************************************************************************************************

 THRESHOLDS:

 ZERO    =  1.00D-12  ONEINT  =  1.00D-12  TWOINT  =  1.00D-12  PREFAC  =  1.00D-14  LOCALI  =  1.00D-09  EORDER  =  1.00D-04
 ENERGY  =  0.00D+00  ETEST   =  0.00D+00  EDENS   =  0.00D+00  THRDEDEF=  1.00D-06  GRADIENT=  1.00D-02  STEP    =  1.00D-03
 ORBITAL =  1.00D-05  CIVEC   =  1.00D-05  COEFF   =  1.00D-04  PRINTCI =  5.00D-02  PUNCHCI =  9.90D+01  OPTGRAD =  3.00D-04
 OPTENERG=  1.00D-06  OPTSTEP =  3.00D-04  THRGRAD =  1.00D-10  COMPRESS=  1.00D-11  VARMIN  =  1.00D-07  VARMAX  =  1.00D-03
 THRDOUB =  0.00D+00  THRDIV  =  1.00D-05  THRRED  =  1.00D-07  THRPSP  =  1.00D+00  THRDC   =  1.00D-10  THRCS   =  1.00D-10
 THRNRM  =  1.00D-08  THREQ   =  0.00D+00  THRDE   =  1.00D+00  THRREF  =  1.00D-05  SPARFAC =  1.00D+00  THRDLP  =  1.00D-07
 THRDIA  =  1.00D-10  THRDLS  =  1.00D-07  THRGPS  =  0.00D+00  THRKEX  =  0.00D+00  THRDIS  =  2.00D-01  THRVAR  =  1.00D-10
 THRLOC  =  1.00D-06  THRGAP  =  1.00D-06  THRLOCT = -1.00D+00  THRGAPT = -1.00D+00  THRORB  =  1.00D-06  THRMLTP =  0.00D+00
 THRCPQCI=  1.00D-10  KEXTA   =  0.00D+00  THRCOARS=  0.00D+00  SYMTOL  =  1.00D-06  GRADTOL =  1.00D-06  THROVL  =  1.00D-08
 THRORTH =  1.00D-08  GRID    =  1.00D-06  GRIDMAX =  1.00D-03  DTMAX   =  0.00D+00  THROCCDE=  1.00D-01  THROCCDE=  1.00D-01



 ZUNIT=ANG
 

Geometry recognized as XYZ


 Variable memory set to  512000000 words,  buffer space   230000 words

 SETTING BASIS          =    USERDEF


 Recomputing integrals since basis changed


 Using spherical harmonics



 PROGRAM * SEWARD (Integral evaluation for generally contracted gaussian basis sets)     Author: Roland Lindh, 1990

 Geometry written to block  1 of record 700

 Orientation using atomic masses  
 Molecule type: Atom
 Symmetry elements: X,Y,Z
 Rotational constants:       0.0000000      0.0000000      0.0000000 GHz  (calculated with average atomic masses)

 Point group  D2h 



 ATOMIC COORDINATES

 NR  ATOM    CHARGE       X              Y              Z

   1  P       5.00    0.000000000    0.000000000    0.000000000


          P   CORE POTENTIAL

          d POTENTIAL

 POWERS             1              3              2              1              1
 EXPONENTIALS   15.07330       18.11318       17.37154       0.000000       0.000000    
 COEFFICIENTS   13.00000       195.9529      -117.6111       5.000000      -13.00000    

          s - d POTENTIAL

 POWERS             2              2
 EXPONENTIALS   101.9820       37.48588    
 COEFFICIENTS   25.19723       189.4263    

          p - d POTENTIAL

 POWERS             2
 EXPONENTIALS   1.000000    
 COEFFICIENTS   0.000000    


 BASIS DATA

   Nr Sym  Nuc  Type         Exponents   Contraction coefficients

    1.1 Ag    1  1s         269.443884     0.000055    0.000018
    2.1 Ag                  127.601401    -0.000624   -0.000026
                             60.428603     0.019400   -0.004933
                             28.617367    -0.165509    0.050120
                             13.552418    -0.054265    0.015801
                              6.418062     0.254440   -0.084463
                              3.039422     0.549661   -0.246742
                              1.439389     0.322285   -0.276326
                              0.681656     0.026632    0.100274
                              0.322814     0.004203    0.517201
                              0.152876    -0.001233    0.479758
                              0.072398     0.000497    0.124099
    3.1 Ag    1  1s           0.080755     1.000000
    4.1 Ag    1  1s           0.167551     1.000000
    5.1 Ag    1  1s           0.347636     1.000000
    6.1 Ag    1  1s           0.721278     1.000000
    7.1 Ag    1  1s           1.496512     1.000000
    8.1 Ag    1  1s           2.051802     1.000000
    9.1 Ag    1  1s           4.241512     1.000000
   10.1 Ag    1  1s           8.768108     1.000000
   11.1 Ag    1  1s          18.125547     1.000000
   12.1 Ag    1  1s          37.469367     1.000000
   13.1 Ag    1  3d0          0.151555     1.000000
   14.1 Ag    1  3d2+         0.151555     1.000000
   15.1 Ag    1  3d0          0.358006     1.000000
   16.1 Ag    1  3d2+         0.358006     1.000000
   17.1 Ag    1  3d0          0.845689     1.000000
   18.1 Ag    1  3d2+         0.845689     1.000000
   19.1 Ag    1  3d0          1.997705     1.000000
   20.1 Ag    1  3d2+         1.997705     1.000000
   21.1 Ag    1  3d0          4.719018     1.000000
   22.1 Ag    1  3d2+         4.719018     1.000000
   23.1 Ag    1  3d0          4.906275     1.000000
   24.1 Ag    1  3d2+         4.906275     1.000000
   25.1 Ag    1  3d0          8.507005     1.000000
   26.1 Ag    1  3d2+         8.507005     1.000000
   27.1 Ag    1  3d0         14.750321     1.000000
   28.1 Ag    1  3d2+        14.750321     1.000000
   29.1 Ag    1  3d0         25.575626     1.000000
   30.1 Ag    1  3d2+        25.575626     1.000000
   31.1 Ag    1  3d0         44.345655     1.000000
   32.1 Ag    1  3d2+        44.345655     1.000000
   33.1 Ag    1  5g0          0.370461     1.000000
   34.1 Ag    1  5g4+         0.370461     1.000000
   35.1 Ag    1  5g2+         0.370461     1.000000
   36.1 Ag    1  5g0          0.716028     1.000000
   37.1 Ag    1  5g4+         0.716028     1.000000
   38.1 Ag    1  5g2+         0.716028     1.000000
   39.1 Ag    1  5g0          1.383943     1.000000
   40.1 Ag    1  5g4+         1.383943     1.000000
   41.1 Ag    1  5g2+         1.383943     1.000000
   42.1 Ag    1  5g0          5.547503     1.000000
   43.1 Ag    1  5g4+         5.547503     1.000000
   44.1 Ag    1  5g2+         5.547503     1.000000
   45.1 Ag    1  5g0         11.920918     1.000000
   46.1 Ag    1  5g4+        11.920918     1.000000
   47.1 Ag    1  5g2+        11.920918     1.000000
   48.1 Ag    1  5g0         25.616623     1.000000
   49.1 Ag    1  5g4+        25.616623     1.000000
   50.1 Ag    1  5g2+        25.616623     1.000000
   51.1 Ag    1  7i6+         0.894033     1.000000
   52.1 Ag    1  7i4+         0.894033     1.000000
   53.1 Ag    1  7i2+         0.894033     1.000000
   54.1 Ag    1  7i0          0.894033     1.000000
   55.1 Ag    1  7i6+        15.812746     1.000000
   56.1 Ag    1  7i4+        15.812746     1.000000
   57.1 Ag    1  7i2+        15.812746     1.000000
   58.1 Ag    1  7i0         15.812746     1.000000
    1.2 B3u   1  2px         48.154282     0.012884   -0.003152
    2.2 B3u                  25.406431     0.097095   -0.023006
                             13.404555     0.178215   -0.042398
                              7.072308     0.265964   -0.067477
                              3.731384     0.312933   -0.082952
                              1.968696     0.230686   -0.066026
                              1.038693     0.080489    0.034468
                              0.548020     0.009085    0.209018
                              0.289138     0.001248    0.347179
                              0.152550    -0.000066    0.344806
                              0.080486     0.000129    0.181731
                              0.042465    -0.000029    0.036649
    3.2 B3u   1  2px          0.199855     1.000000
    4.2 B3u   1  2px          0.401583     1.000000
    5.2 B3u   1  2px          0.806931     1.000000
    6.2 B3u   1  2px          1.621427     1.000000
    7.2 B3u   1  2px          3.258053     1.000000
    8.2 B3u   1  2px          4.240737     1.000000
    9.2 B3u   1  2px          8.359964     1.000000
   10.2 B3u   1  2px         16.480390     1.000000
   11.2 B3u   1  2px         32.488568     1.000000
   12.2 B3u   1  2px         64.046241     1.000000
   13.2 B3u   1  4f1+         0.200245     1.000000
   14.2 B3u   1  4f3+         0.200245     1.000000
   15.2 B3u   1  4f1+         0.394747     1.000000
   16.2 B3u   1  4f3+         0.394747     1.000000
   17.2 B3u   1  4f1+         0.778173     1.000000
   18.2 B3u   1  4f3+         0.778173     1.000000
   19.2 B3u   1  4f1+         1.534027     1.000000
   20.2 B3u   1  4f3+         1.534027     1.000000
   21.2 B3u   1  4f1+         4.539883     1.000000
   22.2 B3u   1  4f3+         4.539883     1.000000
   23.2 B3u   1  4f1+         8.969801     1.000000
   24.2 B3u   1  4f3+         8.969801     1.000000
   25.2 B3u   1  4f1+        17.722335     1.000000
   26.2 B3u   1  4f3+        17.722335     1.000000
   27.2 B3u   1  4f1+        35.015400     1.000000
   28.2 B3u   1  4f3+        35.015400     1.000000
   29.2 B3u   1  6h1+         0.659214     1.000000
   30.2 B3u   1  6h3+         0.659214     1.000000
   31.2 B3u   1  6h5+         0.659214     1.000000
   32.2 B3u   1  6h1+         1.287272     1.000000
   33.2 B3u   1  6h3+         1.287272     1.000000
   34.2 B3u   1  6h5+         1.287272     1.000000
   35.2 B3u   1  6h1+         9.305375     1.000000
   36.2 B3u   1  6h3+         9.305375     1.000000
   37.2 B3u   1  6h5+         9.305375     1.000000
   38.2 B3u   1  6h1+        21.925241     1.000000
   39.2 B3u   1  6h3+        21.925241     1.000000
   40.2 B3u   1  6h5+        21.925241     1.000000
    1.3 B2u   1  2py         48.154282     0.012884   -0.003152
    2.3 B2u                  25.406431     0.097095   -0.023006
                             13.404555     0.178215   -0.042398
                              7.072308     0.265964   -0.067477
                              3.731384     0.312933   -0.082952
                              1.968696     0.230686   -0.066026
                              1.038693     0.080489    0.034468
                              0.548020     0.009085    0.209018
                              0.289138     0.001248    0.347179
                              0.152550    -0.000066    0.344806
                              0.080486     0.000129    0.181731
                              0.042465    -0.000029    0.036649
    3.3 B2u   1  2py          0.199855     1.000000
    4.3 B2u   1  2py          0.401583     1.000000
    5.3 B2u   1  2py          0.806931     1.000000
    6.3 B2u   1  2py          1.621427     1.000000
    7.3 B2u   1  2py          3.258053     1.000000
    8.3 B2u   1  2py          4.240737     1.000000
    9.3 B2u   1  2py          8.359964     1.000000
   10.3 B2u   1  2py         16.480390     1.000000
   11.3 B2u   1  2py         32.488568     1.000000
   12.3 B2u   1  2py         64.046241     1.000000
   13.3 B2u   1  4f1-         0.200245     1.000000
   14.3 B2u   1  4f3-         0.200245     1.000000
   15.3 B2u   1  4f1-         0.394747     1.000000
   16.3 B2u   1  4f3-         0.394747     1.000000
   17.3 B2u   1  4f1-         0.778173     1.000000
   18.3 B2u   1  4f3-         0.778173     1.000000
   19.3 B2u   1  4f1-         1.534027     1.000000
   20.3 B2u   1  4f3-         1.534027     1.000000
   21.3 B2u   1  4f1-         4.539883     1.000000
   22.3 B2u   1  4f3-         4.539883     1.000000
   23.3 B2u   1  4f1-         8.969801     1.000000
   24.3 B2u   1  4f3-         8.969801     1.000000
   25.3 B2u   1  4f1-        17.722335     1.000000
   26.3 B2u   1  4f3-        17.722335     1.000000
   27.3 B2u   1  4f1-        35.015400     1.000000
   28.3 B2u   1  4f3-        35.015400     1.000000
   29.3 B2u   1  6h1-         0.659214     1.000000
   30.3 B2u   1  6h3-         0.659214     1.000000
   31.3 B2u   1  6h5-         0.659214     1.000000
   32.3 B2u   1  6h1-         1.287272     1.000000
   33.3 B2u   1  6h3-         1.287272     1.000000
   34.3 B2u   1  6h5-         1.287272     1.000000
   35.3 B2u   1  6h1-         9.305375     1.000000
   36.3 B2u   1  6h3-         9.305375     1.000000
   37.3 B2u   1  6h5-         9.305375     1.000000
   38.3 B2u   1  6h1-        21.925241     1.000000
   39.3 B2u   1  6h3-        21.925241     1.000000
   40.3 B2u   1  6h5-        21.925241     1.000000
    1.4 B1g   1  3d2-         0.151555     1.000000
    2.4 B1g   1  3d2-         0.358006     1.000000
    3.4 B1g   1  3d2-         0.845689     1.000000
    4.4 B1g   1  3d2-         1.997705     1.000000
    5.4 B1g   1  3d2-         4.719018     1.000000
    6.4 B1g   1  3d2-         4.906275     1.000000
    7.4 B1g   1  3d2-         8.507005     1.000000
    8.4 B1g   1  3d2-        14.750321     1.000000
    9.4 B1g   1  3d2-        25.575626     1.000000
   10.4 B1g   1  3d2-        44.345655     1.000000
   11.4 B1g   1  5g2-         0.370461     1.000000
   12.4 B1g   1  5g4-         0.370461     1.000000
   13.4 B1g   1  5g2-         0.716028     1.000000
   14.4 B1g   1  5g4-         0.716028     1.000000
   15.4 B1g   1  5g2-         1.383943     1.000000
   16.4 B1g   1  5g4-         1.383943     1.000000
   17.4 B1g   1  5g2-         5.547503     1.000000
   18.4 B1g   1  5g4-         5.547503     1.000000
   19.4 B1g   1  5g2-        11.920918     1.000000
   20.4 B1g   1  5g4-        11.920918     1.000000
   21.4 B1g   1  5g2-        25.616623     1.000000
   22.4 B1g   1  5g4-        25.616623     1.000000
   23.4 B1g   1  7i2-         0.894033     1.000000
   24.4 B1g   1  7i6-         0.894033     1.000000
   25.4 B1g   1  7i4-         0.894033     1.000000
   26.4 B1g   1  7i2-        15.812746     1.000000
   27.4 B1g   1  7i6-        15.812746     1.000000
   28.4 B1g   1  7i4-        15.812746     1.000000
    1.5 B1u   1  2pz         48.154282     0.012884   -0.003152
    2.5 B1u                  25.406431     0.097095   -0.023006
                             13.404555     0.178215   -0.042398
                              7.072308     0.265964   -0.067477
                              3.731384     0.312933   -0.082952
                              1.968696     0.230686   -0.066026
                              1.038693     0.080489    0.034468
                              0.548020     0.009085    0.209018
                              0.289138     0.001248    0.347179
                              0.152550    -0.000066    0.344806
                              0.080486     0.000129    0.181731
                              0.042465    -0.000029    0.036649
    3.5 B1u   1  2pz          0.199855     1.000000
    4.5 B1u   1  2pz          0.401583     1.000000
    5.5 B1u   1  2pz          0.806931     1.000000
    6.5 B1u   1  2pz          1.621427     1.000000
    7.5 B1u   1  2pz          3.258053     1.000000
    8.5 B1u   1  2pz          4.240737     1.000000
    9.5 B1u   1  2pz          8.359964     1.000000
   10.5 B1u   1  2pz         16.480390     1.000000
   11.5 B1u   1  2pz         32.488568     1.000000
   12.5 B1u   1  2pz         64.046241     1.000000
   13.5 B1u   1  4f0          0.200245     1.000000
   14.5 B1u   1  4f2+         0.200245     1.000000
   15.5 B1u   1  4f0          0.394747     1.000000
   16.5 B1u   1  4f2+         0.394747     1.000000
   17.5 B1u   1  4f0          0.778173     1.000000
   18.5 B1u   1  4f2+         0.778173     1.000000
   19.5 B1u   1  4f0          1.534027     1.000000
   20.5 B1u   1  4f2+         1.534027     1.000000
   21.5 B1u   1  4f0          4.539883     1.000000
   22.5 B1u   1  4f2+         4.539883     1.000000
   23.5 B1u   1  4f0          8.969801     1.000000
   24.5 B1u   1  4f2+         8.969801     1.000000
   25.5 B1u   1  4f0         17.722335     1.000000
   26.5 B1u   1  4f2+        17.722335     1.000000
   27.5 B1u   1  4f0         35.015400     1.000000
   28.5 B1u   1  4f2+        35.015400     1.000000
   29.5 B1u   1  6h2+         0.659214     1.000000
   30.5 B1u   1  6h4+         0.659214     1.000000
   31.5 B1u   1  6h0          0.659214     1.000000
   32.5 B1u   1  6h2+         1.287272     1.000000
   33.5 B1u   1  6h4+         1.287272     1.000000
   34.5 B1u   1  6h0          1.287272     1.000000
   35.5 B1u   1  6h2+         9.305375     1.000000
   36.5 B1u   1  6h4+         9.305375     1.000000
   37.5 B1u   1  6h0          9.305375     1.000000
   38.5 B1u   1  6h2+        21.925241     1.000000
   39.5 B1u   1  6h4+        21.925241     1.000000
   40.5 B1u   1  6h0         21.925241     1.000000
    1.6 B2g   1  3d1+         0.151555     1.000000
    2.6 B2g   1  3d1+         0.358006     1.000000
    3.6 B2g   1  3d1+         0.845689     1.000000
    4.6 B2g   1  3d1+         1.997705     1.000000
    5.6 B2g   1  3d1+         4.719018     1.000000
    6.6 B2g   1  3d1+         4.906275     1.000000
    7.6 B2g   1  3d1+         8.507005     1.000000
    8.6 B2g   1  3d1+        14.750321     1.000000
    9.6 B2g   1  3d1+        25.575626     1.000000
   10.6 B2g   1  3d1+        44.345655     1.000000
   11.6 B2g   1  5g1+         0.370461     1.000000
   12.6 B2g   1  5g3+         0.370461     1.000000
   13.6 B2g   1  5g1+         0.716028     1.000000
   14.6 B2g   1  5g3+         0.716028     1.000000
   15.6 B2g   1  5g1+         1.383943     1.000000
   16.6 B2g   1  5g3+         1.383943     1.000000
   17.6 B2g   1  5g1+         5.547503     1.000000
   18.6 B2g   1  5g3+         5.547503     1.000000
   19.6 B2g   1  5g1+        11.920918     1.000000
   20.6 B2g   1  5g3+        11.920918     1.000000
   21.6 B2g   1  5g1+        25.616623     1.000000
   22.6 B2g   1  5g3+        25.616623     1.000000
   23.6 B2g   1  7i5+         0.894033     1.000000
   24.6 B2g   1  7i3+         0.894033     1.000000
   25.6 B2g   1  7i1+         0.894033     1.000000
   26.6 B2g   1  7i5+        15.812746     1.000000
   27.6 B2g   1  7i3+        15.812746     1.000000
   28.6 B2g   1  7i1+        15.812746     1.000000
    1.7 B3g   1  3d1-         0.151555     1.000000
    2.7 B3g   1  3d1-         0.358006     1.000000
    3.7 B3g   1  3d1-         0.845689     1.000000
    4.7 B3g   1  3d1-         1.997705     1.000000
    5.7 B3g   1  3d1-         4.719018     1.000000
    6.7 B3g   1  3d1-         4.906275     1.000000
    7.7 B3g   1  3d1-         8.507005     1.000000
    8.7 B3g   1  3d1-        14.750321     1.000000
    9.7 B3g   1  3d1-        25.575626     1.000000
   10.7 B3g   1  3d1-        44.345655     1.000000
   11.7 B3g   1  5g1-         0.370461     1.000000
   12.7 B3g   1  5g3-         0.370461     1.000000
   13.7 B3g   1  5g1-         0.716028     1.000000
   14.7 B3g   1  5g3-         0.716028     1.000000
   15.7 B3g   1  5g1-         1.383943     1.000000
   16.7 B3g   1  5g3-         1.383943     1.000000
   17.7 B3g   1  5g1-         5.547503     1.000000
   18.7 B3g   1  5g3-         5.547503     1.000000
   19.7 B3g   1  5g1-        11.920918     1.000000
   20.7 B3g   1  5g3-        11.920918     1.000000
   21.7 B3g   1  5g1-        25.616623     1.000000
   22.7 B3g   1  5g3-        25.616623     1.000000
   23.7 B3g   1  7i5-         0.894033     1.000000
   24.7 B3g   1  7i3-         0.894033     1.000000
   25.7 B3g   1  7i1-         0.894033     1.000000
   26.7 B3g   1  7i5-        15.812746     1.000000
   27.7 B3g   1  7i3-        15.812746     1.000000
   28.7 B3g   1  7i1-        15.812746     1.000000
    1.8 Au    1  4f2-         0.200245     1.000000
    2.8 Au    1  4f2-         0.394747     1.000000
    3.8 Au    1  4f2-         0.778173     1.000000
    4.8 Au    1  4f2-         1.534027     1.000000
    5.8 Au    1  4f2-         4.539883     1.000000
    6.8 Au    1  4f2-         8.969801     1.000000
    7.8 Au    1  4f2-        17.722335     1.000000
    8.8 Au    1  4f2-        35.015400     1.000000
    9.8 Au    1  6h4-         0.659214     1.000000
   10.8 Au    1  6h2-         0.659214     1.000000
   11.8 Au    1  6h4-         1.287272     1.000000
   12.8 Au    1  6h2-         1.287272     1.000000
   13.8 Au    1  6h4-         9.305375     1.000000
   14.8 Au    1  6h2-         9.305375     1.000000
   15.8 Au    1  6h4-        21.925241     1.000000
   16.8 Au    1  6h2-        21.925241     1.000000

 NUCLEAR CHARGE:                    5
 NUMBER OF PRIMITIVE AOS:         458
 NUMBER OF SYMMETRY AOS:          318
 NUMBER OF CONTRACTIONS:          278   (  58Ag  +  40B3u +  40B2u +  28B1g +  40B1u +  28B2g +  28B3g +  16Au  )
 NUMBER OF CORE ORBITALS:           0   (   0Ag  +   0B3u +   0B2u +   0B1g +   0B1u +   0B2g +   0B3g +   0Au  )
 NUMBER OF VALENCE ORBITALS:        4   (   1Ag  +   1B3u +   1B2u +   0B1g +   1B1u +   0B2g +   0B3g +   0Au  )


 NUCLEAR REPULSION ENERGY    0.00000000

 EXTRA SYMMETRY OF AOS IN SYMMETRY 1:   1 1 1 1 1 1 1 1 1 1   1 1 2 3 2 3 2 3 2 3   2 3 2 3 2 3 2 3 2 3   2 3 4 5 6 4 5 6 4 5
                                        6 4 5 6 4 5 6 4 5 6   7 8 910 7 8 910
 EXTRA SYMMETRY OF AOS IN SYMMETRY 2:   1 1 1 1 1 1 1 1 1 1   1 1 2 3 2 3 2 3 2 3   2 3 2 3 2 3 2 3 4 5   6 4 5 6 4 5 6 4 5 6
 EXTRA SYMMETRY OF AOS IN SYMMETRY 3:   1 1 1 1 1 1 1 1 1 1   1 1 2 3 2 3 2 3 2 3   2 3 2 3 2 3 2 3 4 5   6 4 5 6 4 5 6 4 5 6
 EXTRA SYMMETRY OF AOS IN SYMMETRY 4:   1 1 1 1 1 1 1 1 1 1   2 3 2 3 2 3 2 3 2 3   2 3 4 5 6 4 5 6
 EXTRA SYMMETRY OF AOS IN SYMMETRY 5:   1 1 1 1 1 1 1 1 1 1   1 1 2 3 2 3 2 3 2 3   2 3 2 3 2 3 2 3 4 5   6 4 5 6 4 5 6 4 5 6
 EXTRA SYMMETRY OF AOS IN SYMMETRY 6:   1 1 1 1 1 1 1 1 1 1   2 3 2 3 2 3 2 3 2 3   2 3 4 5 6 4 5 6
 EXTRA SYMMETRY OF AOS IN SYMMETRY 7:   1 1 1 1 1 1 1 1 1 1   2 3 2 3 2 3 2 3 2 3   2 3 4 5 6 4 5 6
 EXTRA SYMMETRY OF AOS IN SYMMETRY 8:   1 1 1 1 1 1 1 1 2 3   2 3 2 3 2 3

 Eigenvalues of metric

         1 0.349E-06 0.393E-05 0.393E-05 0.926E-05 0.583E-04 0.978E-03 0.196E-02 0.196E-02
         2 0.320E-06 0.109E-03 0.205E-02 0.505E-02 0.129E-01 0.197E-01 0.197E-01 0.340E-01
         3 0.320E-06 0.109E-03 0.205E-02 0.505E-02 0.129E-01 0.197E-01 0.197E-01 0.340E-01
         4 0.393E-05 0.196E-02 0.189E-01 0.500E-01 0.797E-01 0.797E-01 0.153E+00 0.153E+00
         5 0.320E-06 0.109E-03 0.205E-02 0.505E-02 0.129E-01 0.197E-01 0.197E-01 0.340E-01
         6 0.393E-05 0.196E-02 0.189E-01 0.500E-01 0.797E-01 0.797E-01 0.153E+00 0.153E+00
         7 0.393E-05 0.196E-02 0.189E-01 0.500E-01 0.797E-01 0.797E-01 0.153E+00 0.153E+00
         8 0.197E-01 0.389E-01 0.153E+00 0.296E+00 0.296E+00 0.296E+00 0.443E+00 0.443E+00


 Contracted 2-electron integrals neglected if value below      1.0D-13
 AO integral compression algorithm  1   Integral accuracy      1.0D-13

     627.573 MB (compressed) written to integral file ( 52.1%)


 NUMBER OF SORTED TWO-ELECTRON INTEGRALS:   95770403.     BUFFER LENGTH:  32768
 NUMBER OF SEGMENTS:   6  SEGMENT LENGTH:   15998880      RECORD LENGTH: 524288

 Memory used in sort:      16.56 MW

 SORT1 READ   150490528. AND WROTE    63726556. INTEGRALS IN    185 RECORDS. CPU TIME:     4.49 SEC, REAL TIME:    12.00 SEC
 SORT2 READ    63726556. AND WROTE    95770403. INTEGRALS IN   2394 RECORDS. CPU TIME:     1.91 SEC, REAL TIME:     3.41 SEC

 FILE SIZES:   FILE 1:   649.2 MBYTE,  FILE 4:   776.0 MBYTE,   TOTAL:   1425.2 MBYTE

 OPERATOR DM      FOR CENTER  0  COORDINATES:    0.000000    0.000000    0.000000
 OPERATOR EKIN    FOR CENTER  0  COORDINATES:    0.000000    0.000000    0.000000
 OPERATOR POT     FOR CENTER  0  COORDINATES:    0.000000    0.000000    0.000000


 **********************************************************************************************************************************
 DATASETS  * FILE   NREC   LENGTH (MB)   RECORD NAMES
              1      20      420.59       500      610      700      900      950      970     1000      129      960     1100   
                                          VAR    BASINP    GEOM    SYMINP    ZMAT    AOBASIS   BASIS     P2S    ABASIS      S 
                                         1400     1410     1420     1200     1210     1080     1600     1650     1300     1700   
                                         EKIN       V       ECP      H0       H01     AOSYM     SMH    MOLCAS    ERIS     OPER   

 PROGRAMS   *        TOTAL       INT
 CPU TIMES  *        38.61     38.49
 REAL TIME  *        91.49 SEC
 DISK USED  *         1.43 GB      
 **********************************************************************************************************************************


 PROGRAM * RHF-SCF (OPEN SHELL)       Authors: W. Meyer, H.-J. Werner


 NUMBER OF ELECTRONS:       8+    5-    SPACE SYMMETRY=8    SPIN SYMMETRY: Quartet 
 CONVERGENCE THRESHOLDS:    1.00E-05 (Density)    1.00E-07 (Energy)
 MAX. NUMBER OF ITERATIONS:       60
 INTERPOLATION TYPE:            DIIS
 INTERPOLATION STEPS:              2 (START)      1 (STEP)
 LEVEL SHIFTS:                 -0.60 (CLOSED) -0.30 (OPEN) 

 Number of closed-shell orbitals:    5 (   2   1   1   0   1   0   0   0 )
 Number of open-shell orbitals:      3 (   0   1   1   0   1   0   0   0 )



   Atom=P  basis=ECP10MWB_GUESS    lmin=0  lmax=1

 Orbital guess generated from atomic densities. Full valence occupancy:    1   1   1   0   1   0   0   0


 Molecular orbital dump at record        2100.2

 ITERATION    DDIFF          GRAD             ENERGY        2-EL.EN.            DIPOLE MOMENTS         DIIS   ORB.
    1      0.000D+00      0.000D+00      -109.21584379    222.330658    0.00000    0.00000    0.00000    0    start
    2      0.000D+00      0.400D+00      -122.64845871    121.389277    0.00000    0.00000    0.00000    1    diag,B
    3      0.173D+01      0.163D+00      -125.10777088    145.428183    0.00000    0.00000    0.00000    2    diag,B
    4      0.135D+01      0.172D-01      -125.23055373    148.261130    0.00000    0.00000    0.00000    3    diag,B
    5      0.219D+00      0.489D-02      -125.25392844    148.904305    0.00000    0.00000    0.00000    4    diag,B
    6      0.908D-01      0.173D-02      -125.25855961    149.233099    0.00000    0.00000    0.00000    5    diag,B
    7      0.623D-01      0.366D-03      -125.25869499    149.277780    0.00000    0.00000    0.00000    6    fixocc
    8      0.128D-01      0.109D-03      -125.25870528    149.265017    0.00000    0.00000    0.00000    7    diag,B
    9      0.742D-03      0.299D-04      -125.25870611    149.257718    0.00000    0.00000    0.00000    8    diag,B
   10      0.381D-02      0.394D-05      -125.25870613    149.257813    0.00000    0.00000    0.00000    9    orth
   11      0.126D-02      0.692D-06      -125.25870613    149.258038    0.00000    0.00000    0.00000    9    diag,B
   12      0.228D-03      0.707D-07      -125.25870613    149.258066    0.00000    0.00000    0.00000    9    diag,B
   13      0.404D-05      0.813D-08      -125.25870613    149.258067    0.00000    0.00000    0.00000    0    orth

 Final alpha occupancy:   2   2   2   0   2   0   0   0
 Final beta  occupancy:   2   1   1   0   1   0   0   0

 !RHF STATE 1.8 Energy               -125.258706130945
 Nuclear energy                         0.00000000
 One-electron energy                 -199.88773978
 Two-electron energy                   74.62903365
 Virial quotient                       -1.27363311
 !RHF STATE 1.8 Dipole moment           0.00000000     0.00000000     0.00000000
 Dipole moment /Debye                   0.00000000     0.00000000     0.00000000
 

 !RHF expec          <1.8|EKIN|1.8>    98.347558270226
 
 !RHF expec           <1.8|POT|1.8>   -23.457387377077

 ELECTRON ORBITALS
 =================


   Orb  Occ    Energy  Couls-En    Coefficients

                                   1 1s      1 1s      1 1s      1 1s      1 1s      1 1s      1 1s      1 1s      1 1s      1 1s   
                                   1 1s      1 1s      1 3d0     1 3d2+    1 3d0     1 3d2+    1 3d0     1 3d2+    1 3d0     1 3d2+ 
                                   1 3d0     1 3d2+    1 3d0     1 3d2+    1 3d0     1 3d2+    1 3d0     1 3d2+    1 3d0     1 3d2+ 
                                   1 3d0     1 3d2+    1 5g0     1 5g4+    1 5g2+    1 5g0     1 5g4+    1 5g2+    1 5g0     1 5g4+ 
                                   1 5g2+    1 5g0     1 5g4+    1 5g2+    1 5g0     1 5g4+    1 5g2+    1 5g0     1 5g4+    1 5g2+ 
                                   1 7i6+    1 7i4+    1 7i2+    1 7i0     1 7i6+    1 7i4+    1 7i2+    1 7i0  

   1.1   2    -7.5350  -29.2869  1.016590  0.061518 -0.010705 -0.030036 -0.030671 -0.002375  0.005200  0.008638  0.002521  0.000667
                                -0.000448 -0.000137 -0.000000  0.000000  0.000000 -0.000000 -0.000000 -0.000000  0.000000 -0.000000
                                 0.000000  0.000000 -0.000000 -0.000000  0.000000  0.000000  0.000000 -0.000000 -0.000000  0.000000
                                 0.000000 -0.000000 -0.000000 -0.000000 -0.000000  0.000000  0.000000  0.000000 -0.000000  0.000000
                                 0.000000  0.000000 -0.000000 -0.000000 -0.000000  0.000000  0.000000  0.000000 -0.000000 -0.000000
                                -0.000000 -0.000000 -0.000000  0.000000  0.000000  0.000000  0.000000  0.000000

   2.1   2    -0.6996   -7.9194 -0.029382  0.905614  0.016291  0.046503  0.046168  0.005648 -0.012284 -0.006722 -0.004035  0.000493
                                -0.000481  0.000145 -0.000000  0.000000  0.000000  0.000000 -0.000000 -0.000000  0.000000 -0.000000
                                -0.000000  0.000000  0.000000 -0.000000 -0.000000  0.000000  0.000000 -0.000000 -0.000000  0.000000
                                 0.000000  0.000000 -0.000000 -0.000000  0.000000  0.000000  0.000000  0.000000 -0.000000  0.000000
                                 0.000000 -0.000000 -0.000000 -0.000000  0.000000  0.000000  0.000000 -0.000000 -0.000000  0.000000
                                -0.000000 -0.000000  0.000000  0.000000 -0.000000  0.000000  0.000000 -0.000000

                                   1 2px     1 2px     1 2px     1 2px     1 2px     1 2px     1 2px     1 2px     1 2px     1 2px  
                                   1 2px     1 2px     1 4f1+    1 4f3+    1 4f1+    1 4f3+    1 4f1+    1 4f3+    1 4f1+    1 4f3+ 
                                   1 4f1+    1 4f3+    1 4f1+    1 4f3+    1 4f1+    1 4f3+    1 4f1+    1 4f3+    1 6h1+    1 6h3+ 
                                   1 6h5+    1 6h1+    1 6h3+    1 6h5+    1 6h1+    1 6h3+    1 6h5+    1 6h1+    1 6h3+    1 6h5+ 


   1.2   2    -5.4978  -26.1359  1.003644  0.000067 -0.000107  0.000125 -0.000399 -0.000412 -0.001714  0.000110 -0.001267 -0.000443
                                -0.000292  0.000013 -0.000000  0.000000  0.000000 -0.000000 -0.000000  0.000000  0.000000 -0.000000
                                -0.000000 -0.000000  0.000000  0.000000 -0.000000 -0.000000  0.000000  0.000000  0.000000 -0.000000
                                 0.000000 -0.000000 -0.000000  0.000000  0.000000  0.000000 -0.000000 -0.000000 -0.000000  0.000000

   2.2   +    -0.3912   -6.4298 -0.016700 -1.000043  0.000045  0.000068  0.000646  0.003641  0.003645  0.003532  0.004572  0.002653
                                 0.001063  0.000021 -0.000000 -0.000000 -0.000000  0.000000  0.000000 -0.000000 -0.000000  0.000000
                                 0.000000 -0.000000 -0.000000  0.000000  0.000000 -0.000000 -0.000000 -0.000000 -0.000000  0.000000
                                -0.000000  0.000000 -0.000000  0.000000  0.000000  0.000000 -0.000000 -0.000000 -0.000000  0.000000

                                   1 2py     1 2py     1 2py     1 2py     1 2py     1 2py     1 2py     1 2py     1 2py     1 2py  
                                   1 2py     1 2py     1 4f1-    1 4f3-    1 4f1-    1 4f3-    1 4f1-    1 4f3-    1 4f1-    1 4f3- 
                                   1 4f1-    1 4f3-    1 4f1-    1 4f3-    1 4f1-    1 4f3-    1 4f1-    1 4f3-    1 6h1-    1 6h3- 
                                   1 6h5-    1 6h1-    1 6h3-    1 6h5-    1 6h1-    1 6h3-    1 6h5-    1 6h1-    1 6h3-    1 6h5- 


   1.3   2    -5.4978  -26.1359  1.003644  0.000067 -0.000107  0.000125 -0.000399 -0.000412 -0.001714  0.000110 -0.001267 -0.000443
                                -0.000292  0.000013 -0.000000 -0.000000  0.000000  0.000000 -0.000000 -0.000000  0.000000  0.000000
                                -0.000000 -0.000000  0.000000  0.000000 -0.000000 -0.000000  0.000000  0.000000  0.000000  0.000000
                                 0.000000 -0.000000 -0.000000 -0.000000  0.000000 -0.000000 -0.000000  0.000000  0.000000  0.000000

   2.3   +    -0.3912   -6.4298 -0.016700 -1.000043  0.000045  0.000068  0.000646  0.003641  0.003645  0.003532  0.004572  0.002653
                                 0.001063  0.000021 -0.000000  0.000000 -0.000000 -0.000000  0.000000  0.000000 -0.000000 -0.000000
                                 0.000000  0.000000 -0.000000 -0.000000  0.000000  0.000000 -0.000000 -0.000000 -0.000000 -0.000000
                                 0.000000 -0.000000 -0.000000 -0.000000 -0.000000 -0.000000  0.000000  0.000000  0.000000 -0.000000

                                   1 2pz     1 2pz     1 2pz     1 2pz     1 2pz     1 2pz     1 2pz     1 2pz     1 2pz     1 2pz  
                                   1 2pz     1 2pz     1 4f0     1 4f2+    1 4f0     1 4f2+    1 4f0     1 4f2+    1 4f0     1 4f2+ 
                                   1 4f0     1 4f2+    1 4f0     1 4f2+    1 4f0     1 4f2+    1 4f0     1 4f2+    1 6h2+    1 6h4+ 
                                   1 6h0     1 6h2+    1 6h4+    1 6h0     1 6h2+    1 6h4+    1 6h0     1 6h2+    1 6h4+    1 6h0  


   1.5   2    -5.4978  -26.1359  1.003644  0.000067 -0.000107  0.000125 -0.000399 -0.000412 -0.001714  0.000110 -0.001267 -0.000443
                                -0.000292  0.000013 -0.000000 -0.000000  0.000000  0.000000 -0.000000 -0.000000  0.000000  0.000000
                                -0.000000 -0.000000  0.000000  0.000000 -0.000000 -0.000000  0.000000  0.000000  0.000000  0.000000
                                 0.000000 -0.000000 -0.000000 -0.000000 -0.000000 -0.000000  0.000000  0.000000  0.000000  0.000000

   2.5   +    -0.3912   -6.4298 -0.016700 -1.000043  0.000045  0.000068  0.000646  0.003641  0.003645  0.003532  0.004572  0.002653
                                 0.001063  0.000021 -0.000000  0.000000  0.000000 -0.000000  0.000000  0.000000 -0.000000  0.000000
                                 0.000000 -0.000000 -0.000000  0.000000  0.000000 -0.000000 -0.000000  0.000000 -0.000000 -0.000000
                                -0.000000  0.000000  0.000000  0.000000  0.000000  0.000000  0.000000 -0.000000 -0.000000 -0.000000

 HOMO      2.2    -0.391237 =     -10.6461eV
 LUMO      3.1     0.152718 =       4.1557eV
 LUMO-HOMO         0.543955 =      14.8018eV


 **********************************************************************************************************************************
 DATASETS  * FILE   NREC   LENGTH (MB)   RECORD NAMES
              1      20      420.59       500      610      700      900      950      970     1000      129      960     1100   
                                          VAR    BASINP    GEOM    SYMINP    ZMAT    AOBASIS   BASIS     P2S    ABASIS      S 
                                         1400     1410     1420     1200     1210     1080     1600     1650     1300     1700   
                                         EKIN       V       ECP      H0       H01     AOSYM     SMH    MOLCAS    ERIS     OPER   

              2       4        3.11       700     1000      520     2100   
                                         GEOM     BASIS   MCVARS     RHF  

 PROGRAMS   *        TOTAL        HF       INT
 CPU TIMES  *        42.18      3.56     38.49
 REAL TIME  *        95.71 SEC
 DISK USED  *         1.43 GB      
 **********************************************************************************************************************************
 SETTING SCF(I)         =      -125.25870613  AU                              
 SETTING _CC_NORM_MAX   =         2.00000000                                  


 PROGRAM * CI (Multireference internally contracted CI)     Authors: H.-J. Werner, P.J. Knowles, 1987


 Convergence thresholds:  THRVAR = 1.00D-08  THRDEN = 1.00D-06

 Number of optimized states:  1  Roots:   1
 Number of reference states:  1  Roots:   1

 Reference symmetry:                   8   Quartet 
 Number of electrons:                 13
 Maximum number of shells:             3
 Maximum number of spin couplings:    14

 Reference space:        1 conf        1 CSFs
 N elec internal:       46 conf       46 CSFs
 N-1 el internal:       83 conf      188 CSFs
 N-2 el internal:       33 conf      223 CSFs

 Number of electrons in valence space:                     13
 Maximum number of open shell orbitals in reference space:  3
 Maximum number of open shell orbitals in internal spaces:  7


 Number of closed-shell orbitals:   5 (   2   1   1   0   1   0   0   0 )
 Number of active  orbitals:        3 (   0   1   1   0   1   0   0   0 )
 Number of external orbitals:     270 (  56  38  38  28  38  28  28  16 )

 Molecular orbitals read from record     2100.2  Type=RHF/CANONICAL (state 1.8)

 Integral transformation finished. Total CPU:   0.86 sec, npass=  1  Memory used:   0.50 MW

 Number of p-space configurations:   1

 Reference wavefunction optimized for reference space (refopt=1)

 State     Reference Energy 
   1        -125.25870613

 Number of blocks in overlap matrix:    58   Smallest eigenvalue:  0.10D+01
 Number of N-2 electron functions:      58
 Number of N-1 electron functions:     188

 Number of internal configurations:                    7
 Number of singly external configurations:          6724
 Number of doubly external configurations:        271549
 Total number of contracted configurations:       278280
 Total number of uncontracted configurations:    1047417

 Diagonal Coupling coefficients finished.               Storage:   13027 words, CPU-Time:      0.00 seconds.
 Energy denominators for pairs finished in 1 passes.    Storage:  164503 words, CPU-time:      0.00 seconds.

  ITER. STATE  ROOT     SQ.NORM     CORR.ENERGY   TOTAL ENERGY   ENERGY CHANGE       DEN1      VAR(S)    VAR(P)      TIME
    1     1     1     1.00000000     0.00000000  -125.25870613    -0.00000000    -0.46021623  0.48D-01  0.43D-01     0.91
    2     1     1     1.07288599    -0.41246443  -125.67117056    -0.41246443    -0.00912333  0.27D-02  0.11D-02     2.91
    3     1     1     1.05296641    -0.42127615  -125.67998228    -0.00881172    -0.00009552  0.93D-05  0.13D-04     4.79
    4     1     1     1.05233430    -0.42137368  -125.68007981    -0.00009752    -0.00000203  0.39D-06  0.33D-06     6.65
    5     1     1     1.05236676    -0.42137575  -125.68008188    -0.00000207    -0.00000005  0.81D-08  0.85D-08     8.52
    6     1     1     1.05236250    -0.42137580  -125.68008193    -0.00000005    -0.00000000  0.17D-09  0.21D-09    10.39


 =====================================
 Analysis of CPU times by interactions
 =====================================

       I      S      P

 I   0.0%
 S   0.0%   2.5%
 P   0.0%   0.5%   4.9%

 Initialization:   8.7%
 Other:           83.4%

 Total CPU:       10.4 seconds
 =====================================



 Reference coefficients greater than 0.0500000
 =============================================
 222/2/2/           0.9747984



 RESULTS FOR STATE 1.8
 =====================

 Coefficient of reference function:   C(0) = 0.97479842 (fixed)   0.97479842 (relaxed)

 Energy contributions of configuration classes

 CLASS          SQ.NORM        ECORR1        ECORR2
 +++++++++++++++++++++++++++++++++++++++++++++++++++
 Internals    0.00001151   -0.00009927   -0.00009894
 Singles      0.02234053   -0.04596020   -0.05261702
 Pairs        0.03002257   -0.37531633   -0.36865985
 Total        1.05237462   -0.42137580   -0.42137580
 +++++++++++++++++++++++++++++++++++++++++++++++++++


 Reference energy                    -125.25870613
 Nuclear energy                         0.00000000
 Kinetic energy                        98.68736394
 One electron energy                 -199.66415537
 Two electron energy                   73.98407344
 Virial quotient                       -1.27351747
 Correlation energy                    -0.42137580
 !CI(SD) STATE 1.8 Energy            -125.680081930507

 Properties without orbital relaxation:

 !CI(SD) STATE 1.8 Dipole moment        0.00000000     0.00000000     0.00000000
 Dipole moment /Debye                   0.00000000     0.00000000     0.00000000

 Cluster corrected energies          -125.70215133 (Davidson, fixed reference)
 Cluster corrected energies          -125.70215133 (Davidson, relaxed reference)

 Cluster corrected energies          -125.69830175 (Pople, fixed reference)
 Cluster corrected energies          -125.69830175 (Pople, relaxed reference)

 

 !CI(SD) expec       <1.8|EKIN|1.8>    98.687363939445
 
 !CI(SD) expec        <1.8|POT|1.8>   -23.467399120232


 **********************************************************************************************************************************
 DATASETS  * FILE   NREC   LENGTH (MB)   RECORD NAMES
              1      21      425.25       500      610      700      900      950      970     1000      129      960     1100   
                                          VAR    BASINP    GEOM    SYMINP    ZMAT    AOBASIS   BASIS     P2S    ABASIS      S 
                                         1400     1410     1420     1200     1210     1080     1600     1650     1300     1700   
                                         EKIN       V       ECP      H0       H01     AOSYM     SMH    MOLCAS    ERIS     OPER   
                                         1380   
                                         JKOP   

              2       4        3.11       700     1000      520     2100   
                                         GEOM     BASIS   MCVARS     RHF  

 PROGRAMS   *        TOTAL        CI        HF       INT
 CPU TIMES  *        52.61     10.43      3.56     38.49
 REAL TIME  *       108.55 SEC
 DISK USED  *         1.43 GB      
 **********************************************************************************************************************************
 SETTING POSTHF(I)      =      -125.68008193  AU                              
                                                                                                                                                                                                                                                                

         SCF            POSTHF       EKIN           POT
    -125.2587061   -125.6800819   98.68736394   -23.46739912
                                                  

 CI/USERDEF energy=   -125.680081930507

        CI              HF-SCF  
   -125.68008193   -125.25870613
 **********************************************************************************************************************************
 Molpro calculation terminated
 Variable memory released
