TACC:  Starting up job 2812548 
TACC:  Starting parallel tasks... 
  Input file(s): Ni.log.qmc.in-wfj.xml 

=====================================================
                    QMCPACK 3.6.0

       (c) Copyright 2003-  QMCPACK developers

                    Please cite:
 J. Kim et al. J. Phys. Cond. Mat. 30 195901 (2018)
      https://doi.org/10.1088/1361-648X/aab9c3

  Git branch: develop
  Last git commit: 8025d469c3748fa6a35dc38bfa5b192a28e9e66e
  Last git commit date: Mon Jan 14 15:08:34 2019 -0600
  Last git commit subject: Merge pull request #1314 from prckent/update_citations
=====================================================
  Global options 

  MPI Nodes             = 1024
  MPI Nodes per group   = 1024
  MPI Group ID          = 0
  OMP 1st level threads = 1
  OMP nested threading disabled or only 1 thread on the 2nd level

  Precision used in this calculation, see definitions in the manual:
  Base precision      = double
  Full precision      = double

  Structure-of-arrays (SoA) optimization enabled

  Input XML = Ni.log.qmc.in-wfj.xml

  Project = Ni.log
  date    = 2019-01-23 16:16:58 CST
  host    = c455-003.stampede2.tacc.utexas.edu

 Random Number
 -------------
  Offset for the random number seeds based on time: 986

  Range of prime numbers to use as seeds over processors and threads = 7817-17489


 Particle Set 
 ------------
  Name: ion0
  All the species have the same mass 1
  Particle set size: 1

 Particle Set 
 ------------
  Name: e
  All the species have the same mass 1
  Particle set size: 18

 Wavefunction setup: 
 ------------------- 
  Name: psi0
  LCAO: SoaAtomicBasisSet<MultiQuintic,1>

  Distance table for similar particles (A-A):
    source/target: e
    Using structure-of-arrays (SoA) data layout
    Distance computations use open boundary conditions in 3D.


  Distance table for dissimilar particles (A-B):
    source: ion0  target: e
    Using structure-of-arrays (SoA) data layout
    Distance computations use open boundary conditions in 3D.

Reading BasisSet from HDF5 file:Ni.log.h5
<input node="atomicBasisSet" name="gaussian" expandYlm="pyscf" angular="spherical" elementType="Ni" normalized="no" type="Numerical" expM="0" />
  AO BasisSet for Ni
   Spherical Harmonics contain (-1)^m factor
   Angular momentum m expanded as -l, ... ,l, with the exception of L=1 (1,-1,0)
   Grid is created by the input paremters in h5
    Using log grid ri = 1e-06 rf = 100 npts = 1001
   R(n,l,m,s) 0 0 0 0
   R(n,l,m,s) 1 0 0 0
   R(n,l,m,s) 2 0 0 0
   R(n,l,m,s) 3 0 0 0
   R(n,l,m,s) 4 0 0 0
   R(n,l,m,s) 5 0 0 0
   R(n,l,m,s) 6 0 0 0
   R(n,l,m,s) 7 1 0 0
   R(n,l,m,s) 8 1 0 0
   R(n,l,m,s) 9 1 0 0
   R(n,l,m,s) 10 1 0 0
   R(n,l,m,s) 11 1 0 0
   R(n,l,m,s) 12 1 0 0
   R(n,l,m,s) 13 1 0 0
   R(n,l,m,s) 14 2 0 0
   R(n,l,m,s) 15 2 0 0
   R(n,l,m,s) 16 2 0 0
   R(n,l,m,s) 17 2 0 0
   R(n,l,m,s) 18 2 0 0
   R(n,l,m,s) 19 2 0 0
   R(n,l,m,s) 20 3 0 0
   R(n,l,m,s) 21 3 0 0
   R(n,l,m,s) 22 3 0 0
   R(n,l,m,s) 23 3 0 0
   R(n,l,m,s) 24 4 0 0
   R(n,l,m,s) 25 4 0 0
   R(n,l,m,s) 26 4 0 0
Expanding Ylm as L=1 as (1,-1,0) and L>1 as -l,-l+1,...,l-1,l
   Adding 1 spherical orbitals
   Adding 1 spherical orbitals
   Adding 1 spherical orbitals
   Adding 1 spherical orbitals
   Adding 1 spherical orbitals
   Adding 1 spherical orbitals
   Adding 1 spherical orbitals
   Adding 3 spherical orbitals
   Adding 3 spherical orbitals
   Adding 3 spherical orbitals
   Adding 3 spherical orbitals
   Adding 3 spherical orbitals
   Adding 3 spherical orbitals
   Adding 3 spherical orbitals
   Adding 5 spherical orbitals
   Adding 5 spherical orbitals
   Adding 5 spherical orbitals
   Adding 5 spherical orbitals
   Adding 5 spherical orbitals
   Adding 5 spherical orbitals
   Adding 7 spherical orbitals
   Adding 7 spherical orbitals
   Adding 7 spherical orbitals
   Adding 7 spherical orbitals
   Adding 9 spherical orbitals
   Adding 9 spherical orbitals
   Adding 9 spherical orbitals
   Maximum Angular Momentum  = 4
   Number of Radial functors = 27
   Basis size                = 113

  Created SPOSet builder named 'LCAOBSet' of type molecularorbital
Reuse SPOSetBuilder "LCAOBSet" type MolecularOrbital
  Building SPOSet '' with '' basis set.
Reuse SPOSetBuilder "LCAOBSet" type MolecularOrbital
  Building SPOSet '' with '' basis set.
  Creating a determinant updet group=0 sposet=updet
  Reusing a SPO set updet
Using DiracDeterminant
Using rank-1 Sherman-Morrison Fahy update

  Creating a determinant downdet group=1 sposet=downdet
  Reusing a SPO set downdet
Using DiracDeterminant
Using rank-1 Sherman-Morrison Fahy update

  FermionWF = SlaterDet
  RadialJastrowBuilder adds a functor with cusp = -0.25
 size = 10 parameters 
 cusp = -0.25
 rcut = 12.1
Parameter     Name      Value
uu_0 0.190373 1 1  ON 0
uu_1 0.0413608 1 1  ON 1
uu_2 -0.0157098 1 1  ON 2
uu_3 -0.0428736 1 1  ON 3
uu_4 -0.0529778 1 1  ON 4
uu_5 -0.0582705 1 1  ON 5
uu_6 -0.0486989 1 1  ON 6
uu_7 -0.0170501 1 1  ON 7
uu_8 0.0100904 1 1  ON 8
uu_9 -0.000374558 1 1  ON 9
  RadialJastrowBuilder adds a functor with cusp = -0.5
 size = 10 parameters 
 cusp = -0.5
 rcut = 12.1
Parameter     Name      Value
ud_0 0.233954 1 1  ON 0
ud_1 0.0835496 1 1  ON 1
ud_2 0.00419456 1 1  ON 2
ud_3 -0.0226196 1 1  ON 3
ud_4 -0.044687 1 1  ON 4
ud_5 -0.0479337 1 1  ON 5
ud_6 -0.0472278 1 1  ON 6
ud_7 -0.0191395 1 1  ON 7
ud_8 -0.00385324 1 1  ON 8
ud_9 -0.0124625 1 1  ON 9
 size = 10 parameters 
 cusp = 0
 rcut = 12.1
Parameter     Name      Value
eNi_0 -2.28757 1 1  ON 0
eNi_1 -0.882341 1 1  ON 1
eNi_2 0.00684066 1 1  ON 2
eNi_3 0.47334 1 1  ON 3
eNi_4 0.745751 1 1  ON 4
eNi_5 0.851361 1 1  ON 5
eNi_6 0.73677 1 1  ON 6
eNi_7 0.322619 1 1  ON 7
eNi_8 0.0405288 1 1  ON 8
eNi_9 -0.00342228 1 1  ON 9
Expected 26 parameters, but found 0 in PolynomialFunctor3D.
Parameter     Name      Value
uuNi_0 0 1 1  ON 0
uuNi_1 0 1 1  ON 1
uuNi_2 0 1 1  ON 2
uuNi_3 0 1 1  ON 3
uuNi_4 0 1 1  ON 4
uuNi_5 0 1 1  ON 5
uuNi_6 0 1 1  ON 6
uuNi_7 0 1 1  ON 7
uuNi_8 0 1 1  ON 8
uuNi_9 0 1 1  ON 9
uuNi_10 0 1 1  ON 10
uuNi_11 0 1 1  ON 11
uuNi_12 0 1 1  ON 12
uuNi_13 0 1 1  ON 13
uuNi_14 0 1 1  ON 14
uuNi_15 0 1 1  ON 15
uuNi_16 0 1 1  ON 16
uuNi_17 0 1 1  ON 17
uuNi_18 0 1 1  ON 18
uuNi_19 0 1 1  ON 19
uuNi_20 0 1 1  ON 20
uuNi_21 0 1 1  ON 21
uuNi_22 0 1 1  ON 22
uuNi_23 0 1 1  ON 23
uuNi_24 0 1 1  ON 24
uuNi_25 0 1 1  ON 25
Expected 26 parameters, but found 0 in PolynomialFunctor3D.
Parameter     Name      Value
udNi_0 0 1 1  ON 0
udNi_1 0 1 1  ON 1
udNi_2 0 1 1  ON 2
udNi_3 0 1 1  ON 3
udNi_4 0 1 1  ON 4
udNi_5 0 1 1  ON 5
udNi_6 0 1 1  ON 6
udNi_7 0 1 1  ON 7
udNi_8 0 1 1  ON 8
udNi_9 0 1 1  ON 9
udNi_10 0 1 1  ON 10
udNi_11 0 1 1  ON 11
udNi_12 0 1 1  ON 12
udNi_13 0 1 1  ON 13
udNi_14 0 1 1  ON 14
udNi_15 0 1 1  ON 15
udNi_16 0 1 1  ON 16
udNi_17 0 1 1  ON 17
udNi_18 0 1 1  ON 18
udNi_19 0 1 1  ON 19
udNi_20 0 1 1  ON 20
udNi_21 0 1 1  ON 21
udNi_22 0 1 1  ON 22
udNi_23 0 1 1  ON 23
udNi_24 0 1 1  ON 24
udNi_25 0 1 1  ON 25
  QMCHamiltonian::addOperator Kinetic to H, physical Hamiltonian 
  QMCHamiltonian::addOperator ElecElec to H, physical Hamiltonian 
QMCHamiltonian::addOperatorType added type coulomb named ElecElec
  CoulombAA for ion0 is not created.  Number of particles == 1 and nonPeriodic

  ECPotential builder for pseudopotential 

  Adding pseudopotential for Ni
   Linear grid  ri=0 rf=10 npts = 10001
    ECPComponentBuilder::buildSemiLocalAndLocal 
    Assuming Hartree unit
   Number of angular momentum channels 3
   Maximum angular momentum channel 2
   Creating a Linear Grid Rmax=1.145
  Using global grid with delta = 0.001
   Making L=2 a local potential with a radial cutoff of 9.999
    Non-local pseudopotential parameters
    Maximum angular mementum = 1
    Number of non-local channels = 2
       l(0)=0
       l(1)=1
    Cutoff radius = 1.145
    Spherical grids and weights: 
                        1                 0                 0       0.08333333333
                       -1   1.224646799e-16                 0       0.08333333333
             0.4472135955       0.894427191                 0       0.08333333333
            -0.4472135955      0.7236067977      0.5257311121       0.08333333333
             0.4472135955      0.2763932023      0.8506508084       0.08333333333
            -0.4472135955     -0.2763932023      0.8506508084       0.08333333333
             0.4472135955     -0.7236067977      0.5257311121       0.08333333333
            -0.4472135955      -0.894427191   1.095357397e-16       0.08333333333
             0.4472135955     -0.7236067977     -0.5257311121       0.08333333333
            -0.4472135955     -0.2763932023     -0.8506508084       0.08333333333
             0.4472135955      0.2763932023     -0.8506508084       0.08333333333
            -0.4472135955      0.7236067977     -0.5257311121       0.08333333333
    Maximum cutoff radius 1.145
  QMCHamiltonian::addOperator LocalECP to H, physical Hamiltonian 

  Using NonLocalECP potential 
    Maximum grid on a sphere for NonLocalECPotential: 12
  QMCHamiltonian::addOperator NonLocalECP to H, physical Hamiltonian 
QMCHamiltonian::addOperatorType added type pseudo named PseudoPot

  QMCHamiltonian::add2WalkerProperty added
    4 to P::PropertyList 
    0 to P::Collectables 
    starting Index of the observables in P::PropertyList = 9
ParticleSetPool::randomize 
<init source="ion0" target="e">
</init>
  Initialization Execution time = 0.476 secs
=========================================================
 Summary of QMC systems 
=========================================================
ParticleSetPool has: 

  ParticleSet e : 0 10 18 

    18

    u  3.7858851481e-01 -1.9249571302e+00  7.6152753624e-01
    u -1.5908859337e+00  1.1892758987e-01  4.2130621766e+00
    u  1.8182811212e+00 -2.4316954782e-01  1.7590099994e-02
    u -8.1695136608e-01  2.1718954143e+00  1.6987233431e+00
    u -3.7996874135e-01  2.2773847396e+00 -4.1274095398e-01
    u  1.5151017783e+00  1.6111947857e+00  2.6138925093e+00
    u -5.1566255017e-01  2.2898346380e+00  2.4049807003e+00
    u -8.4648068663e-01 -1.4792877580e-02 -4.1581256831e+00
    u -5.7013962542e-01 -1.7578349816e+00  4.8819210949e+00
    u  1.4502079478e+00 -2.7366854785e+00 -2.9038023809e+00
    (... and 8 more particle positions ...)

  ParticleSet ion0 : 0 1 

    1

    Ni  0.0000000000e+00  0.0000000000e+00  0.0000000000e+00

  Hamiltonian h0
  Kinetic         Kinetic energy
  ElecElec        CoulombAA source/target e

  LocalECP        LocalECPotential: ion0
  NonLocalECP     NonLocalECPotential: ion0

=========================================================
  Start VMC
  File Root Ni.log.s000 append = no 
=========================================================
  Adding 1 walkers to 0 existing sets
  Total number of walkers: 1.0240000000e+03
  Total weight: 1.0240000000e+03
  Resetting Properties of the walkers 1 x 13

<vmc function="put">
  qmc_counter=0  my_counter=0
  time step      = 1.5000000000e-01
  blocks         = 200
  steps          = 1
  substeps       = 5
  current        = 0
  target samples = 1.0240000000e+03
  walkers/mpi    = 1

  stepsbetweensamples = 200
<parameter name="blocks" condition="int">200</parameter>
<parameter name="blocks_between_recompute" condition="int">0</parameter>
<parameter name="check_properties" condition="int">100</parameter>
<parameter name="checkproperties" condition="int">100</parameter>
<parameter name="current" condition="int">0</parameter>
<parameter name="dmcwalkersperthread" condition="real">1.0000000000e+00</parameter>
<parameter name="maxcpusecs" condition="real">3.6000000000e+05</parameter>
<parameter name="record_configs" condition="int">0</parameter>
<parameter name="record_walkers" condition="int">200</parameter>
<parameter name="recordconfigs" condition="int">0</parameter>
<parameter name="recordwalkers" condition="int">200</parameter>
<parameter name="rewind" condition="int">0</parameter>
<parameter name="samples" condition="real">1.0240000000e+03</parameter>
<parameter name="samplesperthread" condition="real">1.0000000000e+00</parameter>
<parameter name="steps" condition="int">1</parameter>
<parameter name="stepsbetweensamples" condition="int">200</parameter>
<parameter name="store_configs" condition="int">0</parameter>
<parameter name="storeconfigs" condition="int">0</parameter>
<parameter name="sub_steps" condition="int">5</parameter>
<parameter name="substeps" condition="int">5</parameter>
<parameter name="tau" condition="au">1.5000000000e-01</parameter>
<parameter name="time_step" condition="au">1.5000000000e-01</parameter>
<parameter name="timestep" condition="au">1.5000000000e-01</parameter>
<parameter name="use_drift" condition="string">no</parameter>
<parameter name="usedrift" condition="string">no</parameter>
<parameter name="walkers" condition="int">1</parameter>
<parameter name="warmup_steps" condition="int">100</parameter>
<parameter name="warmupsteps" condition="int">100</parameter>
  DumpConfig==false Nothing (configurations, state) will be saved.
  Walker Samples are dumped every 200 steps.
</vmc>
  Initial partition of walkers 0 1 

  Using Particle by Particle moves
  Walker moves without drift
  Total Sample Size   =1024
  Walker distribution on root = 0 1 
  Using Locality Approximation
===== Memory Usage after the buffer registration =====
Available memory on node 0, free + buffers : 85316 MB
Memory footprint by rank 0 on node 0       : 75 MB
==================================================
  Anonymous Buffer size per walker : 10208 Bytes.
MEMORY increase 0 MB VMC::resetRun
====================================================
  SimpleFixedNodeBranch::finalize after a VMC block
    QMC counter        = 0
    time step          = 0.15
    reference energy   = -169.167
    reference variance = 3.61536
====================================================
  QMC Execution time = 2.1009e+00 secs
Loop execution max-interations = 20

=========================================================
  Start QMCFixedSampleLinearOptimize
  File Root Ni.log.s001 append = no 
=========================================================
  Skip QMCDriver::putQMCInfo 
  Resetting Properties of the walkers 1 x 13

=========================================================
  Start VMC
  File Root Ni.log.s001 append = no 
=========================================================
  Using the current 1 walkers.
  Total number of walkers: 1.0240e+03
  Total weight: 1.0240e+03
  Resetting Properties of the walkers 1 x 13

<vmc function="put">
  qmc_counter=0  my_counter=0
  time step      = 1.5000e-01
  blocks         = 500
  steps          = 1
  substeps       = 5
  current        = 0
  target samples = 5.1200e+05
  walkers/mpi    = 1

  stepsbetweensamples = 1
<parameter name="blocks" condition="int">500</parameter>
<parameter name="blocks_between_recompute" condition="int">0</parameter>
<parameter name="check_properties" condition="int">100</parameter>
<parameter name="checkproperties" condition="int">100</parameter>
<parameter name="current" condition="int">0</parameter>
<parameter name="dmcwalkersperthread" condition="real">5.0000e+02</parameter>
<parameter name="maxcpusecs" condition="real">3.6000e+05</parameter>
<parameter name="record_configs" condition="int">0</parameter>
<parameter name="record_walkers" condition="int">1</parameter>
<parameter name="recordconfigs" condition="int">0</parameter>
<parameter name="recordwalkers" condition="int">1</parameter>
<parameter name="rewind" condition="int">0</parameter>
<parameter name="samples" condition="real">5.1200e+05</parameter>
<parameter name="samplesperthread" condition="real">5.0000e+02</parameter>
<parameter name="steps" condition="int">1</parameter>
<parameter name="stepsbetweensamples" condition="int">1</parameter>
<parameter name="store_configs" condition="int">0</parameter>
<parameter name="storeconfigs" condition="int">0</parameter>
<parameter name="sub_steps" condition="int">5</parameter>
<parameter name="substeps" condition="int">5</parameter>
<parameter name="tau" condition="au">1.5000e-01</parameter>
<parameter name="time_step" condition="au">1.5000e-01</parameter>
<parameter name="timestep" condition="au">1.5000e-01</parameter>
<parameter name="use_drift" condition="string">no</parameter>
<parameter name="usedrift" condition="string">no</parameter>
<parameter name="walkers" condition="int">1</parameter>
<parameter name="warmup_steps" condition="int">0</parameter>
<parameter name="warmupsteps" condition="int">0</parameter>
  DumpConfig==false Nothing (configurations, state) will be saved.
  Walker Samples are dumped every 1 steps.
</vmc>
    Restarting, cummulative properties:
      energy     = -1.6917e+02
      variance   = 0.0000e+00
      r2accepted = 1.0000e-10
      r2proposed = 1.0000e-10
 Using QMCCostFunction::QMCCostFunction
  EstimatorManagerBase::add replace LocalEnergy estimator.
<optimization-report>
<vmc stage="main" blocks="500">
  Cannot make clones again. Use existing 1 clones
  Initial partition of walkers 0 1 

  Using Particle by Particle moves
  Walker moves without drift
  Total Sample Size   =512000
  Walker distribution on root = 0 1 
  Using Locality Approximation
===== Memory Usage after the buffer registration =====
Available memory on node 0, free + buffers : 85263 MB
Memory footprint by rank 0 on node 0       : 76 MB
==================================================
  Anonymous Buffer size per walker : 10208 Bytes.
MEMORY increase 0 MB VMC::resetRun
====================================================
  SimpleFixedNodeBranch::finalize after a VMC block
    QMC counter        = 1
    time step          = 0.15
    reference energy   = -169.15
    reference variance = 3.18736
====================================================
  Execution time = 4.7301e+00
</vmc>
<opt stage="setup">
  <log>
   Reading configurations from h5FileRoot Ni.log.s001
  QMCCostFunction is created with 1 threads.
  Using Nonlocal PP in Opt: NonLocalECP
   Number of samples loaded to each thread : 500 
  VMC Eavg = -1.6919e+02
  VMC Evar = 3.7169e+00
  Total weights = 5.1200e+05
  Execution time = 3.2119e+00
  </log>
</opt>
<opt stage="main" walkers="512000">
  <log>

*****************************************
Building overlap and Hamiltonian matrices
*****************************************

Among totally 82 optimized parameters, largest LM parameter change : 1.1304e-01 at parameter 21

******************************************************************************
Init Cost =  -1.6055e+02    New Cost =  -1.6067e+02  Delta Cost =  -1.2693e-01
******************************************************************************

The new set of parameters is valid. Updating the trial wave function!

*****************************************************************************
Applying the update for shift_i =   1.0000e-02     and shift_s =   2.5000e-01
*****************************************************************************
  Execution time = 9.2541e+00
  </log>
  <optVariables href="Ni.log.s001.opt.xml">
uu_0 1.9866e-01 1 1  ON 0
uu_1 4.2341e-02 1 1  ON 1
uu_2 2.4811e-03 1 1  ON 2
uu_3 -1.8680e-02 1 1  ON 3
uu_4 -4.6033e-02 1 1  ON 4
uu_5 -6.7729e-02 1 1  ON 5
uu_6 -5.5855e-02 1 1  ON 6
uu_7 -2.5213e-02 1 1  ON 7
uu_8 -7.4488e-04 1 1  ON 8
uu_9 -3.6757e-03 1 1  ON 9
ud_0 2.7953e-01 1 1  ON 10
ud_1 5.1984e-02 1 1  ON 11
ud_2 -1.8160e-02 1 1  ON 12
ud_3 -1.7563e-02 1 1  ON 13
ud_4 -2.3621e-02 1 1  ON 14
ud_5 -5.7838e-02 1 1  ON 15
ud_6 -4.3868e-02 1 1  ON 16
ud_7 -1.6898e-02 1 1  ON 17
ud_8 -7.8361e-03 1 1  ON 18
ud_9 -5.4126e-03 1 1  ON 19
eNi_0 -2.3227e+00 1 1  ON 20
eNi_1 -9.9538e-01 1 1  ON 21
eNi_2 1.0592e-01 1 1  ON 22
eNi_3 5.2227e-01 1 1  ON 23
eNi_4 7.4285e-01 1 1  ON 24
eNi_5 8.4750e-01 1 1  ON 25
eNi_6 7.3885e-01 1 1  ON 26
eNi_7 3.3493e-01 1 1  ON 27
eNi_8 3.7893e-02 1 1  ON 28
eNi_9 -4.9248e-03 1 1  ON 29
uuNi_0 2.3367e-06 1 1  ON 30
uuNi_1 2.9041e-07 1 1  ON 31
uuNi_2 -1.4414e-06 1 1  ON 32
uuNi_3 -2.7995e-06 1 1  ON 33
uuNi_4 -4.1628e-07 1 1  ON 34
uuNi_5 -6.9521e-08 1 1  ON 35
uuNi_6 -1.7265e-06 1 1  ON 36
uuNi_7 7.1940e-07 1 1  ON 37
uuNi_8 1.7918e-06 1 1  ON 38
uuNi_9 -8.3272e-07 1 1  ON 39
uuNi_10 -2.0021e-06 1 1  ON 40
uuNi_11 -1.5212e-07 1 1  ON 41
uuNi_12 -5.1110e-07 1 1  ON 42
uuNi_13 3.1971e-06 1 1  ON 43
uuNi_14 6.9162e-07 1 1  ON 44
uuNi_15 -2.1767e-08 1 1  ON 45
uuNi_16 -2.1783e-07 1 1  ON 46
uuNi_17 4.2466e-06 1 1  ON 47
uuNi_18 -1.1674e-06 1 1  ON 48
uuNi_19 1.6673e-07 1 1  ON 49
uuNi_20 -7.5678e-07 1 1  ON 50
uuNi_21 2.9626e-08 1 1  ON 51
uuNi_22 4.7829e-09 1 1  ON 52
uuNi_23 3.6916e-07 1 1  ON 53
uuNi_24 -1.7660e-08 1 1  ON 54
uuNi_25 -1.8506e-09 1 1  ON 55
udNi_0 4.3371e-06 1 1  ON 56
udNi_1 4.0297e-06 1 1  ON 57
udNi_2 -2.1165e-06 1 1  ON 58
udNi_3 -5.4965e-06 1 1  ON 59
udNi_4 -9.4305e-07 1 1  ON 60
udNi_5 -7.2161e-08 1 1  ON 61
udNi_6 5.4417e-06 1 1  ON 62
udNi_7 -7.2511e-06 1 1  ON 63
udNi_8 2.8257e-07 1 1  ON 64
udNi_9 -6.4459e-06 1 1  ON 65
udNi_10 -4.6573e-06 1 1  ON 66
udNi_11 4.5926e-06 1 1  ON 67
udNi_12 -5.3763e-07 1 1  ON 68
udNi_13 6.6153e-06 1 1  ON 69
udNi_14 1.0304e-07 1 1  ON 70
udNi_15 3.4570e-08 1 1  ON 71
udNi_16 8.6555e-06 1 1  ON 72
udNi_17 5.8940e-06 1 1  ON 73
udNi_18 -4.6406e-06 1 1  ON 74
udNi_19 5.4770e-07 1 1  ON 75
udNi_20 -3.6982e-06 1 1  ON 76
udNi_21 7.0712e-07 1 1  ON 77
udNi_22 -9.8043e-08 1 1  ON 78
udNi_23 1.2555e-06 1 1  ON 79
udNi_24 -1.8127e-07 1 1  ON 80
udNi_25 2.4972e-08 1 1  ON 81
  </optVariables>
   Restore the number of walkers to 1, removing 0 walkers.
</opt>
</optimization-report>
  QMC Execution time = 9.2676e+00 secs
  Reusing QMCFixedSampleLinearOptimize
 Using QMCCostFunction::QMCCostFunction

=========================================================
  Start QMCFixedSampleLinearOptimize
  File Root Ni.log.s002 append = no 
=========================================================
  Skip QMCDriver::putQMCInfo 
  Resetting Properties of the walkers 1 x 13

=========================================================
  Start VMC
  File Root Ni.log.s002 append = no 
=========================================================
Using existing walkers 
  Resetting Properties of the walkers 1 x 13

<vmc function="put">
  qmc_counter=1  my_counter=1
  time step      = 1.5000e-01
  blocks         = 500
  steps          = 1
  substeps       = 5
  current        = 0
  target samples = 5.1200e+05
  walkers/mpi    = 1

  stepsbetweensamples = 1
<parameter name="blocks" condition="int">500</parameter>
<parameter name="blocks_between_recompute" condition="int">0</parameter>
<parameter name="check_properties" condition="int">100</parameter>
<parameter name="checkproperties" condition="int">100</parameter>
<parameter name="current" condition="int">0</parameter>
<parameter name="dmcwalkersperthread" condition="real">5.0000e+02</parameter>
<parameter name="maxcpusecs" condition="real">3.6000e+05</parameter>
<parameter name="record_configs" condition="int">0</parameter>
<parameter name="record_walkers" condition="int">1</parameter>
<parameter name="recordconfigs" condition="int">0</parameter>
<parameter name="recordwalkers" condition="int">1</parameter>
<parameter name="rewind" condition="int">0</parameter>
<parameter name="samples" condition="real">5.1200e+05</parameter>
<parameter name="samplesperthread" condition="real">5.0000e+02</parameter>
<parameter name="steps" condition="int">1</parameter>
<parameter name="stepsbetweensamples" condition="int">1</parameter>
<parameter name="store_configs" condition="int">0</parameter>
<parameter name="storeconfigs" condition="int">0</parameter>
<parameter name="sub_steps" condition="int">5</parameter>
<parameter name="substeps" condition="int">5</parameter>
<parameter name="tau" condition="au">1.5000e-01</parameter>
<parameter name="time_step" condition="au">1.5000e-01</parameter>
<parameter name="timestep" condition="au">1.5000e-01</parameter>
<parameter name="use_drift" condition="string">no</parameter>
<parameter name="usedrift" condition="string">no</parameter>
<parameter name="walkers" condition="int">1</parameter>
<parameter name="warmup_steps" condition="int">0</parameter>
<parameter name="warmupsteps" condition="int">0</parameter>
  DumpConfig==false Nothing (configurations, state) will be saved.
  Walker Samples are dumped every 1 steps.
</vmc>
  EstimatorManagerBase::add replace LocalEnergy estimator.
  EstimatorManagerBase::add replace LocalEnergy estimator.
<optimization-report>
<vmc stage="main" blocks="500">
  Cannot make clones again. Use existing 1 clones
  Initial partition of walkers 0 1 
  Using Particle by Particle moves
  Walker moves without drift
  Total Sample Size   =512000
  Walker distribution on root = 0 1 
  Using Locality Approximation
===== Memory Usage after the buffer registration =====
Available memory on node 0, free + buffers : 84120 MB
Memory footprint by rank 0 on node 0       : 97 MB
==================================================
====================================================
  SimpleFixedNodeBranch::finalize after a VMC block
    QMC counter        = 2
    time step          = 0.15
    reference energy   = -169.228
    reference variance = 2.35328
====================================================
  Execution time = 4.4326e+00
</vmc>
<opt stage="setup">
  <log>
   Reading configurations from h5FileRoot Ni.log.s002
  QMCCostFunction is created with 1 threads.
  Using Nonlocal PP in Opt: NonLocalECP
   Number of samples loaded to each thread : 500 
  VMC Eavg = -1.6927e+02
  VMC Evar = 2.7138e+00
  Total weights = 5.1200e+05
  Execution time = 3.0845e+00
  </log>
</opt>
<opt stage="main" walkers="512000">
  <log>

*****************************************
Building overlap and Hamiltonian matrices
*****************************************

Among totally 82 optimized parameters, largest LM parameter change : 7.1988e-02 at parameter 21

******************************************************************************
Init Cost =  -1.6067e+02    New Cost =  -1.6067e+02  Delta Cost =  -4.0099e-03
******************************************************************************

The new set of parameters is valid. Updating the trial wave function!

*****************************************************************************
Applying the update for shift_i =   1.0000e-02     and shift_s =   6.2500e-02
*****************************************************************************
  Execution time = 8.7272e+00
  </log>
  <optVariables href="Ni.log.s002.opt.xml">
uu_0 2.0908e-01 1 1  ON 0
uu_1 5.3041e-02 1 1  ON 1
uu_2 8.8962e-03 1 1  ON 2
uu_3 -1.7375e-02 1 1  ON 3
uu_4 -4.8915e-02 1 1  ON 4
uu_5 -6.7606e-02 1 1  ON 5
uu_6 -6.0640e-02 1 1  ON 6
uu_7 -2.8004e-02 1 1  ON 7
uu_8 -4.9780e-03 1 1  ON 8
uu_9 -1.7814e-03 1 1  ON 9
ud_0 3.0516e-01 1 1  ON 10
ud_1 6.4160e-02 1 1  ON 11
ud_2 -1.8197e-02 1 1  ON 12
ud_3 -1.9783e-02 1 1  ON 13
ud_4 -2.8919e-02 1 1  ON 14
ud_5 -6.2295e-02 1 1  ON 15
ud_6 -5.1387e-02 1 1  ON 16
ud_7 -2.3577e-02 1 1  ON 17
ud_8 -3.6621e-04 1 1  ON 18
ud_9 -1.0272e-02 1 1  ON 19
eNi_0 -2.3666e+00 1 1  ON 20
eNi_1 -1.0674e+00 1 1  ON 21
eNi_2 1.6650e-01 1 1  ON 22
eNi_3 5.8217e-01 1 1  ON 23
eNi_4 7.4088e-01 1 1  ON 24
eNi_5 8.3261e-01 1 1  ON 25
eNi_6 7.4091e-01 1 1  ON 26
eNi_7 3.4365e-01 1 1  ON 27
eNi_8 4.1636e-02 1 1  ON 28
eNi_9 -4.6151e-03 1 1  ON 29
uuNi_0 2.4578e-06 1 1  ON 30
uuNi_1 5.2819e-07 1 1  ON 31
uuNi_2 -1.3912e-06 1 1  ON 32
uuNi_3 -3.2565e-06 1 1  ON 33
uuNi_4 -4.7766e-07 1 1  ON 34
uuNi_5 -3.0858e-07 1 1  ON 35
uuNi_6 -1.4146e-06 1 1  ON 36
uuNi_7 8.7427e-07 1 1  ON 37
uuNi_8 2.0203e-06 1 1  ON 38
uuNi_9 -1.2236e-06 1 1  ON 39
uuNi_10 -2.2164e-06 1 1  ON 40
uuNi_11 -2.6194e-07 1 1  ON 41
uuNi_12 -5.9063e-07 1 1  ON 42
uuNi_13 3.2554e-06 1 1  ON 43
uuNi_14 7.7126e-07 1 1  ON 44
uuNi_15 -2.2488e-08 1 1  ON 45
uuNi_16 2.3083e-07 1 1  ON 46
uuNi_17 4.4006e-06 1 1  ON 47
uuNi_18 -1.2005e-06 1 1  ON 48
uuNi_19 1.9754e-07 1 1  ON 49
uuNi_20 -9.1866e-07 1 1  ON 50
uuNi_21 2.3951e-08 1 1  ON 51
uuNi_22 4.9392e-09 1 1  ON 52
uuNi_23 5.5396e-07 1 1  ON 53
uuNi_24 -2.4378e-08 1 1  ON 54
uuNi_25 -1.8266e-09 1 1  ON 55
udNi_0 4.8229e-06 1 1  ON 56
udNi_1 4.8017e-06 1 1  ON 57
udNi_2 -2.0899e-06 1 1  ON 58
udNi_3 -6.0820e-06 1 1  ON 59
udNi_4 -1.1065e-06 1 1  ON 60
udNi_5 5.6066e-09 1 1  ON 61
udNi_6 6.3540e-06 1 1  ON 62
udNi_7 -7.1069e-06 1 1  ON 63
udNi_8 5.6926e-07 1 1  ON 64
udNi_9 -7.4850e-06 1 1  ON 65
udNi_10 -5.1414e-06 1 1  ON 66
udNi_11 4.5424e-06 1 1  ON 67
udNi_12 -6.4321e-07 1 1  ON 68
udNi_13 6.9519e-06 1 1  ON 69
udNi_14 1.8414e-07 1 1  ON 70
udNi_15 3.6294e-08 1 1  ON 71
udNi_16 1.0487e-05 1 1  ON 72
udNi_17 6.1338e-06 1 1  ON 73
udNi_18 -4.8739e-06 1 1  ON 74
udNi_19 6.1500e-07 1 1  ON 75
udNi_20 -4.2198e-06 1 1  ON 76
udNi_21 7.5721e-07 1 1  ON 77
udNi_22 -1.0823e-07 1 1  ON 78
udNi_23 1.6182e-06 1 1  ON 79
udNi_24 -2.0835e-07 1 1  ON 80
udNi_25 2.8491e-08 1 1  ON 81
  </optVariables>
   Restore the number of walkers to 1, removing 0 walkers.
</opt>
</optimization-report>
  QMC Execution time = 8.7402e+00 secs
  Reusing QMCFixedSampleLinearOptimize
 Using QMCCostFunction::QMCCostFunction

=========================================================
  Start QMCFixedSampleLinearOptimize
  File Root Ni.log.s003 append = no 
=========================================================
  Skip QMCDriver::putQMCInfo 
  Resetting Properties of the walkers 1 x 13

=========================================================
  Start VMC
  File Root Ni.log.s003 append = no 
=========================================================
Using existing walkers 
  Resetting Properties of the walkers 1 x 13

<vmc function="put">
  qmc_counter=2  my_counter=2
  time step      = 1.5000e-01
  blocks         = 500
  steps          = 1
  substeps       = 5
  current        = 0
  target samples = 5.1200e+05
  walkers/mpi    = 1

  stepsbetweensamples = 1
<parameter name="blocks" condition="int">500</parameter>
<parameter name="blocks_between_recompute" condition="int">0</parameter>
<parameter name="check_properties" condition="int">100</parameter>
<parameter name="checkproperties" condition="int">100</parameter>
<parameter name="current" condition="int">0</parameter>
<parameter name="dmcwalkersperthread" condition="real">5.0000e+02</parameter>
<parameter name="maxcpusecs" condition="real">3.6000e+05</parameter>
<parameter name="record_configs" condition="int">0</parameter>
<parameter name="record_walkers" condition="int">1</parameter>
<parameter name="recordconfigs" condition="int">0</parameter>
<parameter name="recordwalkers" condition="int">1</parameter>
<parameter name="rewind" condition="int">0</parameter>
<parameter name="samples" condition="real">5.1200e+05</parameter>
<parameter name="samplesperthread" condition="real">5.0000e+02</parameter>
<parameter name="steps" condition="int">1</parameter>
<parameter name="stepsbetweensamples" condition="int">1</parameter>
<parameter name="store_configs" condition="int">0</parameter>
<parameter name="storeconfigs" condition="int">0</parameter>
<parameter name="sub_steps" condition="int">5</parameter>
<parameter name="substeps" condition="int">5</parameter>
<parameter name="tau" condition="au">1.5000e-01</parameter>
<parameter name="time_step" condition="au">1.5000e-01</parameter>
<parameter name="timestep" condition="au">1.5000e-01</parameter>
<parameter name="use_drift" condition="string">no</parameter>
<parameter name="usedrift" condition="string">no</parameter>
<parameter name="walkers" condition="int">1</parameter>
<parameter name="warmup_steps" condition="int">0</parameter>
<parameter name="warmupsteps" condition="int">0</parameter>
  DumpConfig==false Nothing (configurations, state) will be saved.
  Walker Samples are dumped every 1 steps.
</vmc>
  EstimatorManagerBase::add replace LocalEnergy estimator.
  EstimatorManagerBase::add replace LocalEnergy estimator.
<optimization-report>
<vmc stage="main" blocks="500">
  Cannot make clones again. Use existing 1 clones
  Initial partition of walkers 0 1 
  Using Particle by Particle moves
  Walker moves without drift
  Total Sample Size   =512000
  Walker distribution on root = 0 1 
  Using Locality Approximation
===== Memory Usage after the buffer registration =====
Available memory on node 0, free + buffers : 84115 MB
Memory footprint by rank 0 on node 0       : 100 MB
==================================================
====================================================
  SimpleFixedNodeBranch::finalize after a VMC block
    QMC counter        = 3
    time step          = 0.15
    reference energy   = -169.215
    reference variance = 2.41238
====================================================
  Execution time = 4.4820e+00
</vmc>
<opt stage="setup">
  <log>
   Reading configurations from h5FileRoot Ni.log.s003
  QMCCostFunction is created with 1 threads.
  Using Nonlocal PP in Opt: NonLocalECP
   Number of samples loaded to each thread : 500 
  VMC Eavg = -1.6926e+02
  VMC Evar = 2.4809e+00
  Total weights = 5.1200e+05
  Execution time = 3.0628e+00
  </log>
</opt>
<opt stage="main" walkers="512000">
  <log>

*****************************************
Building overlap and Hamiltonian matrices
*****************************************

Among totally 82 optimized parameters, largest LM parameter change : 6.1128e-02 at parameter 23

******************************************************************************
Init Cost =  -1.6067e+02    New Cost =  -1.6067e+02  Delta Cost =  -3.5256e-04
******************************************************************************

The new set of parameters is valid. Updating the trial wave function!

*****************************************************************************
Applying the update for shift_i =   1.0000e-02     and shift_s =   1.5625e-02
*****************************************************************************
  Execution time = 8.7573e+00
  </log>
  <optVariables href="Ni.log.s003.opt.xml">
uu_0 2.1544e-01 1 1  ON 0
uu_1 6.0096e-02 1 1  ON 1
uu_2 1.6165e-02 1 1  ON 2
uu_3 -1.5825e-02 1 1  ON 3
uu_4 -5.3389e-02 1 1  ON 4
uu_5 -7.5682e-02 1 1  ON 5
uu_6 -7.0195e-02 1 1  ON 6
uu_7 -3.1883e-02 1 1  ON 7
uu_8 -1.5324e-02 1 1  ON 8
uu_9 -2.7119e-03 1 1  ON 9
ud_0 3.1631e-01 1 1  ON 10
ud_1 6.7271e-02 1 1  ON 11
ud_2 -2.1047e-02 1 1  ON 12
ud_3 -2.4863e-02 1 1  ON 13
ud_4 -3.2113e-02 1 1  ON 14
ud_5 -6.9989e-02 1 1  ON 15
ud_6 -5.7767e-02 1 1  ON 16
ud_7 -2.9782e-02 1 1  ON 17
ud_8 -7.1764e-03 1 1  ON 18
ud_9 -1.7526e-03 1 1  ON 19
eNi_0 -2.4120e+00 1 1  ON 20
eNi_1 -1.1167e+00 1 1  ON 21
eNi_2 2.0210e-01 1 1  ON 22
eNi_3 6.4330e-01 1 1  ON 23
eNi_4 7.3946e-01 1 1  ON 24
eNi_5 8.1372e-01 1 1  ON 25
eNi_6 7.4900e-01 1 1  ON 26
eNi_7 3.5098e-01 1 1  ON 27
eNi_8 4.2125e-02 1 1  ON 28
eNi_9 -4.4407e-03 1 1  ON 29
uuNi_0 2.4674e-06 1 1  ON 30
uuNi_1 4.5799e-07 1 1  ON 31
uuNi_2 -1.1605e-06 1 1  ON 32
uuNi_3 -3.2135e-06 1 1  ON 33
uuNi_4 -4.1468e-07 1 1  ON 34
uuNi_5 -4.5133e-07 1 1  ON 35
uuNi_6 -1.3080e-06 1 1  ON 36
uuNi_7 8.4508e-07 1 1  ON 37
uuNi_8 2.2851e-06 1 1  ON 38
uuNi_9 -1.4121e-06 1 1  ON 39
uuNi_10 -1.9784e-06 1 1  ON 40
uuNi_11 -6.8389e-07 1 1  ON 41
uuNi_12 -5.6879e-07 1 1  ON 42
uuNi_13 3.1994e-06 1 1  ON 43
uuNi_14 7.6332e-07 1 1  ON 44
uuNi_15 -2.2865e-08 1 1  ON 45
uuNi_16 4.2399e-07 1 1  ON 46
uuNi_17 4.2061e-06 1 1  ON 47
uuNi_18 -9.0586e-07 1 1  ON 48
uuNi_19 1.3672e-07 1 1  ON 49
uuNi_20 -9.7911e-07 1 1  ON 50
uuNi_21 1.7236e-08 1 1  ON 51
uuNi_22 9.9316e-09 1 1  ON 52
uuNi_23 5.7563e-07 1 1  ON 53
uuNi_24 -2.9600e-08 1 1  ON 54
uuNi_25 -1.3835e-09 1 1  ON 55
udNi_0 4.9975e-06 1 1  ON 56
udNi_1 4.7443e-06 1 1  ON 57
udNi_2 -2.4802e-06 1 1  ON 58
udNi_3 -6.0683e-06 1 1  ON 59
udNi_4 -1.0367e-06 1 1  ON 60
udNi_5 1.9223e-08 1 1  ON 61
udNi_6 5.9501e-06 1 1  ON 62
udNi_7 -6.9517e-06 1 1  ON 63
udNi_8 2.6237e-08 1 1  ON 64
udNi_9 -7.2139e-06 1 1  ON 65
udNi_10 -5.1356e-06 1 1  ON 66
udNi_11 4.8687e-06 1 1  ON 67
udNi_12 -4.7469e-07 1 1  ON 68
udNi_13 6.6800e-06 1 1  ON 69
udNi_14 5.0618e-08 1 1  ON 70
udNi_15 3.1525e-08 1 1  ON 71
udNi_16 1.0276e-05 1 1  ON 72
udNi_17 5.8929e-06 1 1  ON 73
udNi_18 -4.9979e-06 1 1  ON 74
udNi_19 5.3390e-07 1 1  ON 75
udNi_20 -4.0555e-06 1 1  ON 76
udNi_21 7.9106e-07 1 1  ON 77
udNi_22 -1.0175e-07 1 1  ON 78
udNi_23 1.5682e-06 1 1  ON 79
udNi_24 -2.0627e-07 1 1  ON 80
udNi_25 2.6940e-08 1 1  ON 81
  </optVariables>
   Restore the number of walkers to 1, removing 0 walkers.
</opt>
</optimization-report>
  QMC Execution time = 8.7703e+00 secs
  Reusing QMCFixedSampleLinearOptimize
 Using QMCCostFunction::QMCCostFunction

=========================================================
  Start QMCFixedSampleLinearOptimize
  File Root Ni.log.s004 append = no 
=========================================================
  Skip QMCDriver::putQMCInfo 
  Resetting Properties of the walkers 1 x 13

=========================================================
  Start VMC
  File Root Ni.log.s004 append = no 
=========================================================
Using existing walkers 
  Resetting Properties of the walkers 1 x 13

<vmc function="put">
  qmc_counter=3  my_counter=3
  time step      = 1.5000e-01
  blocks         = 500
  steps          = 1
  substeps       = 5
  current        = 0
  target samples = 5.1200e+05
  walkers/mpi    = 1

  stepsbetweensamples = 1
<parameter name="blocks" condition="int">500</parameter>
<parameter name="blocks_between_recompute" condition="int">0</parameter>
<parameter name="check_properties" condition="int">100</parameter>
<parameter name="checkproperties" condition="int">100</parameter>
<parameter name="current" condition="int">0</parameter>
<parameter name="dmcwalkersperthread" condition="real">5.0000e+02</parameter>
<parameter name="maxcpusecs" condition="real">3.6000e+05</parameter>
<parameter name="record_configs" condition="int">0</parameter>
<parameter name="record_walkers" condition="int">1</parameter>
<parameter name="recordconfigs" condition="int">0</parameter>
<parameter name="recordwalkers" condition="int">1</parameter>
<parameter name="rewind" condition="int">0</parameter>
<parameter name="samples" condition="real">5.1200e+05</parameter>
<parameter name="samplesperthread" condition="real">5.0000e+02</parameter>
<parameter name="steps" condition="int">1</parameter>
<parameter name="stepsbetweensamples" condition="int">1</parameter>
<parameter name="store_configs" condition="int">0</parameter>
<parameter name="storeconfigs" condition="int">0</parameter>
<parameter name="sub_steps" condition="int">5</parameter>
<parameter name="substeps" condition="int">5</parameter>
<parameter name="tau" condition="au">1.5000e-01</parameter>
<parameter name="time_step" condition="au">1.5000e-01</parameter>
<parameter name="timestep" condition="au">1.5000e-01</parameter>
<parameter name="use_drift" condition="string">no</parameter>
<parameter name="usedrift" condition="string">no</parameter>
<parameter name="walkers" condition="int">1</parameter>
<parameter name="warmup_steps" condition="int">0</parameter>
<parameter name="warmupsteps" condition="int">0</parameter>
  DumpConfig==false Nothing (configurations, state) will be saved.
  Walker Samples are dumped every 1 steps.
</vmc>
  EstimatorManagerBase::add replace LocalEnergy estimator.
  EstimatorManagerBase::add replace LocalEnergy estimator.
<optimization-report>
<vmc stage="main" blocks="500">
  Cannot make clones again. Use existing 1 clones
  Initial partition of walkers 0 1 
  Using Particle by Particle moves
  Walker moves without drift
  Total Sample Size   =512000
  Walker distribution on root = 0 1 
  Using Locality Approximation
===== Memory Usage after the buffer registration =====
Available memory on node 0, free + buffers : 84112 MB
Memory footprint by rank 0 on node 0       : 103 MB
==================================================
====================================================
  SimpleFixedNodeBranch::finalize after a VMC block
    QMC counter        = 4
    time step          = 0.15
    reference energy   = -169.255
    reference variance = 2.48739
====================================================
  Execution time = 4.4239e+00
</vmc>
<opt stage="setup">
  <log>
   Reading configurations from h5FileRoot Ni.log.s004
  QMCCostFunction is created with 1 threads.
  Using Nonlocal PP in Opt: NonLocalECP
   Number of samples loaded to each thread : 500 
  VMC Eavg = -1.6927e+02
  VMC Evar = 2.4612e+00
  Total weights = 5.1200e+05
  Execution time = 3.0573e+00
  </log>
</opt>
<opt stage="main" walkers="512000">
  <log>

*****************************************
Building overlap and Hamiltonian matrices
*****************************************

Among totally 82 optimized parameters, largest LM parameter change : 6.0566e-02 at parameter 23

******************************************************************************
Init Cost =  -1.6068e+02    New Cost =  -1.6068e+02  Delta Cost =  -8.6920e-04
******************************************************************************

The new set of parameters is valid. Updating the trial wave function!

*****************************************************************************
Applying the update for shift_i =   1.0000e-02     and shift_s =   3.9062e-03
*****************************************************************************
  Execution time = 8.7108e+00
  </log>
  <optVariables href="Ni.log.s004.opt.xml">
uu_0 2.2128e-01 1 1  ON 0
uu_1 6.4785e-02 1 1  ON 1
uu_2 1.6951e-02 1 1  ON 2
uu_3 -1.7477e-02 1 1  ON 3
uu_4 -5.6612e-02 1 1  ON 4
uu_5 -7.8130e-02 1 1  ON 5
uu_6 -7.0155e-02 1 1  ON 6
uu_7 -4.1499e-02 1 1  ON 7
uu_8 -9.9308e-03 1 1  ON 8
uu_9 -1.4114e-02 1 1  ON 9
ud_0 3.2275e-01 1 1  ON 10
ud_1 7.1764e-02 1 1  ON 11
ud_2 -2.0023e-02 1 1  ON 12
ud_3 -2.8782e-02 1 1  ON 13
ud_4 -3.8554e-02 1 1  ON 14
ud_5 -7.4547e-02 1 1  ON 15
ud_6 -6.3225e-02 1 1  ON 16
ud_7 -3.6529e-02 1 1  ON 17
ud_8 -1.1126e-02 1 1  ON 18
ud_9 3.3756e-03 1 1  ON 19
eNi_0 -2.4686e+00 1 1  ON 20
eNi_1 -1.1519e+00 1 1  ON 21
eNi_2 2.3231e-01 1 1  ON 22
eNi_3 7.0387e-01 1 1  ON 23
eNi_4 7.4199e-01 1 1  ON 24
eNi_5 7.9714e-01 1 1  ON 25
eNi_6 7.5588e-01 1 1  ON 26
eNi_7 3.5721e-01 1 1  ON 27
eNi_8 4.4265e-02 1 1  ON 28
eNi_9 -5.8920e-03 1 1  ON 29
uuNi_0 2.4979e-06 1 1  ON 30
uuNi_1 3.0931e-07 1 1  ON 31
uuNi_2 -1.2694e-06 1 1  ON 32
uuNi_3 -3.2412e-06 1 1  ON 33
uuNi_4 -4.2054e-07 1 1  ON 34
uuNi_5 -5.2635e-07 1 1  ON 35
uuNi_6 -1.4644e-06 1 1  ON 36
uuNi_7 9.7968e-07 1 1  ON 37
uuNi_8 2.1759e-06 1 1  ON 38
uuNi_9 -1.3390e-06 1 1  ON 39
uuNi_10 -2.0064e-06 1 1  ON 40
uuNi_11 -6.2793e-07 1 1  ON 41
uuNi_12 -5.7414e-07 1 1  ON 42
uuNi_13 3.0688e-06 1 1  ON 43
uuNi_14 7.7431e-07 1 1  ON 44
uuNi_15 -2.3600e-08 1 1  ON 45
uuNi_16 4.6920e-07 1 1  ON 46
uuNi_17 4.1361e-06 1 1  ON 47
uuNi_18 -8.9571e-07 1 1  ON 48
uuNi_19 1.5686e-07 1 1  ON 49
uuNi_20 -9.9113e-07 1 1  ON 50
uuNi_21 -2.2256e-09 1 1  ON 51
uuNi_22 9.5732e-09 1 1  ON 52
uuNi_23 5.9401e-07 1 1  ON 53
uuNi_24 -2.3792e-08 1 1  ON 54
uuNi_25 -2.0577e-09 1 1  ON 55
udNi_0 4.8918e-06 1 1  ON 56
udNi_1 4.6430e-06 1 1  ON 57
udNi_2 -2.0943e-06 1 1  ON 58
udNi_3 -5.8106e-06 1 1  ON 59
udNi_4 -9.6491e-07 1 1  ON 60
udNi_5 4.2104e-08 1 1  ON 61
udNi_6 6.2539e-06 1 1  ON 62
udNi_7 -7.1229e-06 1 1  ON 63
udNi_8 1.2835e-07 1 1  ON 64
udNi_9 -7.3991e-06 1 1  ON 65
udNi_10 -4.7880e-06 1 1  ON 66
udNi_11 4.4911e-06 1 1  ON 67
udNi_12 -4.2033e-07 1 1  ON 68
udNi_13 6.4378e-06 1 1  ON 69
udNi_14 -2.1659e-08 1 1  ON 70
udNi_15 3.4625e-08 1 1  ON 71
udNi_16 1.0725e-05 1 1  ON 72
udNi_17 5.2670e-06 1 1  ON 73
udNi_18 -4.6242e-06 1 1  ON 74
udNi_19 4.7849e-07 1 1  ON 75
udNi_20 -4.0633e-06 1 1  ON 76
udNi_21 7.8415e-07 1 1  ON 77
udNi_22 -1.0003e-07 1 1  ON 78
udNi_23 1.5782e-06 1 1  ON 79
udNi_24 -2.1221e-07 1 1  ON 80
udNi_25 2.8027e-08 1 1  ON 81
  </optVariables>
   Restore the number of walkers to 1, removing 0 walkers.
</opt>
</optimization-report>
  QMC Execution time = 8.7234e+00 secs
  Reusing QMCFixedSampleLinearOptimize
 Using QMCCostFunction::QMCCostFunction

=========================================================
  Start QMCFixedSampleLinearOptimize
  File Root Ni.log.s005 append = no 
=========================================================
  Skip QMCDriver::putQMCInfo 
  Resetting Properties of the walkers 1 x 13

=========================================================
  Start VMC
  File Root Ni.log.s005 append = no 
=========================================================
Using existing walkers 
  Resetting Properties of the walkers 1 x 13

<vmc function="put">
  qmc_counter=4  my_counter=4
  time step      = 1.5000e-01
  blocks         = 500
  steps          = 1
  substeps       = 5
  current        = 0
  target samples = 5.1200e+05
  walkers/mpi    = 1

  stepsbetweensamples = 1
<parameter name="blocks" condition="int">500</parameter>
<parameter name="blocks_between_recompute" condition="int">0</parameter>
<parameter name="check_properties" condition="int">100</parameter>
<parameter name="checkproperties" condition="int">100</parameter>
<parameter name="current" condition="int">0</parameter>
<parameter name="dmcwalkersperthread" condition="real">5.0000e+02</parameter>
<parameter name="maxcpusecs" condition="real">3.6000e+05</parameter>
<parameter name="record_configs" condition="int">0</parameter>
<parameter name="record_walkers" condition="int">1</parameter>
<parameter name="recordconfigs" condition="int">0</parameter>
<parameter name="recordwalkers" condition="int">1</parameter>
<parameter name="rewind" condition="int">0</parameter>
<parameter name="samples" condition="real">5.1200e+05</parameter>
<parameter name="samplesperthread" condition="real">5.0000e+02</parameter>
<parameter name="steps" condition="int">1</parameter>
<parameter name="stepsbetweensamples" condition="int">1</parameter>
<parameter name="store_configs" condition="int">0</parameter>
<parameter name="storeconfigs" condition="int">0</parameter>
<parameter name="sub_steps" condition="int">5</parameter>
<parameter name="substeps" condition="int">5</parameter>
<parameter name="tau" condition="au">1.5000e-01</parameter>
<parameter name="time_step" condition="au">1.5000e-01</parameter>
<parameter name="timestep" condition="au">1.5000e-01</parameter>
<parameter name="use_drift" condition="string">no</parameter>
<parameter name="usedrift" condition="string">no</parameter>
<parameter name="walkers" condition="int">1</parameter>
<parameter name="warmup_steps" condition="int">0</parameter>
<parameter name="warmupsteps" condition="int">0</parameter>
  DumpConfig==false Nothing (configurations, state) will be saved.
  Walker Samples are dumped every 1 steps.
</vmc>
  EstimatorManagerBase::add replace LocalEnergy estimator.
  EstimatorManagerBase::add replace LocalEnergy estimator.
<optimization-report>
<vmc stage="main" blocks="500">
  Cannot make clones again. Use existing 1 clones
  Initial partition of walkers 0 1 
  Using Particle by Particle moves
  Walker moves without drift
  Total Sample Size   =512000
  Walker distribution on root = 0 1 
  Using Locality Approximation
===== Memory Usage after the buffer registration =====
Available memory on node 0, free + buffers : 84108 MB
Memory footprint by rank 0 on node 0       : 106 MB
==================================================
====================================================
  SimpleFixedNodeBranch::finalize after a VMC block
    QMC counter        = 5
    time step          = 0.15
    reference energy   = -169.198
    reference variance = 2.76448
====================================================
  Execution time = 4.4666e+00
</vmc>
<opt stage="setup">
  <log>
   Reading configurations from h5FileRoot Ni.log.s005
  QMCCostFunction is created with 1 threads.
  Using Nonlocal PP in Opt: NonLocalECP
   Number of samples loaded to each thread : 500 
  VMC Eavg = -1.6927e+02
  VMC Evar = 2.5012e+00
  Total weights = 5.1200e+05
  Execution time = 3.0599e+00
  </log>
</opt>
<opt stage="main" walkers="512000">
  <log>

*****************************************
Building overlap and Hamiltonian matrices
*****************************************

Among totally 82 optimized parameters, largest LM parameter change : 5.5806e-02 at parameter 23

******************************************************************************
Init Cost =  -1.6068e+02    New Cost =  -1.6068e+02  Delta Cost =  -4.1071e-04
******************************************************************************

The new set of parameters is valid. Updating the trial wave function!

*****************************************************************************
Applying the update for shift_i =   1.0000e-02     and shift_s =   3.9062e-03
*****************************************************************************
  Execution time = 8.7428e+00
  </log>
  <optVariables href="Ni.log.s005.opt.xml">
uu_0 2.2418e-01 1 1  ON 0
uu_1 6.4642e-02 1 1  ON 1
uu_2 1.1822e-02 1 1  ON 2
uu_3 -2.4180e-02 1 1  ON 3
uu_4 -6.3861e-02 1 1  ON 4
uu_5 -8.4652e-02 1 1  ON 5
uu_6 -7.4759e-02 1 1  ON 6
uu_7 -3.7778e-02 1 1  ON 7
uu_8 -1.4927e-02 1 1  ON 8
uu_9 -1.0263e-02 1 1  ON 9
ud_0 3.3178e-01 1 1  ON 10
ud_1 7.4542e-02 1 1  ON 11
ud_2 -2.3832e-02 1 1  ON 12
ud_3 -3.3512e-02 1 1  ON 13
ud_4 -4.2806e-02 1 1  ON 14
ud_5 -8.0001e-02 1 1  ON 15
ud_6 -6.7369e-02 1 1  ON 16
ud_7 -4.8483e-02 1 1  ON 17
ud_8 -1.4200e-02 1 1  ON 18
ud_9 7.1280e-03 1 1  ON 19
eNi_0 -2.5232e+00 1 1  ON 20
eNi_1 -1.1818e+00 1 1  ON 21
eNi_2 2.5655e-01 1 1  ON 22
eNi_3 7.5967e-01 1 1  ON 23
eNi_4 7.4647e-01 1 1  ON 24
eNi_5 7.7593e-01 1 1  ON 25
eNi_6 7.6423e-01 1 1  ON 26
eNi_7 3.6610e-01 1 1  ON 27
eNi_8 4.6040e-02 1 1  ON 28
eNi_9 -6.2106e-03 1 1  ON 29
uuNi_0 2.5688e-06 1 1  ON 30
uuNi_1 5.3059e-07 1 1  ON 31
uuNi_2 -1.1968e-06 1 1  ON 32
uuNi_3 -3.2467e-06 1 1  ON 33
uuNi_4 -4.1030e-07 1 1  ON 34
uuNi_5 -4.5465e-07 1 1  ON 35
uuNi_6 -1.0532e-06 1 1  ON 36
uuNi_7 7.6330e-07 1 1  ON 37
uuNi_8 2.0578e-06 1 1  ON 38
uuNi_9 -1.7173e-06 1 1  ON 39
uuNi_10 -2.0133e-06 1 1  ON 40
uuNi_11 -5.5672e-07 1 1  ON 41
uuNi_12 -5.2529e-07 1 1  ON 42
uuNi_13 3.1212e-06 1 1  ON 43
uuNi_14 7.0213e-07 1 1  ON 44
uuNi_15 -2.1024e-08 1 1  ON 45
uuNi_16 1.1953e-06 1 1  ON 46
uuNi_17 3.8861e-06 1 1  ON 47
uuNi_18 -8.6428e-07 1 1  ON 48
uuNi_19 1.3793e-07 1 1  ON 49
uuNi_20 -1.1711e-06 1 1  ON 50
uuNi_21 2.0019e-08 1 1  ON 51
uuNi_22 7.4919e-09 1 1  ON 52
uuNi_23 6.4163e-07 1 1  ON 53
uuNi_24 -2.8730e-08 1 1  ON 54
uuNi_25 -1.2334e-09 1 1  ON 55
udNi_0 5.2571e-06 1 1  ON 56
udNi_1 4.5330e-06 1 1  ON 57
udNi_2 -2.7589e-06 1 1  ON 58
udNi_3 -6.1204e-06 1 1  ON 59
udNi_4 -9.6116e-07 1 1  ON 60
udNi_5 -1.0556e-07 1 1  ON 61
udNi_6 5.7346e-06 1 1  ON 62
udNi_7 -7.4862e-06 1 1  ON 63
udNi_8 -3.8168e-07 1 1  ON 64
udNi_9 -7.2501e-06 1 1  ON 65
udNi_10 -5.0895e-06 1 1  ON 66
udNi_11 5.3738e-06 1 1  ON 67
udNi_12 -4.1213e-07 1 1  ON 68
udNi_13 6.7669e-06 1 1  ON 69
udNi_14 -2.9419e-08 1 1  ON 70
udNi_15 3.4912e-08 1 1  ON 71
udNi_16 1.0219e-05 1 1  ON 72
udNi_17 6.0409e-06 1 1  ON 73
udNi_18 -5.3000e-06 1 1  ON 74
udNi_19 5.5846e-07 1 1  ON 75
udNi_20 -4.2080e-06 1 1  ON 76
udNi_21 8.3752e-07 1 1  ON 77
udNi_22 -1.0988e-07 1 1  ON 78
udNi_23 1.6441e-06 1 1  ON 79
udNi_24 -2.2195e-07 1 1  ON 80
udNi_25 2.9578e-08 1 1  ON 81
  </optVariables>
   Restore the number of walkers to 1, removing 0 walkers.
</opt>
</optimization-report>
  QMC Execution time = 8.7563e+00 secs
  Reusing QMCFixedSampleLinearOptimize
 Using QMCCostFunction::QMCCostFunction

=========================================================
  Start QMCFixedSampleLinearOptimize
  File Root Ni.log.s006 append = no 
=========================================================
  Skip QMCDriver::putQMCInfo 
  Resetting Properties of the walkers 1 x 13

=========================================================
  Start VMC
  File Root Ni.log.s006 append = no 
=========================================================
Using existing walkers 
  Resetting Properties of the walkers 1 x 13

<vmc function="put">
  qmc_counter=5  my_counter=5
  time step      = 1.5000e-01
  blocks         = 500
  steps          = 1
  substeps       = 5
  current        = 0
  target samples = 5.1200e+05
  walkers/mpi    = 1

  stepsbetweensamples = 1
<parameter name="blocks" condition="int">500</parameter>
<parameter name="blocks_between_recompute" condition="int">0</parameter>
<parameter name="check_properties" condition="int">100</parameter>
<parameter name="checkproperties" condition="int">100</parameter>
<parameter name="current" condition="int">0</parameter>
<parameter name="dmcwalkersperthread" condition="real">5.0000e+02</parameter>
<parameter name="maxcpusecs" condition="real">3.6000e+05</parameter>
<parameter name="record_configs" condition="int">0</parameter>
<parameter name="record_walkers" condition="int">1</parameter>
<parameter name="recordconfigs" condition="int">0</parameter>
<parameter name="recordwalkers" condition="int">1</parameter>
<parameter name="rewind" condition="int">0</parameter>
<parameter name="samples" condition="real">5.1200e+05</parameter>
<parameter name="samplesperthread" condition="real">5.0000e+02</parameter>
<parameter name="steps" condition="int">1</parameter>
<parameter name="stepsbetweensamples" condition="int">1</parameter>
<parameter name="store_configs" condition="int">0</parameter>
<parameter name="storeconfigs" condition="int">0</parameter>
<parameter name="sub_steps" condition="int">5</parameter>
<parameter name="substeps" condition="int">5</parameter>
<parameter name="tau" condition="au">1.5000e-01</parameter>
<parameter name="time_step" condition="au">1.5000e-01</parameter>
<parameter name="timestep" condition="au">1.5000e-01</parameter>
<parameter name="use_drift" condition="string">no</parameter>
<parameter name="usedrift" condition="string">no</parameter>
<parameter name="walkers" condition="int">1</parameter>
<parameter name="warmup_steps" condition="int">0</parameter>
<parameter name="warmupsteps" condition="int">0</parameter>
  DumpConfig==false Nothing (configurations, state) will be saved.
  Walker Samples are dumped every 1 steps.
</vmc>
  EstimatorManagerBase::add replace LocalEnergy estimator.
  EstimatorManagerBase::add replace LocalEnergy estimator.
<optimization-report>
<vmc stage="main" blocks="500">
  Cannot make clones again. Use existing 1 clones
  Initial partition of walkers 0 1 
  Using Particle by Particle moves
  Walker moves without drift
  Total Sample Size   =512000
  Walker distribution on root = 0 1 
  Using Locality Approximation
===== Memory Usage after the buffer registration =====
Available memory on node 0, free + buffers : 84105 MB
Memory footprint by rank 0 on node 0       : 109 MB
==================================================
====================================================
  SimpleFixedNodeBranch::finalize after a VMC block
    QMC counter        = 6
    time step          = 0.15
    reference energy   = -169.243
    reference variance = 2.59803
====================================================
  Execution time = 4.4729e+00
</vmc>
<opt stage="setup">
  <log>
   Reading configurations from h5FileRoot Ni.log.s006
  QMCCostFunction is created with 1 threads.
  Using Nonlocal PP in Opt: NonLocalECP
   Number of samples loaded to each thread : 500 
  VMC Eavg = -1.6927e+02
  VMC Evar = 2.4812e+00
  Total weights = 5.1200e+05
  Execution time = 3.0629e+00
  </log>
</opt>
<opt stage="main" walkers="512000">
  <log>

*****************************************
Building overlap and Hamiltonian matrices
*****************************************

Among totally 82 optimized parameters, largest LM parameter change : 5.0261e-02 at parameter 20

******************************************************************************
Init Cost =  -1.6068e+02    New Cost =  -1.6068e+02  Delta Cost =  -6.8054e-04
******************************************************************************

The new set of parameters is valid. Updating the trial wave function!

*****************************************************************************
Applying the update for shift_i =   1.0000e-02     and shift_s =   3.9062e-03
*****************************************************************************
  Execution time = 8.7775e+00
  </log>
  <optVariables href="Ni.log.s006.opt.xml">
uu_0 2.2166e-01 1 1  ON 0
uu_1 6.1056e-02 1 1  ON 1
uu_2 8.8757e-03 1 1  ON 2
uu_3 -2.5013e-02 1 1  ON 3
uu_4 -5.8458e-02 1 1  ON 4
uu_5 -7.2073e-02 1 1  ON 5
uu_6 -6.6395e-02 1 1  ON 6
uu_7 -4.2127e-02 1 1  ON 7
uu_8 -9.8651e-03 1 1  ON 8
uu_9 -1.0390e-02 1 1  ON 9
ud_0 3.3175e-01 1 1  ON 10
ud_1 7.6990e-02 1 1  ON 11
ud_2 -2.1360e-02 1 1  ON 12
ud_3 -3.0071e-02 1 1  ON 13
ud_4 -4.3168e-02 1 1  ON 14
ud_5 -8.1240e-02 1 1  ON 15
ud_6 -7.3058e-02 1 1  ON 16
ud_7 -4.5528e-02 1 1  ON 17
ud_8 -6.9616e-03 1 1  ON 18
ud_9 1.1261e-02 1 1  ON 19
eNi_0 -2.5734e+00 1 1  ON 20
eNi_1 -1.2101e+00 1 1  ON 21
eNi_2 2.8365e-01 1 1  ON 22
eNi_3 8.0498e-01 1 1  ON 23
eNi_4 7.5425e-01 1 1  ON 24
eNi_5 7.5549e-01 1 1  ON 25
eNi_6 7.6923e-01 1 1  ON 26
eNi_7 3.7932e-01 1 1  ON 27
eNi_8 4.9040e-02 1 1  ON 28
eNi_9 -6.2188e-03 1 1  ON 29
uuNi_0 2.5740e-06 1 1  ON 30
uuNi_1 2.4775e-07 1 1  ON 31
uuNi_2 -1.2476e-06 1 1  ON 32
uuNi_3 -3.1809e-06 1 1  ON 33
uuNi_4 -3.7371e-07 1 1  ON 34
uuNi_5 -5.4375e-07 1 1  ON 35
uuNi_6 -1.4589e-06 1 1  ON 36
uuNi_7 8.8228e-07 1 1  ON 37
uuNi_8 2.0137e-06 1 1  ON 38
uuNi_9 -1.4134e-06 1 1  ON 39
uuNi_10 -1.8754e-06 1 1  ON 40
uuNi_11 -6.3480e-07 1 1  ON 41
uuNi_12 -4.9833e-07 1 1  ON 42
uuNi_13 2.8943e-06 1 1  ON 43
uuNi_14 6.9087e-07 1 1  ON 44
uuNi_15 -2.2818e-08 1 1  ON 45
uuNi_16 6.2681e-07 1 1  ON 46
uuNi_17 3.7761e-06 1 1  ON 47
uuNi_18 -8.0642e-07 1 1  ON 48
uuNi_19 1.1941e-07 1 1  ON 49
uuNi_20 -9.2025e-07 1 1  ON 50
uuNi_21 8.9025e-09 1 1  ON 51
uuNi_22 9.8599e-09 1 1  ON 52
uuNi_23 5.3637e-07 1 1  ON 53
uuNi_24 -2.3518e-08 1 1  ON 54
uuNi_25 -1.8162e-09 1 1  ON 55
udNi_0 4.9403e-06 1 1  ON 56
udNi_1 4.6630e-06 1 1  ON 57
udNi_2 -2.1488e-06 1 1  ON 58
udNi_3 -5.9639e-06 1 1  ON 59
udNi_4 -1.0269e-06 1 1  ON 60
udNi_5 8.2726e-08 1 1  ON 61
udNi_6 6.2172e-06 1 1  ON 62
udNi_7 -7.0523e-06 1 1  ON 63
udNi_8 2.9111e-07 1 1  ON 64
udNi_9 -7.3667e-06 1 1  ON 65
udNi_10 -4.9772e-06 1 1  ON 66
udNi_11 4.5619e-06 1 1  ON 67
udNi_12 -5.3900e-07 1 1  ON 68
udNi_13 6.5568e-06 1 1  ON 69
udNi_14 8.1844e-08 1 1  ON 70
udNi_15 3.6821e-08 1 1  ON 71
udNi_16 1.0531e-05 1 1  ON 72
udNi_17 5.6498e-06 1 1  ON 73
udNi_18 -4.7482e-06 1 1  ON 74
udNi_19 5.5578e-07 1 1  ON 75
udNi_20 -4.0432e-06 1 1  ON 76
udNi_21 7.6155e-07 1 1  ON 77
udNi_22 -1.0391e-07 1 1  ON 78
udNi_23 1.5380e-06 1 1  ON 79
udNi_24 -2.0430e-07 1 1  ON 80
udNi_25 2.7428e-08 1 1  ON 81
  </optVariables>
   Restore the number of walkers to 1, removing 0 walkers.
</opt>
</optimization-report>
  QMC Execution time = 8.7910e+00 secs
  Reusing QMCFixedSampleLinearOptimize
 Using QMCCostFunction::QMCCostFunction

=========================================================
  Start QMCFixedSampleLinearOptimize
  File Root Ni.log.s007 append = no 
=========================================================
  Skip QMCDriver::putQMCInfo 
  Resetting Properties of the walkers 1 x 13

=========================================================
  Start VMC
  File Root Ni.log.s007 append = no 
=========================================================
Using existing walkers 
  Resetting Properties of the walkers 1 x 13

<vmc function="put">
  qmc_counter=6  my_counter=6
  time step      = 1.5000e-01
  blocks         = 500
  steps          = 1
  substeps       = 5
  current        = 0
  target samples = 5.1200e+05
  walkers/mpi    = 1

  stepsbetweensamples = 1
<parameter name="blocks" condition="int">500</parameter>
<parameter name="blocks_between_recompute" condition="int">0</parameter>
<parameter name="check_properties" condition="int">100</parameter>
<parameter name="checkproperties" condition="int">100</parameter>
<parameter name="current" condition="int">0</parameter>
<parameter name="dmcwalkersperthread" condition="real">5.0000e+02</parameter>
<parameter name="maxcpusecs" condition="real">3.6000e+05</parameter>
<parameter name="record_configs" condition="int">0</parameter>
<parameter name="record_walkers" condition="int">1</parameter>
<parameter name="recordconfigs" condition="int">0</parameter>
<parameter name="recordwalkers" condition="int">1</parameter>
<parameter name="rewind" condition="int">0</parameter>
<parameter name="samples" condition="real">5.1200e+05</parameter>
<parameter name="samplesperthread" condition="real">5.0000e+02</parameter>
<parameter name="steps" condition="int">1</parameter>
<parameter name="stepsbetweensamples" condition="int">1</parameter>
<parameter name="store_configs" condition="int">0</parameter>
<parameter name="storeconfigs" condition="int">0</parameter>
<parameter name="sub_steps" condition="int">5</parameter>
<parameter name="substeps" condition="int">5</parameter>
<parameter name="tau" condition="au">1.5000e-01</parameter>
<parameter name="time_step" condition="au">1.5000e-01</parameter>
<parameter name="timestep" condition="au">1.5000e-01</parameter>
<parameter name="use_drift" condition="string">no</parameter>
<parameter name="usedrift" condition="string">no</parameter>
<parameter name="walkers" condition="int">1</parameter>
<parameter name="warmup_steps" condition="int">0</parameter>
<parameter name="warmupsteps" condition="int">0</parameter>
  DumpConfig==false Nothing (configurations, state) will be saved.
  Walker Samples are dumped every 1 steps.
</vmc>
  EstimatorManagerBase::add replace LocalEnergy estimator.
  EstimatorManagerBase::add replace LocalEnergy estimator.
<optimization-report>
<vmc stage="main" blocks="500">
  Cannot make clones again. Use existing 1 clones
  Initial partition of walkers 0 1 
  Using Particle by Particle moves
  Walker moves without drift
  Total Sample Size   =512000
  Walker distribution on root = 0 1 
  Using Locality Approximation
===== Memory Usage after the buffer registration =====
Available memory on node 0, free + buffers : 84101 MB
Memory footprint by rank 0 on node 0       : 113 MB
==================================================
====================================================
  SimpleFixedNodeBranch::finalize after a VMC block
    QMC counter        = 7
    time step          = 0.15
    reference energy   = -169.193
    reference variance = 2.67014
====================================================
  Execution time = 4.4073e+00
</vmc>
<opt stage="setup">
  <log>
   Reading configurations from h5FileRoot Ni.log.s007
  QMCCostFunction is created with 1 threads.
  Using Nonlocal PP in Opt: NonLocalECP
   Number of samples loaded to each thread : 500 
  VMC Eavg = -1.6927e+02
  VMC Evar = 2.4296e+00
  Total weights = 5.1200e+05
  Execution time = 3.0554e+00
  </log>
</opt>
<opt stage="main" walkers="512000">
  <log>

*****************************************
Building overlap and Hamiltonian matrices
*****************************************

Among totally 82 optimized parameters, largest LM parameter change : 5.1088e-02 at parameter 20

******************************************************************************
Init Cost =  -1.6068e+02    New Cost =  -1.6068e+02  Delta Cost =  -4.4957e-04
******************************************************************************

The new set of parameters is valid. Updating the trial wave function!

*****************************************************************************
Applying the update for shift_i =   1.0000e-02     and shift_s =   3.9062e-03
*****************************************************************************
  Execution time = 8.7705e+00
  </log>
  <optVariables href="Ni.log.s007.opt.xml">
uu_0 2.1894e-01 1 1  ON 0
uu_1 5.7630e-02 1 1  ON 1
uu_2 1.0858e-02 1 1  ON 2
uu_3 -1.6990e-02 1 1  ON 3
uu_4 -5.1562e-02 1 1  ON 4
uu_5 -6.6395e-02 1 1  ON 5
uu_6 -6.0604e-02 1 1  ON 6
uu_7 -3.1776e-02 1 1  ON 7
uu_8 -1.2038e-02 1 1  ON 8
uu_9 -5.6845e-03 1 1  ON 9
ud_0 3.3768e-01 1 1  ON 10
ud_1 8.2803e-02 1 1  ON 11
ud_2 -1.1922e-02 1 1  ON 12
ud_3 -1.9753e-02 1 1  ON 13
ud_4 -3.4107e-02 1 1  ON 14
ud_5 -7.5751e-02 1 1  ON 15
ud_6 -6.4771e-02 1 1  ON 16
ud_7 -5.2291e-02 1 1  ON 17
ud_8 -1.4393e-02 1 1  ON 18
ud_9 1.3694e-02 1 1  ON 19
eNi_0 -2.6245e+00 1 1  ON 20
eNi_1 -1.2355e+00 1 1  ON 21
eNi_2 3.0612e-01 1 1  ON 22
eNi_3 8.5072e-01 1 1  ON 23
eNi_4 7.6629e-01 1 1  ON 24
eNi_5 7.3601e-01 1 1  ON 25
eNi_6 7.7288e-01 1 1  ON 26
eNi_7 3.9244e-01 1 1  ON 27
eNi_8 5.2476e-02 1 1  ON 28
eNi_9 -5.4784e-03 1 1  ON 29
uuNi_0 2.7727e-06 1 1  ON 30
uuNi_1 5.0874e-07 1 1  ON 31
uuNi_2 -1.5497e-06 1 1  ON 32
uuNi_3 -3.4804e-06 1 1  ON 33
uuNi_4 -4.3722e-07 1 1  ON 34
uuNi_5 -4.8562e-07 1 1  ON 35
uuNi_6 -1.1753e-06 1 1  ON 36
uuNi_7 3.0103e-07 1 1  ON 37
uuNi_8 1.8621e-06 1 1  ON 38
uuNi_9 -1.7718e-06 1 1  ON 39
uuNi_10 -2.2427e-06 1 1  ON 40
uuNi_11 1.0725e-07 1 1  ON 41
uuNi_12 -5.5324e-07 1 1  ON 42
uuNi_13 3.5746e-06 1 1  ON 43
uuNi_14 7.2686e-07 1 1  ON 44
uuNi_15 -2.1053e-08 1 1  ON 45
uuNi_16 9.1780e-07 1 1  ON 46
uuNi_17 4.7958e-06 1 1  ON 47
uuNi_18 -1.6387e-06 1 1  ON 48
uuNi_19 2.3341e-07 1 1  ON 49
uuNi_20 -1.3921e-06 1 1  ON 50
uuNi_21 1.1736e-07 1 1  ON 51
uuNi_22 -9.4399e-09 1 1  ON 52
uuNi_23 7.3987e-07 1 1  ON 53
uuNi_24 -5.5534e-08 1 1  ON 54
uuNi_25 3.5747e-09 1 1  ON 55
udNi_0 5.0903e-06 1 1  ON 56
udNi_1 4.7735e-06 1 1  ON 57
udNi_2 -2.2758e-06 1 1  ON 58
udNi_3 -6.0321e-06 1 1  ON 59
udNi_4 -1.0221e-06 1 1  ON 60
udNi_5 8.8472e-08 1 1  ON 61
udNi_6 6.4678e-06 1 1  ON 62
udNi_7 -7.4776e-06 1 1  ON 63
udNi_8 2.5027e-08 1 1  ON 64
udNi_9 -7.7060e-06 1 1  ON 65
udNi_10 -5.0306e-06 1 1  ON 66
udNi_11 4.8498e-06 1 1  ON 67
udNi_12 -4.6688e-07 1 1  ON 68
udNi_13 6.7416e-06 1 1  ON 69
udNi_14 -6.7413e-09 1 1  ON 70
udNi_15 3.8679e-08 1 1  ON 71
udNi_16 1.1178e-05 1 1  ON 72
udNi_17 5.5832e-06 1 1  ON 73
udNi_18 -4.8509e-06 1 1  ON 74
udNi_19 5.3456e-07 1 1  ON 75
udNi_20 -4.3477e-06 1 1  ON 76
udNi_21 8.0115e-07 1 1  ON 77
udNi_22 -1.0712e-07 1 1  ON 78
udNi_23 1.6535e-06 1 1  ON 79
udNi_24 -2.1621e-07 1 1  ON 80
udNi_25 2.9014e-08 1 1  ON 81
  </optVariables>
   Restore the number of walkers to 1, removing 0 walkers.
</opt>
</optimization-report>
  QMC Execution time = 8.7835e+00 secs
  Reusing QMCFixedSampleLinearOptimize
 Using QMCCostFunction::QMCCostFunction

=========================================================
  Start QMCFixedSampleLinearOptimize
  File Root Ni.log.s008 append = no 
=========================================================
  Skip QMCDriver::putQMCInfo 
  Resetting Properties of the walkers 1 x 13

=========================================================
  Start VMC
  File Root Ni.log.s008 append = no 
=========================================================
Using existing walkers 
  Resetting Properties of the walkers 1 x 13

<vmc function="put">
  qmc_counter=7  my_counter=7
  time step      = 1.5000e-01
  blocks         = 500
  steps          = 1
  substeps       = 5
  current        = 0
  target samples = 5.1200e+05
  walkers/mpi    = 1

  stepsbetweensamples = 1
<parameter name="blocks" condition="int">500</parameter>
<parameter name="blocks_between_recompute" condition="int">0</parameter>
<parameter name="check_properties" condition="int">100</parameter>
<parameter name="checkproperties" condition="int">100</parameter>
<parameter name="current" condition="int">0</parameter>
<parameter name="dmcwalkersperthread" condition="real">5.0000e+02</parameter>
<parameter name="maxcpusecs" condition="real">3.6000e+05</parameter>
<parameter name="record_configs" condition="int">0</parameter>
<parameter name="record_walkers" condition="int">1</parameter>
<parameter name="recordconfigs" condition="int">0</parameter>
<parameter name="recordwalkers" condition="int">1</parameter>
<parameter name="rewind" condition="int">0</parameter>
<parameter name="samples" condition="real">5.1200e+05</parameter>
<parameter name="samplesperthread" condition="real">5.0000e+02</parameter>
<parameter name="steps" condition="int">1</parameter>
<parameter name="stepsbetweensamples" condition="int">1</parameter>
<parameter name="store_configs" condition="int">0</parameter>
<parameter name="storeconfigs" condition="int">0</parameter>
<parameter name="sub_steps" condition="int">5</parameter>
<parameter name="substeps" condition="int">5</parameter>
<parameter name="tau" condition="au">1.5000e-01</parameter>
<parameter name="time_step" condition="au">1.5000e-01</parameter>
<parameter name="timestep" condition="au">1.5000e-01</parameter>
<parameter name="use_drift" condition="string">no</parameter>
<parameter name="usedrift" condition="string">no</parameter>
<parameter name="walkers" condition="int">1</parameter>
<parameter name="warmup_steps" condition="int">0</parameter>
<parameter name="warmupsteps" condition="int">0</parameter>
  DumpConfig==false Nothing (configurations, state) will be saved.
  Walker Samples are dumped every 1 steps.
</vmc>
  EstimatorManagerBase::add replace LocalEnergy estimator.
  EstimatorManagerBase::add replace LocalEnergy estimator.
<optimization-report>
<vmc stage="main" blocks="500">
  Cannot make clones again. Use existing 1 clones
  Initial partition of walkers 0 1 
  Using Particle by Particle moves
  Walker moves without drift
  Total Sample Size   =512000
  Walker distribution on root = 0 1 
  Using Locality Approximation
===== Memory Usage after the buffer registration =====
Available memory on node 0, free + buffers : 84097 MB
Memory footprint by rank 0 on node 0       : 116 MB
==================================================
====================================================
  SimpleFixedNodeBranch::finalize after a VMC block
    QMC counter        = 8
    time step          = 0.15
    reference energy   = -169.214
    reference variance = 2.00201
====================================================
  Execution time = 4.3993e+00
</vmc>
<opt stage="setup">
  <log>
   Reading configurations from h5FileRoot Ni.log.s008
  QMCCostFunction is created with 1 threads.
  Using Nonlocal PP in Opt: NonLocalECP
   Number of samples loaded to each thread : 500 
  VMC Eavg = -1.6926e+02
  VMC Evar = 2.4818e+00
  Total weights = 5.1200e+05
  Execution time = 3.0745e+00
  </log>
</opt>
<opt stage="main" walkers="512000">
  <log>

*****************************************
Building overlap and Hamiltonian matrices
*****************************************

Among totally 82 optimized parameters, largest LM parameter change : 4.8875e-02 at parameter 20

******************************************************************************
Init Cost =  -1.6068e+02    New Cost =  -1.6068e+02  Delta Cost =   1.9569e-04
******************************************************************************

The new set of parameters is valid. Updating the trial wave function!

*****************************************************************************
Applying the update for shift_i =   1.0000e-02     and shift_s =   3.9062e-03
*****************************************************************************
  Execution time = 8.7000e+00
  </log>
  <optVariables href="Ni.log.s008.opt.xml">
uu_0 2.1976e-01 1 1  ON 0
uu_1 5.7894e-02 1 1  ON 1
uu_2 1.1399e-02 1 1  ON 2
uu_3 -1.9083e-02 1 1  ON 3
uu_4 -5.2600e-02 1 1  ON 4
uu_5 -7.2083e-02 1 1  ON 5
uu_6 -6.6347e-02 1 1  ON 6
uu_7 -3.2721e-02 1 1  ON 7
uu_8 -1.5607e-02 1 1  ON 8
uu_9 2.4519e-03 1 1  ON 9
ud_0 3.4226e-01 1 1  ON 10
ud_1 8.6832e-02 1 1  ON 11
ud_2 -1.1856e-02 1 1  ON 12
ud_3 -2.3935e-02 1 1  ON 13
ud_4 -3.3137e-02 1 1  ON 14
ud_5 -6.9461e-02 1 1  ON 15
ud_6 -6.2374e-02 1 1  ON 16
ud_7 -5.0716e-02 1 1  ON 17
ud_8 -2.6136e-02 1 1  ON 18
ud_9 6.5241e-03 1 1  ON 19
eNi_0 -2.6734e+00 1 1  ON 20
eNi_1 -1.2633e+00 1 1  ON 21
eNi_2 3.3630e-01 1 1  ON 22
eNi_3 8.9136e-01 1 1  ON 23
eNi_4 7.7235e-01 1 1  ON 24
eNi_5 7.2229e-01 1 1  ON 25
eNi_6 7.7431e-01 1 1  ON 26
eNi_7 4.0232e-01 1 1  ON 27
eNi_8 5.3401e-02 1 1  ON 28
eNi_9 -4.8638e-03 1 1  ON 29
uuNi_0 2.6067e-06 1 1  ON 30
uuNi_1 1.4037e-07 1 1  ON 31
uuNi_2 -1.3419e-06 1 1  ON 32
uuNi_3 -3.1861e-06 1 1  ON 33
uuNi_4 -3.7373e-07 1 1  ON 34
uuNi_5 -5.0168e-07 1 1  ON 35
uuNi_6 -1.6478e-06 1 1  ON 36
uuNi_7 5.7280e-07 1 1  ON 37
uuNi_8 2.0968e-06 1 1  ON 38
uuNi_9 -1.2526e-06 1 1  ON 39
uuNi_10 -1.8684e-06 1 1  ON 40
uuNi_11 -4.6804e-07 1 1  ON 41
uuNi_12 -5.8060e-07 1 1  ON 42
uuNi_13 3.1285e-06 1 1  ON 43
uuNi_14 7.7492e-07 1 1  ON 44
uuNi_15 -2.2367e-08 1 1  ON 45
uuNi_16 2.4084e-07 1 1  ON 46
uuNi_17 4.3131e-06 1 1  ON 47
uuNi_18 -1.0214e-06 1 1  ON 48
uuNi_19 1.8740e-07 1 1  ON 49
uuNi_20 -1.1026e-06 1 1  ON 50
uuNi_21 1.1561e-08 1 1  ON 51
uuNi_22 4.3682e-09 1 1  ON 52
uuNi_23 6.4297e-07 1 1  ON 53
uuNi_24 -3.2779e-08 1 1  ON 54
uuNi_25 -2.4429e-10 1 1  ON 55
udNi_0 5.0738e-06 1 1  ON 56
udNi_1 4.6782e-06 1 1  ON 57
udNi_2 -2.1962e-06 1 1  ON 58
udNi_3 -5.9071e-06 1 1  ON 59
udNi_4 -9.7546e-07 1 1  ON 60
udNi_5 1.1231e-07 1 1  ON 61
udNi_6 6.3247e-06 1 1  ON 62
udNi_7 -7.1170e-06 1 1  ON 63
udNi_8 1.8630e-07 1 1  ON 64
udNi_9 -7.6438e-06 1 1  ON 65
udNi_10 -4.8660e-06 1 1  ON 66
udNi_11 4.4744e-06 1 1  ON 67
udNi_12 -4.7488e-07 1 1  ON 68
udNi_13 6.5766e-06 1 1  ON 69
udNi_14 4.6295e-08 1 1  ON 70
udNi_15 3.3167e-08 1 1  ON 71
udNi_16 1.1132e-05 1 1  ON 72
udNi_17 5.4167e-06 1 1  ON 73
udNi_18 -4.5776e-06 1 1  ON 74
udNi_19 5.0981e-07 1 1  ON 75
udNi_20 -4.2886e-06 1 1  ON 76
udNi_21 7.5697e-07 1 1  ON 77
udNi_22 -1.0023e-07 1 1  ON 78
udNi_23 1.6377e-06 1 1  ON 79
udNi_24 -2.1022e-07 1 1  ON 80
udNi_25 2.7965e-08 1 1  ON 81
  </optVariables>
   Restore the number of walkers to 1, removing 0 walkers.
</opt>
</optimization-report>
  QMC Execution time = 8.7132e+00 secs
  Reusing QMCFixedSampleLinearOptimize
 Using QMCCostFunction::QMCCostFunction

=========================================================
  Start QMCFixedSampleLinearOptimize
  File Root Ni.log.s009 append = no 
=========================================================
  Skip QMCDriver::putQMCInfo 
  Resetting Properties of the walkers 1 x 13

=========================================================
  Start VMC
  File Root Ni.log.s009 append = no 
=========================================================
Using existing walkers 
  Resetting Properties of the walkers 1 x 13

<vmc function="put">
  qmc_counter=8  my_counter=8
  time step      = 1.5000e-01
  blocks         = 500
  steps          = 1
  substeps       = 5
  current        = 0
  target samples = 5.1200e+05
  walkers/mpi    = 1

  stepsbetweensamples = 1
<parameter name="blocks" condition="int">500</parameter>
<parameter name="blocks_between_recompute" condition="int">0</parameter>
<parameter name="check_properties" condition="int">100</parameter>
<parameter name="checkproperties" condition="int">100</parameter>
<parameter name="current" condition="int">0</parameter>
<parameter name="dmcwalkersperthread" condition="real">5.0000e+02</parameter>
<parameter name="maxcpusecs" condition="real">3.6000e+05</parameter>
<parameter name="record_configs" condition="int">0</parameter>
<parameter name="record_walkers" condition="int">1</parameter>
<parameter name="recordconfigs" condition="int">0</parameter>
<parameter name="recordwalkers" condition="int">1</parameter>
<parameter name="rewind" condition="int">0</parameter>
<parameter name="samples" condition="real">5.1200e+05</parameter>
<parameter name="samplesperthread" condition="real">5.0000e+02</parameter>
<parameter name="steps" condition="int">1</parameter>
<parameter name="stepsbetweensamples" condition="int">1</parameter>
<parameter name="store_configs" condition="int">0</parameter>
<parameter name="storeconfigs" condition="int">0</parameter>
<parameter name="sub_steps" condition="int">5</parameter>
<parameter name="substeps" condition="int">5</parameter>
<parameter name="tau" condition="au">1.5000e-01</parameter>
<parameter name="time_step" condition="au">1.5000e-01</parameter>
<parameter name="timestep" condition="au">1.5000e-01</parameter>
<parameter name="use_drift" condition="string">no</parameter>
<parameter name="usedrift" condition="string">no</parameter>
<parameter name="walkers" condition="int">1</parameter>
<parameter name="warmup_steps" condition="int">0</parameter>
<parameter name="warmupsteps" condition="int">0</parameter>
  DumpConfig==false Nothing (configurations, state) will be saved.
  Walker Samples are dumped every 1 steps.
</vmc>
  EstimatorManagerBase::add replace LocalEnergy estimator.
  EstimatorManagerBase::add replace LocalEnergy estimator.
<optimization-report>
<vmc stage="main" blocks="500">
  Cannot make clones again. Use existing 1 clones
  Initial partition of walkers 0 1 
  Using Particle by Particle moves
  Walker moves without drift
  Total Sample Size   =512000
  Walker distribution on root = 0 1 
  Using Locality Approximation
===== Memory Usage after the buffer registration =====
Available memory on node 0, free + buffers : 84094 MB
Memory footprint by rank 0 on node 0       : 119 MB
==================================================
====================================================
  SimpleFixedNodeBranch::finalize after a VMC block
    QMC counter        = 9
    time step          = 0.15
    reference energy   = -169.319
    reference variance = 3.06467
====================================================
  Execution time = 4.5035e+00
</vmc>
<opt stage="setup">
  <log>
   Reading configurations from h5FileRoot Ni.log.s009
  QMCCostFunction is created with 1 threads.
  Using Nonlocal PP in Opt: NonLocalECP
   Number of samples loaded to each thread : 500 
  VMC Eavg = -1.6927e+02
  VMC Evar = 2.5337e+00
  Total weights = 5.1200e+05
  Execution time = 3.0638e+00
  </log>
</opt>
<opt stage="main" walkers="512000">
  <log>

*****************************************
Building overlap and Hamiltonian matrices
*****************************************

Among totally 82 optimized parameters, largest LM parameter change : 4.8832e-02 at parameter 20

******************************************************************************
Init Cost =  -1.6068e+02    New Cost =  -1.6068e+02  Delta Cost =  -2.8284e-04
******************************************************************************

The new set of parameters is valid. Updating the trial wave function!

*****************************************************************************
Applying the update for shift_i =   1.0000e-02     and shift_s =   3.9062e-03
*****************************************************************************
  Execution time = 8.7799e+00
  </log>
  <optVariables href="Ni.log.s009.opt.xml">
uu_0 2.2265e-01 1 1  ON 0
uu_1 5.8271e-02 1 1  ON 1
uu_2 6.6205e-03 1 1  ON 2
uu_3 -2.3392e-02 1 1  ON 3
uu_4 -5.4897e-02 1 1  ON 4
uu_5 -6.7357e-02 1 1  ON 5
uu_6 -6.5346e-02 1 1  ON 6
uu_7 -3.6601e-02 1 1  ON 7
uu_8 -5.4310e-03 1 1  ON 8
uu_9 -1.2668e-02 1 1  ON 9
ud_0 3.4636e-01 1 1  ON 10
ud_1 8.7799e-02 1 1  ON 11
ud_2 -1.3414e-02 1 1  ON 12
ud_3 -2.6673e-02 1 1  ON 13
ud_4 -3.9501e-02 1 1  ON 14
ud_5 -7.4853e-02 1 1  ON 15
ud_6 -6.6338e-02 1 1  ON 16
ud_7 -4.1750e-02 1 1  ON 17
ud_8 -2.4820e-02 1 1  ON 18
ud_9 -1.9866e-03 1 1  ON 19
eNi_0 -2.7222e+00 1 1  ON 20
eNi_1 -1.2907e+00 1 1  ON 21
eNi_2 3.6323e-01 1 1  ON 22
eNi_3 9.3046e-01 1 1  ON 23
eNi_4 7.8501e-01 1 1  ON 24
eNi_5 7.0404e-01 1 1  ON 25
eNi_6 7.7748e-01 1 1  ON 26
eNi_7 4.1283e-01 1 1  ON 27
eNi_8 5.6962e-02 1 1  ON 28
eNi_9 -7.8232e-03 1 1  ON 29
uuNi_0 2.9178e-06 1 1  ON 30
uuNi_1 3.1825e-07 1 1  ON 31
uuNi_2 -1.5130e-06 1 1  ON 32
uuNi_3 -3.2710e-06 1 1  ON 33
uuNi_4 -3.3271e-07 1 1  ON 34
uuNi_5 -4.5582e-07 1 1  ON 35
uuNi_6 -1.3861e-06 1 1  ON 36
uuNi_7 5.4656e-07 1 1  ON 37
uuNi_8 1.8668e-06 1 1  ON 38
uuNi_9 -1.8306e-06 1 1  ON 39
uuNi_10 -1.9427e-06 1 1  ON 40
uuNi_11 -5.1979e-07 1 1  ON 41
uuNi_12 -4.5297e-07 1 1  ON 42
uuNi_13 3.2581e-06 1 1  ON 43
uuNi_14 6.6246e-07 1 1  ON 44
uuNi_15 -2.4235e-08 1 1  ON 45
uuNi_16 1.5310e-06 1 1  ON 46
uuNi_17 3.8191e-06 1 1  ON 47
uuNi_18 -6.8380e-07 1 1  ON 48
uuNi_19 7.4507e-08 1 1  ON 49
uuNi_20 -1.4543e-06 1 1  ON 50
[...]
====================================================
  Execution time = 4.5196e+00
</vmc>
<opt stage="setup">
  <log>
   Reading configurations from h5FileRoot Ni.log.s020
  QMCCostFunction is created with 1 threads.
  Using Nonlocal PP in Opt: NonLocalECP
   Number of samples loaded to each thread : 500 
  VMC Eavg = -1.6927e+02
  VMC Evar = 2.5048e+00
  Total weights = 5.1200e+05
  Execution time = 3.0548e+00
  </log>
</opt>
<opt stage="main" walkers="512000">
  <log>

*****************************************
Building overlap and Hamiltonian matrices
*****************************************

Among totally 82 optimized parameters, largest LM parameter change : 3.0874e-02 at parameter 20

******************************************************************************
Init Cost =  -1.6068e+02    New Cost =  -1.6068e+02  Delta Cost =  -5.6102e-04
******************************************************************************

The new set of parameters is valid. Updating the trial wave function!

*****************************************************************************
Applying the update for shift_i =   1.0000e-02     and shift_s =   3.9062e-03
*****************************************************************************
  Execution time = 8.7845e+00
  </log>
  <optVariables href="Ni.log.s020.opt.xml">
uu_0 1.9326e-01 1 1  ON 0
uu_1 3.3626e-02 1 1  ON 1
uu_2 -1.0160e-02 1 1  ON 2
uu_3 -3.0646e-02 1 1  ON 3
uu_4 -5.7028e-02 1 1  ON 4
uu_5 -6.9097e-02 1 1  ON 5
uu_6 -6.9988e-02 1 1  ON 6
uu_7 -4.7659e-02 1 1  ON 7
uu_8 -2.8119e-03 1 1  ON 8
uu_9 1.0613e-02 1 1  ON 9
ud_0 3.1876e-01 1 1  ON 10
ud_1 6.4152e-02 1 1  ON 11
ud_2 -2.6051e-02 1 1  ON 12
ud_3 -2.4732e-02 1 1  ON 13
ud_4 -3.1090e-02 1 1  ON 14
ud_5 -7.2708e-02 1 1  ON 15
ud_6 -7.2454e-02 1 1  ON 16
ud_7 -6.7928e-02 1 1  ON 17
ud_8 -2.2457e-02 1 1  ON 18
ud_9 -1.2191e-03 1 1  ON 19
eNi_0 -3.1605e+00 1 1  ON 20
eNi_1 -1.5048e+00 1 1  ON 21
eNi_2 5.2722e-01 1 1  ON 22
eNi_3 1.2933e+00 1 1  ON 23
eNi_4 9.2808e-01 1 1  ON 24
eNi_5 5.5160e-01 1 1  ON 25
eNi_6 7.7485e-01 1 1  ON 26
eNi_7 4.9650e-01 1 1  ON 27
eNi_8 1.0787e-01 1 1  ON 28
eNi_9 -1.2295e-02 1 1  ON 29
uuNi_0 2.8243e-06 1 1  ON 30
uuNi_1 1.6591e-07 1 1  ON 31
uuNi_2 -1.9206e-06 1 1  ON 32
uuNi_3 -3.5279e-06 1 1  ON 33
uuNi_4 -3.4323e-07 1 1  ON 34
uuNi_5 -3.6765e-07 1 1  ON 35
uuNi_6 -1.8429e-06 1 1  ON 36
uuNi_7 3.4960e-07 1 1  ON 37
uuNi_8 1.3593e-06 1 1  ON 38
uuNi_9 -1.3197e-06 1 1  ON 39
uuNi_10 -2.1512e-06 1 1  ON 40
uuNi_11 4.9618e-07 1 1  ON 41
uuNi_12 -4.4015e-07 1 1  ON 42
uuNi_13 3.2308e-06 1 1  ON 43
uuNi_14 6.3334e-07 1 1  ON 44
uuNi_15 -2.2878e-08 1 1  ON 45
uuNi_16 -4.4063e-08 1 1  ON 46
uuNi_17 4.7458e-06 1 1  ON 47
uuNi_18 -1.9251e-06 1 1  ON 48
uuNi_19 2.5029e-07 1 1  ON 49
uuNi_20 -1.0360e-06 1 1  ON 50
uuNi_21 1.3596e-07 1 1  ON 51
uuNi_22 -1.4960e-08 1 1  ON 52
uuNi_23 5.6573e-07 1 1  ON 53
uuNi_24 -4.5973e-08 1 1  ON 54
uuNi_25 3.3015e-09 1 1  ON 55
udNi_0 5.2906e-06 1 1  ON 56
udNi_1 4.8078e-06 1 1  ON 57
udNi_2 -2.4699e-06 1 1  ON 58
udNi_3 -6.0648e-06 1 1  ON 59
udNi_4 -9.9703e-07 1 1  ON 60
udNi_5 4.8472e-07 1 1  ON 61
udNi_6 6.5617e-06 1 1  ON 62
udNi_7 -7.7595e-06 1 1  ON 63
udNi_8 -1.4992e-07 1 1  ON 64
udNi_9 -8.0130e-06 1 1  ON 65
udNi_10 -5.0770e-06 1 1  ON 66
udNi_11 5.0154e-06 1 1  ON 67
udNi_12 -4.5142e-07 1 1  ON 68
udNi_13 6.8224e-06 1 1  ON 69
udNi_14 -3.8499e-08 1 1  ON 70
udNi_15 4.1184e-08 1 1  ON 71
udNi_16 1.1783e-05 1 1  ON 72
udNi_17 5.5045e-06 1 1  ON 73
udNi_18 -4.8921e-06 1 1  ON 74
udNi_19 5.6407e-07 1 1  ON 75
udNi_20 -4.5493e-06 1 1  ON 76
udNi_21 8.0669e-07 1 1  ON 77
udNi_22 -1.1336e-07 1 1  ON 78
udNi_23 1.6992e-06 1 1  ON 79
udNi_24 -2.2201e-07 1 1  ON 80
udNi_25 3.0921e-08 1 1  ON 81
  </optVariables>
   Restore the number of walkers to 1, removing 0 walkers.
</opt>
</optimization-report>
  QMC Execution time = 8.7970e+00 secs

=========================================================
  Start VMC
  File Root Ni.log.s021 append = no 
=========================================================
  Using the current 1 walkers.
  Total number of walkers: 1.0240e+03
  Total weight: 1.0240e+03
  Resetting Properties of the walkers 1 x 13

<vmc function="put">
  qmc_counter=0  my_counter=0
  time step      = 1.5000e-01
  blocks         = 200
  steps          = 1
  substeps       = 30
  current        = 0
  target samples = 4.0960e+03
  walkers/mpi    = 1

  stepsbetweensamples = 50
<parameter name="blocks" condition="int">200</parameter>
<parameter name="blocks_between_recompute" condition="int">0</parameter>
<parameter name="check_properties" condition="int">100</parameter>
<parameter name="checkproperties" condition="int">100</parameter>
<parameter name="current" condition="int">0</parameter>
<parameter name="dmcwalkersperthread" condition="real">4.0000e+00</parameter>
<parameter name="maxcpusecs" condition="real">3.6000e+05</parameter>
<parameter name="record_configs" condition="int">0</parameter>
<parameter name="record_walkers" condition="int">50</parameter>
<parameter name="recordconfigs" condition="int">0</parameter>
<parameter name="recordwalkers" condition="int">50</parameter>
<parameter name="rewind" condition="int">0</parameter>
<parameter name="samples" condition="real">4.0960e+03</parameter>
<parameter name="samplesperthread" condition="real">4.0000e+00</parameter>
<parameter name="steps" condition="int">1</parameter>
<parameter name="stepsbetweensamples" condition="int">50</parameter>
<parameter name="store_configs" condition="int">0</parameter>
<parameter name="storeconfigs" condition="int">0</parameter>
<parameter name="sub_steps" condition="int">30</parameter>
<parameter name="substeps" condition="int">30</parameter>
<parameter name="tau" condition="au">1.5000e-01</parameter>
<parameter name="time_step" condition="au">1.5000e-01</parameter>
<parameter name="timestep" condition="au">1.5000e-01</parameter>
<parameter name="use_drift" condition="string">no</parameter>
<parameter name="usedrift" condition="string">no</parameter>
<parameter name="walkers" condition="int">1</parameter>
<parameter name="warmup_steps" condition="int">100</parameter>
<parameter name="warmupsteps" condition="int">100</parameter>
  DumpConfig==false Nothing (configurations, state) will be saved.
  Walker Samples are dumped every 50 steps.
</vmc>
  EstimatorManagerBase::add replace LocalEnergy estimator.
  Cannot make clones again. Use existing 1 clones
  Initial partition of walkers 0 1 

  Using Particle by Particle moves
  Walker moves without drift
  Total Sample Size   =4096
  Walker distribution on root = 0 1 
  Using Locality Approximation
===== Memory Usage after the buffer registration =====
Available memory on node 0, free + buffers : 84041 MB
Memory footprint by rank 0 on node 0       : 157 MB
==================================================
  Anonymous Buffer size per walker : 10208 Bytes.
MEMORY increase 0 MB VMC::resetRun
====================================================
  SimpleFixedNodeBranch::finalize after a VMC block
    QMC counter        = 21
    time step          = 0.15
    reference energy   = -169.353
    reference variance = 2.46223
====================================================
  QMC Execution time = 6.6022e+00 secs

=========================================================
  Start DMC
  File Root Ni.log.s022 append = no 
=========================================================
Using existing walkers 
  Resetting Properties of the walkers 1 x 13
  EstimatorManagerBase::add replace LocalEnergy estimator.
  Cannot make clones again. Use existing 1 clones
  Total number of walkers: 4.0960e+03
  Total weight: 4.0960e+03
  Creating WalkerController: target  number of walkers = 4096
  Using WalkerControlMPI for dynamic population control.
  START ALL OVER 
  WalkerControlBase parameters 
    maxCopy = 2
    Max Walkers per MPI rank 9
    Min Walkers per MPI rank 1
    Using non-blocking send/recv
  QMC counter      = 22
  time step        = 2.0000e-02
  effective time step = 2.0000e-02
  trial energy     = -1.6935e+02
  reference energy = -1.6935e+02
  Feedback = 1.0000e+00
  reference variance = 2.4622e+00
  target walkers = 4096
  branching cutoff scheme classic
  branch cutoff = 5.0000e+01 7.5000e+01
  Max and minimum walkers per node= 9 1
  QMC Status (BranchMode) = 0000001101
  Initial partition of walkers on a node: 0 4 
  Updates by particle-by-particle moves
  DMC moves are rejected when a node crossing is detected
  Using Non-local T-moves v0, M. Casula, PRB 74, 161102(R) (2006)
===== Memory Usage after the buffer registration =====
Available memory on node 0, free + buffers : 84040 MB
Memory footprint by rank 0 on node 0       : 157 MB
==================================================
SimpleFixedNodeBranch::checkParameters 
  Average Energy of a population  = -169.295
  Energy Variance = 2.39919

  Fluctuating population
  Persistent walkers are killed after 1 MC sweeps
  BranchInterval = 1
  Steps per block = 50
  Number of blocks = 150

  DMC Engine Initialization = 3.7562e-02 secs

 Warmup is completed after 100

  TauEff     = 1.7763e-02
 TauEff/Tau = 8.8815e-01
  Etrial     = -1.6944e+02
 Running average of energy = -1.6933e+02
                  Variance = 2.7314e+00
branch cutoff = 2.7314e+01 4.0972e+01
====================================================
  SimpleFixedNodeBranch::finalize after a DMC block
    QMC counter                   = 22
    time step                     = 0.02
    effective time step           = 0.0177668
    trial energy                  = -169.324
    reference energy              = -169.331
    reference variance            = 2.73144
    target walkers                = 4096
    branch cutoff                 = 27.3144 40.9716
    Max and minimum walkers per node= 9 1
    Feedback                      = 1
    QMC Status (BranchMode)       = 0000001111
====================================================
  QMC Execution time = 1.0915e+02 secs
  Reusing DMC
BRANCH resetRun
 SimpleFixedNodeBranch::resetRun detected changes in <parameter>'s 
 BranchMode : 0000001111 0000001111
  WalkerControlBase parameters 
    maxCopy = 2
    Max Walkers per MPI rank 9
    Min Walkers per MPI rank 1
    Using non-blocking send/recv
 iParam (old):                  0                 1                22              4096                 9                 1                 1                 0
 iParam (new):                100                 1                22              4096                 9                 1                 1                 0
 vParam (old):   2.0000000000e-02  1.7766820590e-02 -1.6932394799e+02 -1.6933056160e+02 -1.6930779895e+02  4.0971649153e+01  2.7314432769e+01  7.3221363113e-02  2.7314432769e+00 -1.2532154637e+06  7.4010000000e+03  1.0000000000e+00  1.0000000000e+01  1.0000000000e+00  1.0000000000e+00  1.0000000000e+00  1.0000000000e+00
 vParam (new):   1.0000000000e-02  1.7766820590e-02 -1.6932394799e+02 -1.6933056160e+02 -1.6930779895e+02  4.0971649153e+01  2.7314432769e+01  7.3221363113e-02  2.7314432769e+00 -1.2532154637e+06  7.4010000000e+03  1.0000000000e+00  1.0000000000e+01  1.0000000000e+00  1.0000000000e+00  1.0000000000e+00  1.0000000000e+00

 Using branching cutoff scheme classic
SimpleFixedNodeBranch::checkParameters 
  Average Energy of a population  = -169.318
  Energy Variance = 3.29686

  Using Non-local T-moves v0, M. Casula, PRB 74, 161102(R) (2006)
===== Memory Usage after the buffer registration =====
Available memory on node 0, free + buffers : 83999 MB
Memory footprint by rank 0 on node 0       : 164 MB
==================================================

=========================================================
  Start DMC
  File Root Ni.log.s023 append = no 
=========================================================
Using existing walkers 
  Resetting Properties of the walkers 1 x 13
  EstimatorManagerBase::add replace LocalEnergy estimator.
  Cannot make clones again. Use existing 1 clones
SimpleFixedNodeBranch::checkParameters 
  Average Energy of a population  = -169.328
  Energy Variance = 4.67791

  Fluctuating population
  Persistent walkers are killed after 1 MC sweeps
  BranchInterval = 1
  Steps per block = 100
  Number of blocks = 200

  DMC Engine Initialization = 3.0088424683e-04 secs

 Warmup is completed after 100

  TauEff     = 9.4840588751e-03
 TauEff/Tau = 9.4840588751e-01
  Etrial     = -1.6933793829e+02
 Running average of energy = -1.6931702791e+02
                  Variance = 2.7345553097e+00
branch cutoff = 2.7345553097e+01 4.1018329645e+01
====================================================
  SimpleFixedNodeBranch::finalize after a DMC block
    QMC counter                   = 23
    time step                     = 0.01
    effective time step           = 0.00948442
    trial energy                  = -169.344
    reference energy              = -169.32
    reference variance            = 2.73456
    target walkers                = 4096
    branch cutoff                 = 27.3456 41.0183
    Max and minimum walkers per node= 9 1
    Feedback                      = 1
    QMC Status (BranchMode)       = 0000001111
====================================================
  QMC Execution time = 2.9527e+02 secs
  Reusing DMC
BRANCH resetRun
 SimpleFixedNodeBranch::resetRun detected changes in <parameter>'s 
 BranchMode : 0000001111 0000001111
  WalkerControlBase parameters 
    maxCopy = 2
    Max Walkers per MPI rank 9
    Min Walkers per MPI rank 1
    Using non-blocking send/recv
 iParam (old):                  0                 1                23              4096                 9                 1                 1                 0
 iParam (new):                200                 1                23              4096                 9                 1                 1                 0
 vParam (old):   1.0000000000e-02  9.4844154499e-03 -1.6934411580e+02 -1.6931999500e+02 -1.6930671825e+02  4.1018329645e+01  2.7345553097e+01  7.3138034288e-02  2.7345553097e+00 -3.3696372073e+06  1.9901000000e+04  1.0000000000e+00  1.0000000000e+01  1.0000000000e+00  1.0000000000e+00  1.0000000000e+00  1.0000000000e+00
 vParam (new):   5.0000000000e-03  9.4844154499e-03 -1.6934411580e+02 -1.6931999500e+02 -1.6930671825e+02  4.1018329645e+01  2.7345553097e+01  7.3138034288e-02  2.7345553097e+00 -3.3696372073e+06  1.9901000000e+04  1.0000000000e+00  1.0000000000e+01  1.0000000000e+00  1.0000000000e+00  1.0000000000e+00  1.0000000000e+00

 Using branching cutoff scheme classic
SimpleFixedNodeBranch::checkParameters 
  Average Energy of a population  = -169.304
  Energy Variance = 2.1603

  Using Non-local T-moves v0, M. Casula, PRB 74, 161102(R) (2006)
===== Memory Usage after the buffer registration =====
Available memory on node 0, free + buffers : 83951 MB
Memory footprint by rank 0 on node 0       : 173 MB
==================================================

=========================================================
  Start DMC
  File Root Ni.log.s024 append = no 
=========================================================
Using existing walkers 
  Resetting Properties of the walkers 1 x 13
  EstimatorManagerBase::add replace LocalEnergy estimator.
  Cannot make clones again. Use existing 1 clones
SimpleFixedNodeBranch::checkParameters 
  Average Energy of a population  = -168.977
  Energy Variance = 615.448

  Fluctuating population
  Persistent walkers are killed after 1 MC sweeps
  BranchInterval = 1
  Steps per block = 200
  Number of blocks = 250

  DMC Engine Initialization = 3.2615661621e-04 secs

 Warmup is completed after 200

  TauEff     = 4.8873535506e-03
 TauEff/Tau = 9.7747071011e-01
  Etrial     = -1.6964395052e+02
 Running average of energy = -1.6930999894e+02
                  Variance = 5.7073588442e+00
branch cutoff = 5.7073588442e+01 8.5610382663e+01
====================================================
  SimpleFixedNodeBranch::finalize after a DMC block
    QMC counter                   = 24
    time step                     = 0.005
    effective time step           = 0.00488766
    trial energy                  = -169.306
    reference energy              = -169.314
    reference variance            = 5.70736
    target walkers                = 4096
    branch cutoff                 = 57.0736 85.6104
    Max and minimum walkers per node= 9 1
    Feedback                      = 1
    QMC Status (BranchMode)       = 0000001111
====================================================
  QMC Execution time = 7.2726e+02 secs
  Reusing DMC
BRANCH resetRun
 SimpleFixedNodeBranch::resetRun detected changes in <parameter>'s 
 BranchMode : 0000001111 0000001111
  WalkerControlBase parameters 
    maxCopy = 2
    Max Walkers per MPI rank 9
    Min Walkers per MPI rank 1
    Using non-blocking send/recv
 iParam (old):                  0                 1                24              4096                 9                 1                 1                 0
 iParam (new):                400                 1                24              4096                 9                 1                 1                 0
 vParam (old):   5.0000000000e-03  4.8876625937e-03 -1.6930639270e+02 -1.6931374387e+02 -1.6929210080e+02  8.5610382663e+01  5.7073588442e+01  3.5042478572e-02  5.7073588442e+00 -8.4319937369e+06  4.9801000000e+04  1.0000000000e+00  1.0000000000e+01  1.0000000000e+00  1.0000000000e+00  1.0000000000e+00  1.0000000000e+00
 vParam (new):   2.5000000000e-03  4.8876625937e-03 -1.6930639270e+02 -1.6931374387e+02 -1.6929210080e+02  8.5610382663e+01  5.7073588442e+01  3.5042478572e-02  5.7073588442e+00 -8.4319937369e+06  4.9801000000e+04  1.0000000000e+00  1.0000000000e+01  1.0000000000e+00  1.0000000000e+00  1.0000000000e+00  1.0000000000e+00

 Using branching cutoff scheme classic
SimpleFixedNodeBranch::checkParameters 
  Average Energy of a population  = -169.293
  Energy Variance = 2.30715

  Using Non-local T-moves v0, M. Casula, PRB 74, 161102(R) (2006)
===== Memory Usage after the buffer registration =====
Available memory on node 0, free + buffers : 83912 MB
Memory footprint by rank 0 on node 0       : 183 MB
==================================================

=========================================================
  Start DMC
  File Root Ni.log.s025 append = no 
=========================================================
Using existing walkers 
  Resetting Properties of the walkers 1 x 13
  EstimatorManagerBase::add replace LocalEnergy estimator.
  Cannot make clones again. Use existing 1 clones
SimpleFixedNodeBranch::checkParameters 
  Average Energy of a population  = -169.295
  Energy Variance = 2.76873

  Fluctuating population
  Persistent walkers are killed after 1 MC sweeps
  BranchInterval = 1
  Steps per block = 400
  Number of blocks = 300

  DMC Engine Initialization = 2.9206275940e-04 secs

 Warmup is completed after 400

  TauEff     = 2.4765406220e-03
 TauEff/Tau = 9.9061624880e-01
  Etrial     = -1.6901240287e+02
 Running average of energy = -1.6931248544e+02
                  Variance = 2.5463327364e+00
branch cutoff = 2.5463327364e+01 3.8194991045e+01
====================================================
  SimpleFixedNodeBranch::finalize after a DMC block
    QMC counter                   = 25
    time step                     = 0.0025
    effective time step           = 0.00247652
    trial energy                  = -169.303
    reference energy              = -169.31
    reference variance            = 2.54633
    target walkers                = 4096
    branch cutoff                 = 25.4633 38.195
    Max and minimum walkers per node= 9 1
    Feedback                      = 1
    QMC Status (BranchMode)       = 0000001111
====================================================
  QMC Execution time = 1.8124e+03 secs
  Total Execution time = 3.1296e+03 secs

=========================================================
  A new xml input file : Ni.log.s025.cont.xml
TACC:  Shutdown complete. Exiting. 
