----- GAMESS execution script 'rungms' -----
This job is running on host login4.stampede2.tacc.utexas.edu
under operating system Linux at Thu Feb 21 11:36:31 CST 2019
Available scratch disk space (Kbyte units) at beginning of the job is
Filesystem     1K-blocks   Used Available Use% Mounted on
/dev/md2        73411824 731248  68944720   2% /tmp
GAMESS temporary binary files will be written to /tmp
GAMESS supplementary output files will be written to /work/04843/aannabe/stampede2/docs/accurate/qwalk/He/5Z
Copying input file He.inp to your run's scratch directory...

 Distributed Data Interface kickoff program.
 Initiating 1 compute processes on 1 nodes to run the following command:
 /work/04843/aannabe/stampede2/codes/gamess-mcb/gamess/gamess.00.x He 

          ******************************************************
          *         GAMESS VERSION =  1 MAY 2013 (R1)          *
          *             FROM IOWA STATE UNIVERSITY             *
          * M.W.SCHMIDT, K.K.BALDRIDGE, J.A.BOATZ, S.T.ELBERT, *
          *   M.S.GORDON, J.H.JENSEN, S.KOSEKI, N.MATSUNAGA,   *
          *          K.A.NGUYEN, S.J.SU, T.L.WINDUS,           *
          *       TOGETHER WITH M.DUPUIS, J.A.MONTGOMERY       *
          *         J.COMPUT.CHEM.  14, 1347-1363(1993)        *
          **************** 64 BIT INTEL VERSION ****************

  SINCE 1993, STUDENTS AND POSTDOCS WORKING AT IOWA STATE UNIVERSITY
  AND ALSO IN THEIR VARIOUS JOBS AFTER LEAVING ISU HAVE MADE IMPORTANT
  CONTRIBUTIONS TO THE CODE:
     IVANA ADAMOVIC, CHRISTINE AIKENS, YURI ALEXEEV, POOJA ARORA,
     ANDREY ASADCHEV, ROB BELL, PRADIPTA BANDYOPADHYAY, JONATHAN BENTZ,
     BRETT BODE, GALINA CHABAN, WEI CHEN, CHEOL HO CHOI, PAUL DAY,
     ALBERT DEFUSCO, TIM DUDLEY, DMITRI FEDOROV, GRAHAM FLETCHER,
     MARK FREITAG, KURT GLAESEMANN, DAN KEMP, GRANT MERRILL,
     NORIYUKI MINEZAWA, JONATHAN MULLIN, TAKESHI NAGATA,
     SEAN NEDD, HEATHER NETZLOFF, BOSILJKA NJEGIC, RYAN OLSON, MIKE PAK,
     JIM SHOEMAKER, LYUDMILA SLIPCHENKO, SAROM SOK, JIE SONG,
     TETSUYA TAKETSUGU, SIMON WEBB, SOOHAENG YOO, FEDERICO ZAHARIEV

  ADDITIONAL CODE HAS BEEN PROVIDED BY COLLABORATORS IN OTHER GROUPS:
     IOWA STATE UNIVERSITY:
          JOE IVANIC, LAIMUTIS BYTAUTAS, KLAUS RUEDENBERG
     UNIVERSITY OF TOKYO: KIMIHIKO HIRAO, TAKAHITO NAKAJIMA,
          TAKAO TSUNEDA, MUNEAKI KAMIYA, SUSUMU YANAGISAWA,
          KIYOSHI YAGI, MAHITO CHIBA, SEIKEN TOKURA, NAOAKI KAWAKAMI
     UNIVERSITY OF AARHUS: FRANK JENSEN
     UNIVERSITY OF IOWA: VISVALDAS KAIRYS, HUI LI
     NATIONAL INST. OF STANDARDS AND TECHNOLOGY: WALT STEVENS, DAVID GARMER
     UNIVERSITY OF PISA: BENEDETTA MENNUCCI, JACOPO TOMASI
     UNIVERSITY OF MEMPHIS: HENRY KURTZ, PRAKASHAN KORAMBATH
     UNIVERSITY OF ALBERTA: TOBY ZENG, MARIUSZ KLOBUKOWSKI
     UNIVERSITY OF NEW ENGLAND: MARK SPACKMAN
     MIE UNIVERSITY: HIROAKI UMEDA
     MICHIGAN STATE UNIVERSITY:
          KAROL KOWALSKI, MARTA WLOCH, JEFFREY GOUR, JESSE LUTZ,
          WEI LI, PIOTR PIECUCH
     UNIVERSITY OF SILESIA: MONIKA MUSIAL, STANISLAW KUCHARSKI
     FACULTES UNIVERSITAIRES NOTRE-DAME DE LA PAIX:
          OLIVIER QUINET, BENOIT CHAMPAGNE
     UNIVERSITY OF CALIFORNIA - SANTA BARBARA: BERNARD KIRTMAN
     INSTITUTE FOR MOLECULAR SCIENCE:
          KAZUYA ISHIMURA, MICHIO KATOUDA, AND SHIGERU NAGASE
     UNIVERSITY OF NOTRE DAME: DAN CHIPMAN
     KYUSHU UNIVERSITY:
          HARUYUKI NAKANO,
          FENG LONG GU, JACEK KORCHOWIEC, MARCIN MAKOWSKI, AND YURIKO AOKI,
          HIROTOSHI MORI AND EISAKU MIYOSHI
     PENNSYLVANIA STATE UNIVERSITY:
          TZVETELIN IORDANOV, CHET SWALINA, JONATHAN SKONE,
          SHARON HAMMES-SCHIFFER
     WASEDA UNIVERSITY:
          MASATO KOBAYASHI, TOMOKO AKAMA, TSUGUKI TOUMA,
          TAKESHI YOSHIKAWA, YASUHIRO IKABATA, HIROMI NAKAI
     NANJING UNIVERSITY: SHUHUA LI
     UNIVERSITY OF NEBRASKA:
          PEIFENG SU, DEJUN SI, NANDUN THELLAMUREGE, YALI WANG, HUI LI
     UNIVERSITY OF ZURICH:
          ROBERTO PEVERATI, KIM BALDRIDGE
     N. COPERNICUS UNIVERSITY AND JACKSON STATE UNIVERSITY:
          MARIA BARYSZ

 EXECUTION OF GAMESS BEGUN Thu Feb 21 11:36:32 2019

            ECHO OF THE FIRST FEW INPUT CARDS -
 INPUT CARD> $CONTRL                                                                        
 INPUT CARD>     SCFTYP=ROHF                                                                
 INPUT CARD>     MULT=1                                                                     
 INPUT CARD>     ICHARG=0                                                                   
 INPUT CARD>     RUNTYP=ENERGY                                                              
 INPUT CARD>     MAXIT=150                                                                  
 INPUT CARD>     ECP=READ                                                                   
 INPUT CARD>     ISPHER=1                                                                   
 INPUT CARD> $END                                                                           
 INPUT CARD>                                                                                
 INPUT CARD> $SYSTEM                                                                        
 INPUT CARD>     KDIAG=3                                                                    
 INPUT CARD> $END                                                                           
 INPUT CARD>                                                                                
 INPUT CARD> $GUESS                                                                         
 INPUT CARD>    GUESS=HUCKEL                                                                
 INPUT CARD> $END                                                                           
 INPUT CARD>                                                                                
 INPUT CARD>                                                                                
 INPUT CARD> $DATA                                                                          
 INPUT CARD>                                                                                
 INPUT CARD>C1                                                                              
 INPUT CARD>He 2    0. 0. 0.                                                                
 INPUT CARD>S  8                                                                            
 INPUT CARD>  1      39.320931  0.01006570                                                  
 INPUT CARD>  2      17.174528  0.02487620                                                  
 INPUT CARD>  3       7.501461  0.05825370                                                  
 INPUT CARD>  4       3.276475  0.13445960                                                  
 INPUT CARD>  5       1.431093  0.24431180                                                  
 INPUT CARD>  6       0.625070  0.34250610                                                  
 INPUT CARD>  7       0.273017  0.28264700                                                  
 INPUT CARD>  8       0.119248  0.07392530                                                  
 INPUT CARD>S  1                                                                            
 INPUT CARD>  1       3.912326  1.00000000                                                  
 INPUT CARD>S  1                                                                            
 INPUT CARD>  1       1.397551  1.00000000                                                  
 INPUT CARD>S  1                                                                            
 INPUT CARD>  1       0.499229  1.00000000                                                  
 INPUT CARD>S  1                                                                            
 INPUT CARD>  1       0.178333  1.00000000                                                  
 INPUT CARD>S  1                                                                            
 INPUT CARD>  1       0.063704  1.00000000                                                  
 INPUT CARD>P  1                                                                            
 INPUT CARD>  1      10.505867  1.00000000                                                  
 INPUT CARD>P  1                                                                            
 INPUT CARD>  1       3.702589  1.00000000                                                  
 INPUT CARD>P  1                                                                            
 INPUT CARD>  1       1.304906  1.00000000                                                  
 INPUT CARD>P  1                                                                            
 INPUT CARD>  1       0.459889  1.00000000                                                  
    1000000 WORDS OF MEMORY AVAILABLE


     RUN TITLE
     ---------
                                                                                 

 THE POINT GROUP OF THE MOLECULE IS C1      
 THE ORDER OF THE PRINCIPAL AXIS IS     0

 ATOM      ATOMIC                      COORDINATES (BOHR)
           CHARGE         X                   Y                   Z
 HE          2.0     0.0000000000        0.0000000000        0.0000000000

          INTERNUCLEAR DISTANCES (ANGS.)
          ------------------------------

                1 HE    

   1 HE      0.0000000  

  * ... LESS THAN  3.000


     ATOMIC BASIS SET
     ----------------
 THE CONTRACTED PRIMITIVE FUNCTIONS HAVE BEEN UNNORMALIZED
 THE CONTRACTED BASIS FUNCTIONS ARE NOW NORMALIZED TO UNITY

  SHELL TYPE  PRIMITIVE        EXPONENT          CONTRACTION COEFFICIENT(S)

 HE        

      1   S       1            39.3209310    0.010065699907
      1   S       2            17.1745280    0.024876199770
      1   S       3             7.5014610    0.058253699462
      1   S       4             3.2764750    0.134459598758
      1   S       5             1.4310930    0.244311797743
      1   S       6             0.6250700    0.342506096835
      1   S       7             0.2730170    0.282646997388
      1   S       8             0.1192480    0.073925299317

      2   S       9             3.9123260    1.000000000000

      3   S      10             1.3975510    1.000000000000

      4   S      11             0.4992290    1.000000000000

      5   S      12             0.1783330    1.000000000000

      6   S      13             0.0637040    1.000000000000

      7   P      14            10.5058670    1.000000000000

      8   P      15             3.7025890    1.000000000000

      9   P      16             1.3049060    1.000000000000

     10   P      17             0.4598890    1.000000000000

     11   P      18             0.1620790    1.000000000000

     12   D      19             7.8045760    1.000000000000

     13   D      20             2.6650130    1.000000000000

     14   D      21             0.9100170    1.000000000000

     15   D      22             0.3107420    1.000000000000

     16   F      23             5.4535530    1.000000000000

     17   F      24             1.7021300    1.000000000000

     18   F      25             0.5312580    1.000000000000

     19   G      26             3.4236180    1.000000000000

     20   G      27             0.9781770    1.000000000000

 TOTAL NUMBER OF BASIS SET SHELLS             =   20
 NUMBER OF CARTESIAN GAUSSIAN BASIS FUNCTIONS =  105
 NOTE: THIS RUN WILL RESTRICT THE MO VARIATION SPACE TO SPHERICAL HARMONICS.
 THE NUMBER OF ORBITALS KEPT IN THE VARIATIONAL SPACE WILL BE PRINTED LATER.
 NUMBER OF ELECTRONS                          =    2
 CHARGE OF MOLECULE                           =    0
 SPIN MULTIPLICITY                            =    1
 NUMBER OF OCCUPIED ORBITALS (ALPHA)          =    1
 NUMBER OF OCCUPIED ORBITALS (BETA )          =    1
 TOTAL NUMBER OF ATOMS                        =    1
 THE NUCLEAR REPULSION ENERGY IS        0.0000000000
 NOTE THIS RUN IS USING CORE POTENTIALS, AND THE NUMBER OF ELECTRONS,
 OCCUPIED ORBITALS, AND NUCLEAR REPULSION ENERGY WILL BE ADJUSTED BELOW
 AFTER REMOVAL OF THE CORE CHARGES.

 THIS MOLECULE IS RECOGNIZED AS BEING LINEAR,
 ORBITAL LZ DEGENERACY TOLERANCE ETOLLZ= 1.00E-06

     $CONTRL OPTIONS
     ---------------
 SCFTYP=ROHF         RUNTYP=ENERGY       EXETYP=RUN     
 MPLEVL=       0     CITYP =NONE         CCTYP =NONE         VBTYP =NONE    
 DFTTYP=NONE         TDDFT =NONE    
 MULT  =       1     ICHARG=       0     NZVAR =       0     COORD =UNIQUE  
 PP    =READ         RELWFN=NONE         LOCAL =NONE         NUMGRD=       F
 ISPHER=       1     NOSYM =       0     MAXIT =     150     UNITS =ANGS    
 PLTORB=       F     MOLPLT=       F     AIMPAC=       F     FRIEND=        
 NPRINT=       7     IREST =       0     GEOM  =INPUT   
 NORMF =       0     NORMP =       0     ITOL  =      20     ICUT  =       9
 INTTYP=BEST         GRDTYP=BEST         QMTTOL= 1.0E-06

     $SYSTEM OPTIONS
     ---------------
  REPLICATED MEMORY=     1000000 WORDS (ON EVERY NODE).
 DISTRIBUTED MEMDDI=           0 MILLION WORDS IN AGGREGATE,
 MEMDDI DISTRIBUTED OVER   1 PROCESSORS IS           0 WORDS/PROCESSOR.
 TOTAL MEMORY REQUESTED ON EACH PROCESSOR=     1000000 WORDS.
 TIMLIM=      525600.00 MINUTES, OR     365.0 DAYS.
 PARALL= F  BALTYP=  DLB     KDIAG=    3  COREFL= F
 MXSEQ2=     300 MXSEQ3=     150

          --------------
          ECP POTENTIALS
          --------------

 PARAMETERS FOR "HE-CCECP" ON ATOM    1 WITH ZCORE   0 AND LMAX  1 ARE
 FOR L= 1      COEFF    N           ZETA
    1        2.00000    1       32.00000
    2       64.00000    3       32.00000
    3      -27.70084    2       33.71335
 FOR L= 0      COEFF    N           ZETA
    1        0.00000    2        1.00000

 THE ECP RUN REMOVES    0 CORE ELECTRONS, AND THE SAME NUMBER OF PROTONS.
 NUMBER OF ELECTRONS KEPT IN THE CALCULATION IS =    2
 NUMBER OF OCCUPIED ORBITALS (ALPHA) KEPT IS    =    1
 NUMBER OF OCCUPIED ORBITALS (BETA ) KEPT IS    =    1
 THE ADJUSTED NUCLEAR REPULSION ENERGY=        0.0000000000
          ECP ANGULAR INTS.........     0.02 SECONDS

          ----------------
          PROPERTIES INPUT
          ----------------

     MOMENTS            FIELD           POTENTIAL          DENSITY
 IEMOM =       1   IEFLD =       0   IEPOT =       0   IEDEN =       0
 WHERE =COMASS     WHERE =NUCLEI     WHERE =NUCLEI     WHERE =NUCLEI  
 OUTPUT=BOTH       OUTPUT=BOTH       OUTPUT=BOTH       OUTPUT=BOTH    
 IEMINT=       0   IEFINT=       0                     IEDINT=       0
                                                       MORB  =       0
          EXTRAPOLATION IN EFFECT
          SOSCF IN EFFECT
 ORBITAL PRINTING OPTION: NPREO=     1   105     2     1

     -------------------------------
     INTEGRAL TRANSFORMATION OPTIONS
     -------------------------------
     NWORD  =            0
     CUTOFF = 1.0E-09     MPTRAN =       0
     DIRTRF =       F     AOINTS =DUP     

          ----------------------
          INTEGRAL INPUT OPTIONS
          ----------------------
 NOPK  =       1 NORDER=       0 SCHWRZ=       F

     ------------------------------------------
     THE POINT GROUP IS C1 , NAXIS= 0, ORDER= 1
     ------------------------------------------

 -- VARIATIONAL SPACE WILL BE RESTRICTED TO PURE SPHERICAL HARMONICS ONLY --
 AFTER EXCLUDING CONTAMINANT COMBINATIONS FROM THE CARTESIAN GAUSSIAN BASIS
 SET, THE NUMBER OF SPHERICAL HARMONICS KEPT IN THE VARIATION SPACE IS   80

     DIMENSIONS OF THE SYMMETRY SUBSPACES ARE
 A   =   80

 ..... DONE SETTING UP THE RUN .....
 STEP CPU TIME =     0.04 TOTAL CPU TIME =        0.0 (    0.0 MIN)
 TOTAL WALL CLOCK TIME=        0.2 SECONDS, CPU UTILIZATION IS  22.22%

          ********************
          1 ELECTRON INTEGRALS
          ********************
 TIME TO DO ORDINARY INTEGRALS=      0.00
 TIME TO DO      ECP INTEGRALS=      0.00
 ...... END OF ONE-ELECTRON INTEGRALS ......
 STEP CPU TIME =     0.00 TOTAL CPU TIME =        0.0 (    0.0 MIN)
 TOTAL WALL CLOCK TIME=        0.6 SECONDS, CPU UTILIZATION IS   6.90%

          -------------
          GUESS OPTIONS
          -------------
          GUESS =HUCKEL            NORB  =       0          NORDER=       0
          MIX   =       F          PRTMO =       F          PUNMO =       F
          TOLZ  = 1.0E-08          TOLE  = 1.0E-05
          SYMDEN=       F          PURIFY=       F

 INITIAL GUESS ORBITALS GENERATED BY HUCKEL   ROUTINE.
 HUCKEL GUESS REQUIRES     79381 WORDS.

 STATISTICS FOR GENERATION OF SYMMETRY ORBITAL -Q- MATRIX
 NUMBER OF CARTESIAN ATOMIC ORBITALS=        105
 NUMBER OF SPHERICAL CONTAMINANTS DROPPED=    25
 NUMBER OF LINEARLY DEPENDENT MOS DROPPED=     0
 TOTAL NUMBER OF MOS IN VARIATION SPACE=      80

 SYMMETRIES FOR INITIAL GUESS ORBITALS FOLLOW.  ALPHA SET(S).
     1 ORBITALS ARE OCCUPIED (    0 CORE ORBITALS).
     1=A        2=A        3=A        4=A        5=A        6=A        7=A   
     8=A        9=A       10=A       11=A   

 SYMMETRIES FOR INITIAL GUESS ORBITALS FOLLOW.   BETA SET(S).
     1 ORBITALS ARE OCCUPIED (    0 CORE ORBITALS).
     1=A        2=A        3=A        4=A        5=A        6=A        7=A   
     8=A        9=A       10=A       11=A   
 ...... END OF INITIAL ORBITAL SELECTION ......
 STEP CPU TIME =     0.00 TOTAL CPU TIME =        0.0 (    0.0 MIN)
 TOTAL WALL CLOCK TIME=        0.6 SECONDS, CPU UTILIZATION IS   6.56%

                    ----------------------
                    AO INTEGRAL TECHNOLOGY
                    ----------------------
     S,P,L SHELL ROTATED AXIS INTEGRALS, REPROGRAMMED BY
        KAZUYA ISHIMURA (IMS) AND JOSE SIERRA (SYNSTAR).
     S,P,D,L SHELL ROTATED AXIS INTEGRALS PROGRAMMED BY
        KAZUYA ISHIMURA (INSTITUTE FOR MOLECULAR SCIENCE).
     S,P,D,F,G SHELL TO TOTAL QUARTET ANGULAR MOMENTUM SUM 5,
        ERIC PROGRAM BY GRAHAM FLETCHER (ELORET AND NASA ADVANCED
        SUPERCOMPUTING DIVISION, AMES RESEARCH CENTER).
     S,P,D,F,G,L SHELL GENERAL RYS QUADRATURE PROGRAMMED BY
        MICHEL DUPUIS (PACIFIC NORTHWEST NATIONAL LABORATORY).

          --------------------
          2 ELECTRON INTEGRALS
          --------------------

 THE -PK- OPTION IS OFF, THE INTEGRALS ARE NOT IN SUPERMATRIX FORM.
 STORING   15000 INTEGRALS/RECORD ON DISK, USING 12 BYTES/INTEGRAL.
 TWO ELECTRON INTEGRAL EVALUATION REQUIRES  139935 WORDS OF MEMORY.
 II,JST,KST,LST =  1  1  1  1 NREC =         1 INTLOC =    1
 II,JST,KST,LST =  2  1  1  1 NREC =         1 INTLOC =    2
 II,JST,KST,LST =  3  1  1  1 NREC =         1 INTLOC =    7
 II,JST,KST,LST =  4  1  1  1 NREC =         1 INTLOC =   22
 II,JST,KST,LST =  5  1  1  1 NREC =         1 INTLOC =   56
 II,JST,KST,LST =  6  1  1  1 NREC =         1 INTLOC =  121
 II,JST,KST,LST =  7  1  1  1 NREC =         1 INTLOC =  232
 II,JST,KST,LST =  8  1  1  1 NREC =         1 INTLOC =  367
 II,JST,KST,LST =  9  1  1  1 NREC =         1 INTLOC =  730
 II,JST,KST,LST = 10  1  1  1 NREC =         1 INTLOC = 1429
 II,JST,KST,LST = 11  1  1  1 NREC =         1 INTLOC = 2635
 II,JST,KST,LST = 12  1  1  1 NREC =         1 INTLOC = 4582
 II,JST,KST,LST = 13  1  1  1 NREC =         1 INTLOC =11002
 II,JST,KST,LST = 14  1  1  1 NREC =         2 INTLOC = 8257
 II,JST,KST,LST = 15  1  1  1 NREC =         3 INTLOC =14047
 II,JST,KST,LST = 16  1  1  1 NREC =         6 INTLOC = 2080
 II,JST,KST,LST = 17  1  1  1 NREC =        11 INTLOC =11135
 II,JST,KST,LST = 18  1  1  1 NREC =        21 INTLOC = 5683
 II,JST,KST,LST = 19  1  1  1 NREC =        36 INTLOC = 8788
 II,JST,KST,LST = 20  1  1  1 NREC =        73 INTLOC = 6790
 TOTAL NUMBER OF NONZERO TWO-ELECTRON INTEGRALS =             1994949
        133 INTEGRAL RECORDS WERE STORED ON DISK FILE  8.
  ...... END OF TWO-ELECTRON INTEGRALS .....
 STEP CPU TIME =     0.26 TOTAL CPU TIME =        0.3 (    0.0 MIN)
 TOTAL WALL CLOCK TIME=        0.9 SECONDS, CPU UTILIZATION IS  33.71%

          ---------------------------
                 ROHF SCF CALCULATION
          ---------------------------

     NUCLEAR ENERGY =         0.0000000000
     MAXIT =150     NPUNCH=  2     MULT=  1
     EXTRAP=T  DAMP=F  SHIFT=F  RSTRCT=F  DIIS=F  SOSCF=T
     DENSITY MATRIX CONV=  1.00E-05
     ROHF CANONICALIZATION PARAMETERS
             C-C     O-O     V-V
     ALPHA -0.5000  0.5000  1.5000
     BETA   1.5000  0.5000 -0.5000
     SOSCF WILL OPTIMIZE      79 ORBITAL ROTATION ANGLES. SOGTOL= 2.500E-01
     MEMORY REQUIRED FOR UHF/ROHF ITERS=    131274 WORDS.

 ITER EX      TOTAL ENERGY        E CHANGE  DENSITY CHANGE    ORB. GRAD 
   1  0       -2.8552979420    -2.8552979420   0.609201304   0.000000000
          ---------------START SECOND ORDER SCF---------------
   2  1       -2.8615017363    -0.0062037943   0.022021104   0.007528676
   3  2       -2.8616709888    -0.0001692525   0.005807867   0.001715667
   4  3       -2.8616794758    -0.0000084869   0.000216365   0.000089403
   5  4       -2.8616794785    -0.0000000027   0.000015312   0.000008460
   6  5       -2.8616794785    -0.0000000000   0.000000747   0.000000157
   7  6       -2.8616794785    -0.0000000000   0.000000114   0.000000019

          -----------------
          DENSITY CONVERGED
          -----------------
     TIME TO FORM FOCK OPERATORS=       0.2 SECONDS (       0.0 SEC/ITER)
     TIME TO SOLVE SCF EQUATIONS=       0.0 SECONDS (       0.0 SEC/ITER)

 FINAL ROHF ENERGY IS       -2.8616794785 AFTER   7 ITERATIONS

          --------------------
          SPIN SZ   =    0.000
          S-SQUARED =   -0.000
          --------------------

 LZ VALUE ANALYSIS FOR THE MOS
 ----------------------------------------
 MO     1 (    1) HAS LZ(WEIGHT)= 0.00(100.0%) 
 MO     2 (    2) HAS LZ(WEIGHT)= 0.00(100.0%) 
 MO     3 (    3) HAS LZ(WEIGHT)=-1.00( 50.0%)  1.00( 50.0%) 
 MO     4 (    3) HAS LZ(WEIGHT)= 0.00(100.0%) 
 MO     5 (    3) HAS LZ(WEIGHT)=-1.00( 50.0%)  1.00( 50.0%) 
 MO     6 (    4) HAS LZ(WEIGHT)= 0.00(100.0%) 
 MO     7 (    5) HAS LZ(WEIGHT)=-2.00( 50.0%)  2.00( 50.0%) 
 MO     8 (    5) HAS LZ(WEIGHT)=-1.00( 50.0%)  1.00( 50.0%) 
 MO     9 (    5) HAS LZ(WEIGHT)=-2.00( 50.0%)  2.00( 50.0%) 
 MO    10 (    5) HAS LZ(WEIGHT)=-1.00( 50.0%)  1.00( 50.0%) 
 MO    11 (    5) HAS LZ(WEIGHT)= 0.00(100.0%) 
 MO    12 (    6) HAS LZ(WEIGHT)=-1.00( 50.0%)  1.00( 50.0%) 
 MO    13 (    6) HAS LZ(WEIGHT)= 0.00(100.0%) 
 MO    14 (    6) HAS LZ(WEIGHT)=-1.00( 50.0%)  1.00( 50.0%) 
 MO    15 (    7) HAS LZ(WEIGHT)=-3.00( 50.0%)  3.00( 50.0%) 
 MO    16 (    7) HAS LZ(WEIGHT)=-3.00( 50.0%)  3.00( 50.0%) 
 MO    17 (    7) HAS LZ(WEIGHT)=-2.00( 50.0%)  2.00( 50.0%) 
 MO    18 (    7) HAS LZ(WEIGHT)=-2.00( 50.0%)  2.00( 50.0%) 
 MO    19 (    7) HAS LZ(WEIGHT)=-1.00( 50.0%)  1.00( 50.0%) 
 MO    20 (    7) HAS LZ(WEIGHT)=-1.00( 50.0%)  1.00( 50.0%) 
 MO    21 (    7) HAS LZ(WEIGHT)=-0.00(100.0%) 
 MO    22 (    8) HAS LZ(WEIGHT)= 0.00(100.0%) 
 MO    23 (    9) HAS LZ(WEIGHT)=-2.00( 50.0%)  2.00( 50.0%) 
 MO    24 (    9) HAS LZ(WEIGHT)=-1.00( 50.0%)  1.00( 50.0%) 
 MO    25 (    9) HAS LZ(WEIGHT)=-1.00( 50.0%)  1.00( 50.0%) 
 MO    26 (    9) HAS LZ(WEIGHT)= 0.00(100.0%) 
 MO    27 (    9) HAS LZ(WEIGHT)=-2.00( 50.0%)  2.00( 50.0%) 
 MO    28 (   10) HAS LZ(WEIGHT)= 0.00(100.0%) 
 MO    29 (   10) HAS LZ(WEIGHT)=-1.00( 50.0%)  1.00( 50.0%) 
 MO    30 (   10) HAS LZ(WEIGHT)=-1.00( 50.0%)  1.00( 50.0%) 
 MO    31 (   11) HAS LZ(WEIGHT)= 0.00(100.0%) 
 MO    32 (   11) HAS LZ(WEIGHT)=-1.00( 50.0%)  1.00( 50.0%) 
 MO    33 (   11) HAS LZ(WEIGHT)=-1.00( 50.0%)  1.00( 50.0%) 
 MO    34 (   11) HAS LZ(WEIGHT)=-4.00( 50.0%)  4.00( 50.0%) 
 MO    35 (   11) HAS LZ(WEIGHT)=-4.00( 50.0%)  4.00( 50.0%) 
 MO    36 (   11) HAS LZ(WEIGHT)=-3.00( 50.0%)  3.00( 50.0%) 
 MO    37 (   11) HAS LZ(WEIGHT)=-3.00( 50.0%)  3.00( 50.0%) 
 MO    38 (   11) HAS LZ(WEIGHT)=-2.00( 50.0%)  2.00( 50.0%) 
 MO    39 (   11) HAS LZ(WEIGHT)=-2.00( 50.0%)  2.00( 50.0%) 
 MO    40 (   12) HAS LZ(WEIGHT)=-2.00( 50.0%)  2.00( 50.0%) 
 MO    41 (   12) HAS LZ(WEIGHT)=-2.00( 50.0%)  2.00( 50.0%) 
 MO    42 (   12) HAS LZ(WEIGHT)=-1.00( 50.0%)  1.00( 50.0%) 
 MO    43 (   12) HAS LZ(WEIGHT)=-3.00( 50.0%)  3.00( 50.0%) 
 MO    44 (   12) HAS LZ(WEIGHT)=-3.00( 50.0%)  3.00( 50.0%) 
 MO    45 (   12) HAS LZ(WEIGHT)= 0.00(100.0%) 
 MO    46 (   12) HAS LZ(WEIGHT)=-1.00( 50.0%)  1.00( 50.0%) 
 MO    47 (   13) HAS LZ(WEIGHT)= 0.00(100.0%) 
 MO    48 (   14) HAS LZ(WEIGHT)=-2.00( 50.0%)  2.00( 50.0%) 
 MO    49 (   14) HAS LZ(WEIGHT)=-1.00( 50.0%)  1.00( 50.0%) 
 MO    50 (   14) HAS LZ(WEIGHT)=-1.00( 50.0%)  1.00( 50.0%) 
 MO    51 (   14) HAS LZ(WEIGHT)=-2.00( 50.0%)  2.00( 50.0%) 
 MO    52 (   14) HAS LZ(WEIGHT)= 0.00(100.0%) 
 MO    53 (   15) HAS LZ(WEIGHT)=-1.00( 50.0%)  1.00( 50.0%) 
 MO    54 (   15) HAS LZ(WEIGHT)=-1.00( 50.0%)  1.00( 50.0%) 
 MO    55 (   15) HAS LZ(WEIGHT)= 0.00(100.0%) 
 MO    56 (   16) HAS LZ(WEIGHT)=-0.00(100.0%) 
 MO    57 (   16) HAS LZ(WEIGHT)=-4.00( 50.0%)  4.00( 50.0%) 
 MO    58 (   16) HAS LZ(WEIGHT)=-2.00( 50.0%)  2.00( 50.0%) 
 MO    59 (   16) HAS LZ(WEIGHT)=-3.00( 50.0%)  3.00( 50.0%) 
 MO    60 (   16) HAS LZ(WEIGHT)=-2.00( 50.0%)  2.00( 50.0%) 
 MO    61 (   16) HAS LZ(WEIGHT)=-3.00( 50.0%)  3.00( 50.0%) 
 MO    62 (   16) HAS LZ(WEIGHT)=-1.00( 50.0%)  1.00( 50.0%) 
 MO    63 (   16) HAS LZ(WEIGHT)=-1.00( 50.0%)  1.00( 50.0%) 
 MO    64 (   16) HAS LZ(WEIGHT)=-4.00( 50.0%)  4.00( 50.0%) 
 MO    65 (   17) HAS LZ(WEIGHT)=-2.00( 50.0%)  2.00( 50.0%) 
 MO    66 (   17) HAS LZ(WEIGHT)=-2.00( 50.0%)  2.00( 50.0%) 
 MO    67 (   17) HAS LZ(WEIGHT)=-3.00( 50.0%)  3.00( 50.0%) 
 MO    68 (   17) HAS LZ(WEIGHT)=-0.00(100.0%) 
 MO    69 (   17) HAS LZ(WEIGHT)=-3.00( 50.0%)  3.00( 50.0%) 
 MO    70 (   17) HAS LZ(WEIGHT)=-1.00( 50.0%)  1.00( 50.0%) 
 MO    71 (   17) HAS LZ(WEIGHT)=-1.00( 50.0%)  1.00( 50.0%) 
 MO    72 (   18) HAS LZ(WEIGHT)=-2.00( 50.0%)  2.00( 50.0%) 
 MO    73 (   18) HAS LZ(WEIGHT)=-1.00( 50.0%)  1.00( 50.0%) 
 MO    74 (   18) HAS LZ(WEIGHT)=-1.00( 50.0%)  1.00( 50.0%) 
 MO    75 (   18) HAS LZ(WEIGHT)=-2.00( 50.0%)  2.00( 50.0%) 
 MO    76 (   18) HAS LZ(WEIGHT)= 0.00(100.0%) 
 MO    77 (   19) HAS LZ(WEIGHT)= 0.00(100.0%) 
 MO    78 (   20) HAS LZ(WEIGHT)=-1.00( 50.0%)  1.00( 50.0%) 
 MO    79 (   20) HAS LZ(WEIGHT)=-1.00( 50.0%)  1.00( 50.0%) 
 MO    80 (   20) HAS LZ(WEIGHT)= 0.00(100.0%) 

          ------------
          EIGENVECTORS
          ------------

                      1          2          3          4          5
                   -0.9179     0.1233     0.3353     0.3353     0.3353
                     A          A          A          A          A   
    1  HE 1  S    0.999927  -0.250109   0.000000   0.000000   0.000000
    2  HE 1  S    0.000029   0.027372   0.000000   0.000000   0.000000
    3  HE 1  S   -0.000026  -0.084528   0.000000   0.000000   0.000000
    4  HE 1  S    0.000134   0.296413   0.000000   0.000000   0.000000
    5  HE 1  S   -0.000147  -1.055831   0.000000   0.000000   0.000000
    6  HE 1  S    0.000122   1.680866   0.000000   0.000000   0.000000
    7  HE 1  X    0.000000   0.000000   0.006429   0.000000   0.000000
    8  HE 1  Y    0.000000   0.000000   0.000000   0.000000   0.006429
    9  HE 1  Z    0.000000   0.000000   0.000000   0.006429   0.000000
   10  HE 1  X    0.000000   0.000000  -0.024098   0.000000   0.000000
   11  HE 1  Y    0.000000   0.000000   0.000000   0.000000  -0.024098
   12  HE 1  Z    0.000000   0.000000   0.000000  -0.024098   0.000000
   13  HE 1  X    0.000000   0.000000   0.115990   0.000000   0.000000
   14  HE 1  Y    0.000000   0.000000   0.000000   0.000000   0.115990
   15  HE 1  Z    0.000000   0.000000   0.000000   0.115990   0.000000
   16  HE 1  X    0.000000   0.000000  -0.312946   0.000000   0.000000
   17  HE 1  Y    0.000000   0.000000   0.000000   0.000000  -0.312946
   18  HE 1  Z    0.000000   0.000000   0.000000  -0.312946   0.000000
   19  HE 1  X    0.000000   0.000000   1.180509   0.000000   0.000000
   20  HE 1  Y    0.000000   0.000000   0.000000   0.000000   1.180509
   21  HE 1  Z    0.000000   0.000000   0.000000   1.180509   0.000000
   22  HE 1 XX    0.000000   0.000000   0.000000   0.000000   0.000000
   23  HE 1 YY    0.000000   0.000000   0.000000   0.000000   0.000000
   24  HE 1 ZZ    0.000000   0.000000   0.000000   0.000000   0.000000
   25  HE 1 XY    0.000000   0.000000   0.000000   0.000000   0.000000
   26  HE 1 XZ    0.000000   0.000000   0.000000   0.000000   0.000000
   27  HE 1 YZ    0.000000   0.000000   0.000000   0.000000   0.000000
   28  HE 1 XX    0.000000   0.000000   0.000000   0.000000   0.000000
   29  HE 1 YY    0.000000   0.000000   0.000000   0.000000   0.000000
   30  HE 1 ZZ    0.000000   0.000000   0.000000   0.000000   0.000000
   31  HE 1 XY    0.000000   0.000000   0.000000   0.000000   0.000000
   32  HE 1 XZ    0.000000   0.000000   0.000000   0.000000   0.000000
   33  HE 1 YZ    0.000000   0.000000   0.000000   0.000000   0.000000
   34  HE 1 XX    0.000000   0.000000   0.000000   0.000000   0.000000
   35  HE 1 YY    0.000000   0.000000   0.000000   0.000000   0.000000
   36  HE 1 ZZ    0.000000   0.000000   0.000000   0.000000   0.000000
   37  HE 1 XY    0.000000   0.000000   0.000000   0.000000   0.000000
   38  HE 1 XZ    0.000000   0.000000   0.000000   0.000000   0.000000
   39  HE 1 YZ    0.000000   0.000000   0.000000   0.000000   0.000000
   40  HE 1 XX    0.000000   0.000000   0.000000   0.000000   0.000000
   41  HE 1 YY    0.000000   0.000000   0.000000   0.000000   0.000000
   42  HE 1 ZZ    0.000000   0.000000   0.000000   0.000000   0.000000
   43  HE 1 XY    0.000000   0.000000   0.000000   0.000000   0.000000
   44  HE 1 XZ    0.000000   0.000000   0.000000   0.000000   0.000000
   45  HE 1 YZ    0.000000   0.000000   0.000000   0.000000   0.000000
   46  HE 1 XXX   0.000000   0.000000   0.000000   0.000000   0.000000
   47  HE 1 YYY   0.000000   0.000000   0.000000   0.000000   0.000000
   48  HE 1 ZZZ   0.000000   0.000000   0.000000   0.000000   0.000000
   49  HE 1 XXY   0.000000   0.000000   0.000000   0.000000   0.000000
   50  HE 1 XXZ   0.000000   0.000000   0.000000   0.000000   0.000000
   51  HE 1 YYX   0.000000   0.000000   0.000000   0.000000   0.000000
   52  HE 1 YYZ   0.000000   0.000000   0.000000   0.000000   0.000000
   53  HE 1 ZZX   0.000000   0.000000   0.000000   0.000000   0.000000
   54  HE 1 ZZY   0.000000   0.000000   0.000000   0.000000   0.000000
   55  HE 1 XYZ   0.000000   0.000000   0.000000   0.000000   0.000000
   56  HE 1 XXX   0.000000   0.000000   0.000000   0.000000   0.000000
   57  HE 1 YYY   0.000000   0.000000   0.000000   0.000000   0.000000
   58  HE 1 ZZZ   0.000000   0.000000   0.000000   0.000000   0.000000
   59  HE 1 XXY   0.000000   0.000000   0.000000   0.000000   0.000000
   60  HE 1 XXZ   0.000000   0.000000   0.000000   0.000000   0.000000
   61  HE 1 YYX   0.000000   0.000000   0.000000   0.000000   0.000000
   62  HE 1 YYZ   0.000000   0.000000   0.000000   0.000000   0.000000
   63  HE 1 ZZX   0.000000   0.000000   0.000000   0.000000   0.000000
   64  HE 1 ZZY   0.000000   0.000000   0.000000   0.000000   0.000000
   65  HE 1 XYZ   0.000000   0.000000   0.000000   0.000000   0.000000
   66  HE 1 XXX   0.000000   0.000000   0.000000   0.000000   0.000000
   67  HE 1 YYY   0.000000   0.000000   0.000000   0.000000   0.000000
   68  HE 1 ZZZ   0.000000   0.000000   0.000000   0.000000   0.000000
   69  HE 1 XXY   0.000000   0.000000   0.000000   0.000000   0.000000
   70  HE 1 XXZ   0.000000   0.000000   0.000000   0.000000   0.000000
   71  HE 1 YYX   0.000000   0.000000   0.000000   0.000000   0.000000
   72  HE 1 YYZ   0.000000   0.000000   0.000000   0.000000   0.000000
   73  HE 1 ZZX   0.000000   0.000000   0.000000   0.000000   0.000000
   74  HE 1 ZZY   0.000000   0.000000   0.000000   0.000000   0.000000
   75  HE 1 XYZ   0.000000   0.000000   0.000000   0.000000   0.000000
   76  HE 1XXXX   0.000000   0.000000   0.000000   0.000000   0.000000
   77  HE 1YYYY   0.000000   0.000000   0.000000   0.000000   0.000000
   78  HE 1ZZZZ   0.000000   0.000000   0.000000   0.000000   0.000000
   79  HE 1XXXY   0.000000   0.000000   0.000000   0.000000   0.000000
   80  HE 1XXXZ   0.000000   0.000000   0.000000   0.000000   0.000000
   81  HE 1YYYX   0.000000   0.000000   0.000000   0.000000   0.000000
   82  HE 1YYYZ   0.000000   0.000000   0.000000   0.000000   0.000000
   83  HE 1ZZZX   0.000000   0.000000   0.000000   0.000000   0.000000
   84  HE 1ZZZY   0.000000   0.000000   0.000000   0.000000   0.000000
   85  HE 1XXYY   0.000000   0.000000   0.000000   0.000000   0.000000
   86  HE 1XXZZ   0.000000   0.000000   0.000000   0.000000   0.000000
   87  HE 1YYZZ   0.000000   0.000000   0.000000   0.000000   0.000000
   88  HE 1XXYZ   0.000000   0.000000   0.000000   0.000000   0.000000
   89  HE 1YYXZ   0.000000   0.000000   0.000000   0.000000   0.000000
   90  HE 1ZZXY   0.000000   0.000000   0.000000   0.000000   0.000000
   91  HE 1XXXX   0.000000   0.000000   0.000000   0.000000   0.000000
   92  HE 1YYYY   0.000000   0.000000   0.000000   0.000000   0.000000
   93  HE 1ZZZZ   0.000000   0.000000   0.000000   0.000000   0.000000
   94  HE 1XXXY   0.000000   0.000000   0.000000   0.000000   0.000000
   95  HE 1XXXZ   0.000000   0.000000   0.000000   0.000000   0.000000
   96  HE 1YYYX   0.000000   0.000000   0.000000   0.000000   0.000000
   97  HE 1YYYZ   0.000000   0.000000   0.000000   0.000000   0.000000
   98  HE 1ZZZX   0.000000   0.000000   0.000000   0.000000   0.000000
   99  HE 1ZZZY   0.000000   0.000000   0.000000   0.000000   0.000000
  100  HE 1XXYY   0.000000   0.000000   0.000000   0.000000   0.000000
  101  HE 1XXZZ   0.000000   0.000000   0.000000   0.000000   0.000000
  102  HE 1YYZZ   0.000000   0.000000   0.000000   0.000000   0.000000
  103  HE 1XXYZ   0.000000   0.000000   0.000000   0.000000   0.000000
  104  HE 1YYXZ   0.000000   0.000000   0.000000   0.000000   0.000000
  105  HE 1ZZXY   0.000000   0.000000   0.000000   0.000000   0.000000

                      6          7          8          9         10
                    0.7063     0.9937     0.9937     0.9937     0.9937
                     A          A          A          A          A   
    1  HE 1  S   -0.355882   0.000000   0.000000   0.000000   0.000000
    2  HE 1  S   -0.124532   0.000000   0.000000   0.000000   0.000000
    3  HE 1  S    0.327989   0.000000   0.000000   0.000000   0.000000
    4  HE 1  S   -1.763313   0.000000   0.000000   0.000000   0.000000
    5  HE 1  S    3.266262   0.000000   0.000000   0.000000   0.000000
    6  HE 1  S   -1.415081   0.000000   0.000000   0.000000   0.000000
    7  HE 1  X    0.000000   0.000000   0.000000   0.000000   0.000000
    8  HE 1  Y    0.000000   0.000000   0.000000   0.000000   0.000000
    9  HE 1  Z    0.000000   0.000000   0.000000   0.000000   0.000000
   10  HE 1  X    0.000000   0.000000   0.000000   0.000000   0.000000
   11  HE 1  Y    0.000000   0.000000   0.000000   0.000000   0.000000
   12  HE 1  Z    0.000000   0.000000   0.000000   0.000000   0.000000
   13  HE 1  X    0.000000   0.000000   0.000000   0.000000   0.000000
   14  HE 1  Y    0.000000   0.000000   0.000000   0.000000   0.000000
   15  HE 1  Z    0.000000   0.000000   0.000000   0.000000   0.000000
   16  HE 1  X    0.000000   0.000000   0.000000   0.000000   0.000000
   17  HE 1  Y    0.000000   0.000000   0.000000   0.000000   0.000000
   18  HE 1  Z    0.000000   0.000000   0.000000   0.000000   0.000000
   19  HE 1  X    0.000000   0.000000   0.000000   0.000000   0.000000
   20  HE 1  Y    0.000000   0.000000   0.000000   0.000000   0.000000
   21  HE 1  Z    0.000000   0.000000   0.000000   0.000000   0.000000
   22  HE 1 XX    0.000000  -0.009310   0.000000   0.000000   0.000000
   23  HE 1 YY    0.000000   0.009310   0.000000   0.000000   0.000000
   24  HE 1 ZZ    0.000000   0.000000   0.000000   0.000000   0.000000
   25  HE 1 XY    0.000000   0.000000   0.000000  -0.010750   0.000000
   26  HE 1 XZ    0.000000   0.000000   0.000000   0.000000  -0.010750
   27  HE 1 YZ    0.000000   0.000000  -0.010750   0.000000   0.000000
   28  HE 1 XX    0.000000   0.050641   0.000000   0.000000   0.000000
   29  HE 1 YY    0.000000  -0.050641   0.000000   0.000000   0.000000
   30  HE 1 ZZ    0.000000   0.000000   0.000000   0.000000   0.000000
   31  HE 1 XY    0.000000   0.000000   0.000000   0.058476   0.000000
   32  HE 1 XZ    0.000000   0.000000   0.000000   0.000000   0.058476
   33  HE 1 YZ    0.000000   0.000000   0.058476   0.000000   0.000000
   34  HE 1 XX    0.000000  -0.204997   0.000000   0.000000   0.000000
   35  HE 1 YY    0.000000   0.204997   0.000000   0.000000   0.000000
   36  HE 1 ZZ    0.000000   0.000000   0.000000   0.000000   0.000000
   37  HE 1 XY    0.000000   0.000000   0.000000  -0.236710   0.000000
   38  HE 1 XZ    0.000000   0.000000   0.000000   0.000000  -0.236710
   39  HE 1 YZ    0.000000   0.000000  -0.236710   0.000000   0.000000
   40  HE 1 XX    0.000000   0.973312   0.000000   0.000000   0.000000
   41  HE 1 YY    0.000000  -0.973312   0.000000   0.000000   0.000000
   42  HE 1 ZZ    0.000000   0.000000   0.000000   0.000000   0.000000
   43  HE 1 XY    0.000000   0.000000   0.000000   1.123883   0.000000
   44  HE 1 XZ    0.000000   0.000000   0.000000   0.000000   1.123883
   45  HE 1 YZ    0.000000   0.000000   1.123883   0.000000   0.000000
   46  HE 1 XXX   0.000000   0.000000   0.000000   0.000000   0.000000
   47  HE 1 YYY   0.000000   0.000000   0.000000   0.000000   0.000000
   48  HE 1 ZZZ   0.000000   0.000000   0.000000   0.000000   0.000000
   49  HE 1 XXY   0.000000   0.000000   0.000000   0.000000   0.000000
   50  HE 1 XXZ   0.000000   0.000000   0.000000   0.000000   0.000000
   51  HE 1 YYX   0.000000   0.000000   0.000000   0.000000   0.000000
   52  HE 1 YYZ   0.000000   0.000000   0.000000   0.000000   0.000000
   53  HE 1 ZZX   0.000000   0.000000   0.000000   0.000000   0.000000
   54  HE 1 ZZY   0.000000   0.000000   0.000000   0.000000   0.000000
   55  HE 1 XYZ   0.000000   0.000000   0.000000   0.000000   0.000000
   56  HE 1 XXX   0.000000   0.000000   0.000000   0.000000   0.000000
   57  HE 1 YYY   0.000000   0.000000   0.000000   0.000000   0.000000
   58  HE 1 ZZZ   0.000000   0.000000   0.000000   0.000000   0.000000
   59  HE 1 XXY   0.000000   0.000000   0.000000   0.000000   0.000000
   60  HE 1 XXZ   0.000000   0.000000   0.000000   0.000000   0.000000
   61  HE 1 YYX   0.000000   0.000000   0.000000   0.000000   0.000000
   62  HE 1 YYZ   0.000000   0.000000   0.000000   0.000000   0.000000
   63  HE 1 ZZX   0.000000   0.000000   0.000000   0.000000   0.000000
   64  HE 1 ZZY   0.000000   0.000000   0.000000   0.000000   0.000000
   65  HE 1 XYZ   0.000000   0.000000   0.000000   0.000000   0.000000
   66  HE 1 XXX   0.000000   0.000000   0.000000   0.000000   0.000000
   67  HE 1 YYY   0.000000   0.000000   0.000000   0.000000   0.000000
   68  HE 1 ZZZ   0.000000   0.000000   0.000000   0.000000   0.000000
   69  HE 1 XXY   0.000000   0.000000   0.000000   0.000000   0.000000
   70  HE 1 XXZ   0.000000   0.000000   0.000000   0.000000   0.000000
   71  HE 1 YYX   0.000000   0.000000   0.000000   0.000000   0.000000
   72  HE 1 YYZ   0.000000   0.000000   0.000000   0.000000   0.000000
   73  HE 1 ZZX   0.000000   0.000000   0.000000   0.000000   0.000000
   74  HE 1 ZZY   0.000000   0.000000   0.000000   0.000000   0.000000
   75  HE 1 XYZ   0.000000   0.000000   0.000000   0.000000   0.000000
   76  HE 1XXXX   0.000000   0.000000   0.000000   0.000000   0.000000
   77  HE 1YYYY   0.000000   0.000000   0.000000   0.000000   0.000000
   78  HE 1ZZZZ   0.000000   0.000000   0.000000   0.000000   0.000000
   79  HE 1XXXY   0.000000   0.000000   0.000000   0.000000   0.000000
   80  HE 1XXXZ   0.000000   0.000000   0.000000   0.000000   0.000000
   81  HE 1YYYX   0.000000   0.000000   0.000000   0.000000   0.000000
   82  HE 1YYYZ   0.000000   0.000000   0.000000   0.000000   0.000000
   83  HE 1ZZZX   0.000000   0.000000   0.000000   0.000000   0.000000
   84  HE 1ZZZY   0.000000   0.000000   0.000000   0.000000   0.000000
   85  HE 1XXYY   0.000000   0.000000   0.000000   0.000000   0.000000
   86  HE 1XXZZ   0.000000   0.000000   0.000000   0.000000   0.000000
   87  HE 1YYZZ   0.000000   0.000000   0.000000   0.000000   0.000000
   88  HE 1XXYZ   0.000000   0.000000   0.000000   0.000000   0.000000
   89  HE 1YYXZ   0.000000   0.000000   0.000000   0.000000   0.000000
   90  HE 1ZZXY   0.000000   0.000000   0.000000   0.000000   0.000000
   91  HE 1XXXX   0.000000   0.000000   0.000000   0.000000   0.000000
   92  HE 1YYYY   0.000000   0.000000   0.000000   0.000000   0.000000
   93  HE 1ZZZZ   0.000000   0.000000   0.000000   0.000000   0.000000
   94  HE 1XXXY   0.000000   0.000000   0.000000   0.000000   0.000000
   95  HE 1XXXZ   0.000000   0.000000   0.000000   0.000000   0.000000
   96  HE 1YYYX   0.000000   0.000000   0.000000   0.000000   0.000000
   97  HE 1YYYZ   0.000000   0.000000   0.000000   0.000000   0.000000
   98  HE 1ZZZX   0.000000   0.000000   0.000000   0.000000   0.000000
   99  HE 1ZZZY   0.000000   0.000000   0.000000   0.000000   0.000000
  100  HE 1XXYY   0.000000   0.000000   0.000000   0.000000   0.000000
  101  HE 1XXZZ   0.000000   0.000000   0.000000   0.000000   0.000000
  102  HE 1YYZZ   0.000000   0.000000   0.000000   0.000000   0.000000
  103  HE 1XXYZ   0.000000   0.000000   0.000000   0.000000   0.000000
  104  HE 1YYXZ   0.000000   0.000000   0.000000   0.000000   0.000000
  105  HE 1ZZXY   0.000000   0.000000   0.000000   0.000000   0.000000

                     11         12         13         14         15
                    0.9937     1.2880     1.2880     1.2880     2.2795
                     A          A          A          A          A   
    1  HE 1  S    0.000000   0.000000   0.000000   0.000000   0.000000
    2  HE 1  S    0.000000   0.000000   0.000000   0.000000   0.000000
    3  HE 1  S    0.000000   0.000000   0.000000   0.000000   0.000000
    4  HE 1  S    0.000000   0.000000   0.000000   0.000000   0.000000
    5  HE 1  S    0.000000   0.000000   0.000000   0.000000   0.000000
    6  HE 1  S    0.000000   0.000000   0.000000   0.000000   0.000000
    7  HE 1  X    0.000000  -0.014768   0.000000   0.000000   0.000000
    8  HE 1  Y    0.000000   0.000000   0.000000  -0.014768   0.000000
    9  HE 1  Z    0.000000   0.000000  -0.014768   0.000000   0.000000
   10  HE 1  X    0.000000   0.104654   0.000000   0.000000   0.000000
   11  HE 1  Y    0.000000   0.000000   0.000000   0.104654   0.000000
   12  HE 1  Z    0.000000   0.000000   0.104654   0.000000   0.000000
   13  HE 1  X    0.000000  -0.306885   0.000000   0.000000   0.000000
   14  HE 1  Y    0.000000   0.000000   0.000000  -0.306885   0.000000
   15  HE 1  Z    0.000000   0.000000  -0.306885   0.000000   0.000000
   16  HE 1  X    0.000000   1.686528   0.000000   0.000000   0.000000
   17  HE 1  Y    0.000000   0.000000   0.000000   1.686528   0.000000
   18  HE 1  Z    0.000000   0.000000   1.686528   0.000000   0.000000
   19  HE 1  X    0.000000  -0.985592   0.000000   0.000000   0.000000
   20  HE 1  Y    0.000000   0.000000   0.000000  -0.985592   0.000000
   21  HE 1  Z    0.000000   0.000000  -0.985592   0.000000   0.000000
   22  HE 1 XX    0.005375   0.000000   0.000000   0.000000   0.000000
   23  HE 1 YY    0.005375   0.000000   0.000000   0.000000   0.000000
   24  HE 1 ZZ   -0.010750   0.000000   0.000000   0.000000   0.000000
   25  HE 1 XY    0.000000   0.000000   0.000000   0.000000   0.000000
   26  HE 1 XZ    0.000000   0.000000   0.000000   0.000000   0.000000
   27  HE 1 YZ    0.000000   0.000000   0.000000   0.000000   0.000000
   28  HE 1 XX   -0.029238   0.000000   0.000000   0.000000   0.000000
   29  HE 1 YY   -0.029238   0.000000   0.000000   0.000000   0.000000
   30  HE 1 ZZ    0.058476   0.000000   0.000000   0.000000   0.000000
   31  HE 1 XY    0.000000   0.000000   0.000000   0.000000   0.000000
   32  HE 1 XZ    0.000000   0.000000   0.000000   0.000000   0.000000
   33  HE 1 YZ    0.000000   0.000000   0.000000   0.000000   0.000000
   34  HE 1 XX    0.118355   0.000000   0.000000   0.000000   0.000000
   35  HE 1 YY    0.118355   0.000000   0.000000   0.000000   0.000000
   36  HE 1 ZZ   -0.236710   0.000000   0.000000   0.000000   0.000000
   37  HE 1 XY    0.000000   0.000000   0.000000   0.000000   0.000000
   38  HE 1 XZ    0.000000   0.000000   0.000000   0.000000   0.000000
   39  HE 1 YZ    0.000000   0.000000   0.000000   0.000000   0.000000
   40  HE 1 XX   -0.561942   0.000000   0.000000   0.000000   0.000000
   41  HE 1 YY   -0.561942   0.000000   0.000000   0.000000   0.000000
   42  HE 1 ZZ    1.123883   0.000000   0.000000   0.000000   0.000000
   43  HE 1 XY    0.000000   0.000000   0.000000   0.000000   0.000000
   44  HE 1 XZ    0.000000   0.000000   0.000000   0.000000   0.000000
   45  HE 1 YZ    0.000000   0.000000   0.000000   0.000000   0.000000
   46  HE 1 XXX   0.000000   0.000000   0.000000   0.000000  -0.017693
   47  HE 1 YYY   0.000000   0.000000   0.000000   0.000000   0.000000
   48  HE 1 ZZZ   0.000000   0.000000   0.000000   0.000000   0.000000
   49  HE 1 XXY   0.000000   0.000000   0.000000   0.000000   0.000000
   50  HE 1 XXZ   0.000000   0.000000   0.000000   0.000000   0.000000
   51  HE 1 YYX   0.000000   0.000000   0.000000   0.000000   0.023738
   52  HE 1 YYZ   0.000000   0.000000   0.000000   0.000000   0.000000
   53  HE 1 ZZX   0.000000   0.000000   0.000000   0.000000   0.000000
   54  HE 1 ZZY   0.000000   0.000000   0.000000   0.000000   0.000000
   55  HE 1 XYZ   0.000000   0.000000   0.000000   0.000000   0.000000
   56  HE 1 XXX   0.000000   0.000000   0.000000   0.000000   0.112108
   57  HE 1 YYY   0.000000   0.000000   0.000000   0.000000   0.000000
   58  HE 1 ZZZ   0.000000   0.000000   0.000000   0.000000   0.000000
   59  HE 1 XXY   0.000000   0.000000   0.000000   0.000000   0.000000
   60  HE 1 XXZ   0.000000   0.000000   0.000000   0.000000   0.000000
   61  HE 1 YYX   0.000000   0.000000   0.000000   0.000000  -0.150409
   62  HE 1 YYZ   0.000000   0.000000   0.000000   0.000000   0.000000
   63  HE 1 ZZX   0.000000   0.000000   0.000000   0.000000   0.000000
   64  HE 1 ZZY   0.000000   0.000000   0.000000   0.000000   0.000000
   65  HE 1 XYZ   0.000000   0.000000   0.000000   0.000000   0.000000
   66  HE 1 XXX   0.000000   0.000000   0.000000   0.000000  -0.838404
   67  HE 1 YYY   0.000000   0.000000   0.000000   0.000000   0.000000
   68  HE 1 ZZZ   0.000000   0.000000   0.000000   0.000000   0.000000
   69  HE 1 XXY   0.000000   0.000000   0.000000   0.000000   0.000000
   70  HE 1 XXZ   0.000000   0.000000   0.000000   0.000000   0.000000
   71  HE 1 YYX   0.000000   0.000000   0.000000   0.000000   1.124837
   72  HE 1 YYZ   0.000000   0.000000   0.000000   0.000000   0.000000
   73  HE 1 ZZX   0.000000   0.000000   0.000000   0.000000   0.000000
   74  HE 1 ZZY   0.000000   0.000000   0.000000   0.000000   0.000000
   75  HE 1 XYZ   0.000000   0.000000   0.000000   0.000000   0.000000
   76  HE 1XXXX   0.000000   0.000000   0.000000   0.000000   0.000000
   77  HE 1YYYY   0.000000   0.000000   0.000000   0.000000   0.000000
   78  HE 1ZZZZ   0.000000   0.000000   0.000000   0.000000   0.000000
   79  HE 1XXXY   0.000000   0.000000   0.000000   0.000000   0.000000
   80  HE 1XXXZ   0.000000   0.000000   0.000000   0.000000   0.000000
   81  HE 1YYYX   0.000000   0.000000   0.000000   0.000000   0.000000
   82  HE 1YYYZ   0.000000   0.000000   0.000000   0.000000   0.000000
   83  HE 1ZZZX   0.000000   0.000000   0.000000   0.000000   0.000000
   84  HE 1ZZZY   0.000000   0.000000   0.000000   0.000000   0.000000
   85  HE 1XXYY   0.000000   0.000000   0.000000   0.000000   0.000000
   86  HE 1XXZZ   0.000000   0.000000   0.000000   0.000000   0.000000
   87  HE 1YYZZ   0.000000   0.000000   0.000000   0.000000   0.000000
   88  HE 1XXYZ   0.000000   0.000000   0.000000   0.000000   0.000000
   89  HE 1YYXZ   0.000000   0.000000   0.000000   0.000000   0.000000
   90  HE 1ZZXY   0.000000   0.000000   0.000000   0.000000   0.000000
   91  HE 1XXXX   0.000000   0.000000   0.000000   0.000000   0.000000
   92  HE 1YYYY   0.000000   0.000000   0.000000   0.000000   0.000000
   93  HE 1ZZZZ   0.000000   0.000000   0.000000   0.000000   0.000000
   94  HE 1XXXY   0.000000   0.000000   0.000000   0.000000   0.000000
   95  HE 1XXXZ   0.000000   0.000000   0.000000   0.000000   0.000000
   96  HE 1YYYX   0.000000   0.000000   0.000000   0.000000   0.000000
   97  HE 1YYYZ   0.000000   0.000000   0.000000   0.000000   0.000000
   98  HE 1ZZZX   0.000000   0.000000   0.000000   0.000000   0.000000
   99  HE 1ZZZY   0.000000   0.000000   0.000000   0.000000   0.000000
  100  HE 1XXYY   0.000000   0.000000   0.000000   0.000000   0.000000
  101  HE 1XXZZ   0.000000   0.000000   0.000000   0.000000   0.000000
  102  HE 1YYZZ   0.000000   0.000000   0.000000   0.000000   0.000000
  103  HE 1XXYZ   0.000000   0.000000   0.000000   0.000000   0.000000
  104  HE 1YYXZ   0.000000   0.000000   0.000000   0.000000   0.000000
  105  HE 1ZZXY   0.000000   0.000000   0.000000   0.000000   0.000000

                     16         17         18         19         20
                    2.2795     2.2795     2.2795     2.2795     2.2795
                     A          A          A          A          A   
    1  HE 1  S    0.000000   0.000000   0.000000   0.000000   0.000000
    2  HE 1  S    0.000000   0.000000   0.000000   0.000000   0.000000
    3  HE 1  S    0.000000   0.000000   0.000000   0.000000   0.000000
    4  HE 1  S    0.000000   0.000000   0.000000   0.000000   0.000000
    5  HE 1  S    0.000000   0.000000   0.000000   0.000000   0.000000
    6  HE 1  S    0.000000   0.000000   0.000000   0.000000   0.000000
    7  HE 1  X    0.000000   0.000000   0.000000   0.000000   0.000000
    8  HE 1  Y    0.000000   0.000000   0.000000   0.000000   0.000000
    9  HE 1  Z    0.000000   0.000000   0.000000   0.000000   0.000000
   10  HE 1  X    0.000000   0.000000   0.000000   0.000000   0.000000
   11  HE 1  Y    0.000000   0.000000   0.000000   0.000000   0.000000
   12  HE 1  Z    0.000000   0.000000   0.000000   0.000000   0.000000
   13  HE 1  X    0.000000   0.000000   0.000000   0.000000   0.000000
   14  HE 1  Y    0.000000   0.000000   0.000000   0.000000   0.000000
   15  HE 1  Z    0.000000   0.000000   0.000000   0.000000   0.000000
   16  HE 1  X    0.000000   0.000000   0.000000   0.000000   0.000000
   17  HE 1  Y    0.000000   0.000000   0.000000   0.000000   0.000000
   18  HE 1  Z    0.000000   0.000000   0.000000   0.000000   0.000000
   19  HE 1  X    0.000000   0.000000   0.000000   0.000000   0.000000
   20  HE 1  Y    0.000000   0.000000   0.000000   0.000000   0.000000
   21  HE 1  Z    0.000000   0.000000   0.000000   0.000000   0.000000
   22  HE 1 XX    0.000000   0.000000   0.000000   0.000000   0.000000
   23  HE 1 YY    0.000000   0.000000   0.000000   0.000000   0.000000
   24  HE 1 ZZ    0.000000   0.000000   0.000000   0.000000   0.000000
   25  HE 1 XY    0.000000   0.000000   0.000000   0.000000   0.000000
   26  HE 1 XZ    0.000000   0.000000   0.000000   0.000000   0.000000
   27  HE 1 YZ    0.000000   0.000000   0.000000   0.000000   0.000000
   28  HE 1 XX    0.000000   0.000000   0.000000   0.000000   0.000000
   29  HE 1 YY    0.000000   0.000000   0.000000   0.000000   0.000000
   30  HE 1 ZZ    0.000000   0.000000   0.000000   0.000000   0.000000
   31  HE 1 XY    0.000000   0.000000   0.000000   0.000000   0.000000
   32  HE 1 XZ    0.000000   0.000000   0.000000   0.000000   0.000000
   33  HE 1 YZ    0.000000   0.000000   0.000000   0.000000   0.000000
   34  HE 1 XX    0.000000   0.000000   0.000000   0.000000   0.000000
   35  HE 1 YY    0.000000   0.000000   0.000000   0.000000   0.000000
   36  HE 1 ZZ    0.000000   0.000000   0.000000   0.000000   0.000000
   37  HE 1 XY    0.000000   0.000000   0.000000   0.000000   0.000000
   38  HE 1 XZ    0.000000   0.000000   0.000000   0.000000   0.000000
   39  HE 1 YZ    0.000000   0.000000   0.000000   0.000000   0.000000
   40  HE 1 XX    0.000000   0.000000   0.000000   0.000000   0.000000
   41  HE 1 YY    0.000000   0.000000   0.000000   0.000000   0.000000
   42  HE 1 ZZ    0.000000   0.000000   0.000000   0.000000   0.000000
   43  HE 1 XY    0.000000   0.000000   0.000000   0.000000   0.000000
   44  HE 1 XZ    0.000000   0.000000   0.000000   0.000000   0.000000
   45  HE 1 YZ    0.000000   0.000000   0.000000   0.000000   0.000000
   46  HE 1 XXX   0.000000   0.000000   0.000000  -0.013705   0.000000
   47  HE 1 YYY  -0.017693   0.000000   0.000000   0.000000  -0.013705
   48  HE 1 ZZZ   0.000000   0.000000   0.000000   0.000000   0.000000
   49  HE 1 XXY   0.023738   0.000000   0.000000   0.000000  -0.006129
   50  HE 1 XXZ   0.000000   0.019382   0.000000   0.000000   0.000000
   51  HE 1 YYX   0.000000   0.000000   0.000000  -0.006129   0.000000
   52  HE 1 YYZ   0.000000  -0.019382   0.000000   0.000000   0.000000
   53  HE 1 ZZX   0.000000   0.000000   0.000000   0.024517   0.000000
   54  HE 1 ZZY   0.000000   0.000000   0.000000   0.000000   0.024517
   55  HE 1 XYZ   0.000000   0.000000   0.022381   0.000000   0.000000
   56  HE 1 XXX   0.000000   0.000000   0.000000   0.086839   0.000000
   57  HE 1 YYY   0.112108   0.000000   0.000000   0.000000   0.086839
   58  HE 1 ZZZ   0.000000   0.000000   0.000000   0.000000   0.000000
   59  HE 1 XXY  -0.150409   0.000000   0.000000   0.000000   0.038835
   60  HE 1 XXZ   0.000000  -0.122809   0.000000   0.000000   0.000000
   61  HE 1 YYX   0.000000   0.000000   0.000000   0.038835   0.000000
   62  HE 1 YYZ   0.000000   0.122809   0.000000   0.000000   0.000000
   63  HE 1 ZZX   0.000000   0.000000   0.000000  -0.155342   0.000000
   64  HE 1 ZZY   0.000000   0.000000   0.000000   0.000000  -0.155342
   65  HE 1 XYZ   0.000000   0.000000  -0.141807   0.000000   0.000000
   66  HE 1 XXX   0.000000   0.000000   0.000000  -0.649425   0.000000
   67  HE 1 YYY  -0.838404   0.000000   0.000000   0.000000  -0.649425
   68  HE 1 ZZZ   0.000000   0.000000   0.000000   0.000000   0.000000
   69  HE 1 XXY   1.124837   0.000000   0.000000   0.000000  -0.290432
   70  HE 1 XXZ   0.000000   0.918425   0.000000   0.000000   0.000000
   71  HE 1 YYX   0.000000   0.000000   0.000000  -0.290432   0.000000
   72  HE 1 YYZ   0.000000  -0.918425   0.000000   0.000000   0.000000
   73  HE 1 ZZX   0.000000   0.000000   0.000000   1.161726   0.000000
   74  HE 1 ZZY   0.000000   0.000000   0.000000   0.000000   1.161726
   75  HE 1 XYZ   0.000000   0.000000   1.060506   0.000000   0.000000
   76  HE 1XXXX   0.000000   0.000000   0.000000   0.000000   0.000000
   77  HE 1YYYY   0.000000   0.000000   0.000000   0.000000   0.000000
   78  HE 1ZZZZ   0.000000   0.000000   0.000000   0.000000   0.000000
   79  HE 1XXXY   0.000000   0.000000   0.000000   0.000000   0.000000
   80  HE 1XXXZ   0.000000   0.000000   0.000000   0.000000   0.000000
   81  HE 1YYYX   0.000000   0.000000   0.000000   0.000000   0.000000
   82  HE 1YYYZ   0.000000   0.000000   0.000000   0.000000   0.000000
   83  HE 1ZZZX   0.000000   0.000000   0.000000   0.000000   0.000000
   84  HE 1ZZZY   0.000000   0.000000   0.000000   0.000000   0.000000
   85  HE 1XXYY   0.000000   0.000000   0.000000   0.000000   0.000000
   86  HE 1XXZZ   0.000000   0.000000   0.000000   0.000000   0.000000
   87  HE 1YYZZ   0.000000   0.000000   0.000000   0.000000   0.000000
   88  HE 1XXYZ   0.000000   0.000000   0.000000   0.000000   0.000000
   89  HE 1YYXZ   0.000000   0.000000   0.000000   0.000000   0.000000
   90  HE 1ZZXY   0.000000   0.000000   0.000000   0.000000   0.000000
   91  HE 1XXXX   0.000000   0.000000   0.000000   0.000000   0.000000
   92  HE 1YYYY   0.000000   0.000000   0.000000   0.000000   0.000000
   93  HE 1ZZZZ   0.000000   0.000000   0.000000   0.000000   0.000000
   94  HE 1XXXY   0.000000   0.000000   0.000000   0.000000   0.000000
   95  HE 1XXXZ   0.000000   0.000000   0.000000   0.000000   0.000000
   96  HE 1YYYX   0.000000   0.000000   0.000000   0.000000   0.000000
   97  HE 1YYYZ   0.000000   0.000000   0.000000   0.000000   0.000000
   98  HE 1ZZZX   0.000000   0.000000   0.000000   0.000000   0.000000
   99  HE 1ZZZY   0.000000   0.000000   0.000000   0.000000   0.000000
  100  HE 1XXYY   0.000000   0.000000   0.000000   0.000000   0.000000
  101  HE 1XXZZ   0.000000   0.000000   0.000000   0.000000   0.000000
  102  HE 1YYZZ   0.000000   0.000000   0.000000   0.000000   0.000000
  103  HE 1XXYZ   0.000000   0.000000   0.000000   0.000000   0.000000
  104  HE 1YYXZ   0.000000   0.000000   0.000000   0.000000   0.000000
  105  HE 1ZZXY   0.000000   0.000000   0.000000   0.000000   0.000000

                     21         22         23         24         25
                    2.2795     2.6755     3.5245     3.5245     3.5245
                     A          A          A          A          A   
    1  HE 1  S    0.000000  -1.768737   0.000000   0.000000   0.000000
    2  HE 1  S    0.000000   0.454927   0.000000   0.000000   0.000000
    3  HE 1  S    0.000000  -1.856662   0.000000   0.000000   0.000000
    4  HE 1  S    0.000000   4.558349   0.000000   0.000000   0.000000
    5  HE 1  S    0.000000  -2.037743   0.000000   0.000000   0.000000
    6  HE 1  S    0.000000   0.759705   0.000000   0.000000   0.000000
    7  HE 1  X    0.000000   0.000000   0.000000   0.000000   0.000000
    8  HE 1  Y    0.000000   0.000000   0.000000   0.000000   0.000000
    9  HE 1  Z    0.000000   0.000000   0.000000   0.000000   0.000000
   10  HE 1  X    0.000000   0.000000   0.000000   0.000000   0.000000
   11  HE 1  Y    0.000000   0.000000   0.000000   0.000000   0.000000
   12  HE 1  Z    0.000000   0.000000   0.000000   0.000000   0.000000
   13  HE 1  X    0.000000   0.000000   0.000000   0.000000   0.000000
   14  HE 1  Y    0.000000   0.000000   0.000000   0.000000   0.000000
   15  HE 1  Z    0.000000   0.000000   0.000000   0.000000   0.000000
   16  HE 1  X    0.000000   0.000000   0.000000   0.000000   0.000000
   17  HE 1  Y    0.000000   0.000000   0.000000   0.000000   0.000000
   18  HE 1  Z    0.000000   0.000000   0.000000   0.000000   0.000000
   19  HE 1  X    0.000000   0.000000   0.000000   0.000000   0.000000
   20  HE 1  Y    0.000000   0.000000   0.000000   0.000000   0.000000
   21  HE 1  Z    0.000000   0.000000   0.000000   0.000000   0.000000
   22  HE 1 XX    0.000000   0.000000   0.000000   0.000000   0.000000
   23  HE 1 YY    0.000000   0.000000   0.000000   0.000000   0.000000
   24  HE 1 ZZ    0.000000   0.000000   0.000000   0.000000   0.000000
   25  HE 1 XY    0.000000   0.000000   0.043580   0.000000   0.000000
   26  HE 1 XZ    0.000000   0.000000   0.000000   0.000000   0.043580
   27  HE 1 YZ    0.000000   0.000000   0.000000   0.043580   0.000000
   28  HE 1 XX    0.000000   0.000000   0.000000   0.000000   0.000000
   29  HE 1 YY    0.000000   0.000000   0.000000   0.000000   0.000000
   30  HE 1 ZZ    0.000000   0.000000   0.000000   0.000000   0.000000
   31  HE 1 XY    0.000000   0.000000  -0.224056   0.000000   0.000000
   32  HE 1 XZ    0.000000   0.000000   0.000000   0.000000  -0.224056
   33  HE 1 YZ    0.000000   0.000000   0.000000  -0.224056   0.000000
   34  HE 1 XX    0.000000   0.000000   0.000000   0.000000   0.000000
   35  HE 1 YY    0.000000   0.000000   0.000000   0.000000   0.000000
   36  HE 1 ZZ    0.000000   0.000000   0.000000   0.000000   0.000000
   37  HE 1 XY    0.000000   0.000000   1.415014   0.000000   0.000000
   38  HE 1 XZ    0.000000   0.000000   0.000000   0.000000   1.415014
   39  HE 1 YZ    0.000000   0.000000   0.000000   1.415014   0.000000
   40  HE 1 XX    0.000000   0.000000   0.000000   0.000000   0.000000
   41  HE 1 YY    0.000000   0.000000   0.000000   0.000000   0.000000
   42  HE 1 ZZ    0.000000   0.000000   0.000000   0.000000   0.000000
   43  HE 1 XY    0.000000   0.000000  -0.680254   0.000000   0.000000
   44  HE 1 XZ    0.000000   0.000000   0.000000   0.000000  -0.680254
   45  HE 1 YZ    0.000000   0.000000   0.000000  -0.680254   0.000000
   46  HE 1 XXX   0.000000   0.000000   0.000000   0.000000   0.000000
   47  HE 1 YYY   0.000000   0.000000   0.000000   0.000000   0.000000
   48  HE 1 ZZZ   0.022381   0.000000   0.000000   0.000000   0.000000
   49  HE 1 XXY   0.000000   0.000000   0.000000   0.000000   0.000000
   50  HE 1 XXZ  -0.015013   0.000000   0.000000   0.000000   0.000000
   51  HE 1 YYX   0.000000   0.000000   0.000000   0.000000   0.000000
   52  HE 1 YYZ  -0.015013   0.000000   0.000000   0.000000   0.000000
   53  HE 1 ZZX   0.000000   0.000000   0.000000   0.000000   0.000000
   54  HE 1 ZZY   0.000000   0.000000   0.000000   0.000000   0.000000
   55  HE 1 XYZ   0.000000   0.000000   0.000000   0.000000   0.000000
   56  HE 1 XXX   0.000000   0.000000   0.000000   0.000000   0.000000
   57  HE 1 YYY   0.000000   0.000000   0.000000   0.000000   0.000000
   58  HE 1 ZZZ  -0.141807   0.000000   0.000000   0.000000   0.000000
   59  HE 1 XXY   0.000000   0.000000   0.000000   0.000000   0.000000
   60  HE 1 XXZ   0.095127   0.000000   0.000000   0.000000   0.000000
   61  HE 1 YYX   0.000000   0.000000   0.000000   0.000000   0.000000
   62  HE 1 YYZ   0.095127   0.000000   0.000000   0.000000   0.000000
   63  HE 1 ZZX   0.000000   0.000000   0.000000   0.000000   0.000000
   64  HE 1 ZZY   0.000000   0.000000   0.000000   0.000000   0.000000
   65  HE 1 XYZ   0.000000   0.000000   0.000000   0.000000   0.000000
   66  HE 1 XXX   0.000000   0.000000   0.000000   0.000000   0.000000
   67  HE 1 YYY   0.000000   0.000000   0.000000   0.000000   0.000000
   68  HE 1 ZZZ   1.060506   0.000000   0.000000   0.000000   0.000000
   69  HE 1 XXY   0.000000   0.000000   0.000000   0.000000   0.000000
   70  HE 1 XXZ  -0.711409   0.000000   0.000000   0.000000   0.000000
   71  HE 1 YYX   0.000000   0.000000   0.000000   0.000000   0.000000
   72  HE 1 YYZ  -0.711409   0.000000   0.000000   0.000000   0.000000
   73  HE 1 ZZX   0.000000   0.000000   0.000000   0.000000   0.000000
   74  HE 1 ZZY   0.000000   0.000000   0.000000   0.000000   0.000000
   75  HE 1 XYZ   0.000000   0.000000   0.000000   0.000000   0.000000
   76  HE 1XXXX   0.000000   0.000000   0.000000   0.000000   0.000000
   77  HE 1YYYY   0.000000   0.000000   0.000000   0.000000   0.000000
   78  HE 1ZZZZ   0.000000   0.000000   0.000000   0.000000   0.000000
   79  HE 1XXXY   0.000000   0.000000   0.000000   0.000000   0.000000
   80  HE 1XXXZ   0.000000   0.000000   0.000000   0.000000   0.000000
   81  HE 1YYYX   0.000000   0.000000   0.000000   0.000000   0.000000
   82  HE 1YYYZ   0.000000   0.000000   0.000000   0.000000   0.000000
   83  HE 1ZZZX   0.000000   0.000000   0.000000   0.000000   0.000000
   84  HE 1ZZZY   0.000000   0.000000   0.000000   0.000000   0.000000
   85  HE 1XXYY   0.000000   0.000000   0.000000   0.000000   0.000000
   86  HE 1XXZZ   0.000000   0.000000   0.000000   0.000000   0.000000
   87  HE 1YYZZ   0.000000   0.000000   0.000000   0.000000   0.000000
   88  HE 1XXYZ   0.000000   0.000000   0.000000   0.000000   0.000000
   89  HE 1YYXZ   0.000000   0.000000   0.000000   0.000000   0.000000
   90  HE 1ZZXY   0.000000   0.000000   0.000000   0.000000   0.000000
   91  HE 1XXXX   0.000000   0.000000   0.000000   0.000000   0.000000
   92  HE 1YYYY   0.000000   0.000000   0.000000   0.000000   0.000000
   93  HE 1ZZZZ   0.000000   0.000000   0.000000   0.000000   0.000000
   94  HE 1XXXY   0.000000   0.000000   0.000000   0.000000   0.000000
   95  HE 1XXXZ   0.000000   0.000000   0.000000   0.000000   0.000000
   96  HE 1YYYX   0.000000   0.000000   0.000000   0.000000   0.000000
   97  HE 1YYYZ   0.000000   0.000000   0.000000   0.000000   0.000000
   98  HE 1ZZZX   0.000000   0.000000   0.000000   0.000000   0.000000
   99  HE 1ZZZY   0.000000   0.000000   0.000000   0.000000   0.000000
  100  HE 1XXYY   0.000000   0.000000   0.000000   0.000000   0.000000
  101  HE 1XXZZ   0.000000   0.000000   0.000000   0.000000   0.000000
  102  HE 1YYZZ   0.000000   0.000000   0.000000   0.000000   0.000000
  103  HE 1XXYZ   0.000000   0.000000   0.000000   0.000000   0.000000
  104  HE 1YYXZ   0.000000   0.000000   0.000000   0.000000   0.000000
  105  HE 1ZZXY   0.000000   0.000000   0.000000   0.000000   0.000000

                     26         27         28         29         30
                    3.5245     3.5245     3.9925     3.9925     3.9925
                     A          A          A          A          A   
    1  HE 1  S    0.000000   0.000000   0.000000   0.000000   0.000000
    2  HE 1  S    0.000000   0.000000   0.000000   0.000000   0.000000
    3  HE 1  S    0.000000   0.000000   0.000000   0.000000   0.000000
    4  HE 1  S    0.000000   0.000000   0.000000   0.000000   0.000000
    5  HE 1  S    0.000000   0.000000   0.000000   0.000000   0.000000
    6  HE 1  S    0.000000   0.000000   0.000000   0.000000   0.000000
    7  HE 1  X    0.000000   0.000000   0.000000   0.000000   0.074813
    8  HE 1  Y    0.000000   0.000000   0.000000   0.074813   0.000000
    9  HE 1  Z    0.000000   0.000000   0.074813   0.000000   0.000000
   10  HE 1  X    0.000000   0.000000   0.000000   0.000000  -0.297975
   11  HE 1  Y    0.000000   0.000000   0.000000  -0.297975   0.000000
   12  HE 1  Z    0.000000   0.000000  -0.297975   0.000000   0.000000
   13  HE 1  X    0.000000   0.000000   0.000000   0.000000   1.878610
   14  HE 1  Y    0.000000   0.000000   0.000000   1.878610   0.000000
   15  HE 1  Z    0.000000   0.000000   1.878610   0.000000   0.000000
   16  HE 1  X    0.000000   0.000000   0.000000   0.000000  -1.622973
   17  HE 1  Y    0.000000   0.000000   0.000000  -1.622973   0.000000
   18  HE 1  Z    0.000000   0.000000  -1.622973   0.000000   0.000000
   19  HE 1  X    0.000000   0.000000   0.000000   0.000000   0.576329
   20  HE 1  Y    0.000000   0.000000   0.000000   0.576329   0.000000
   21  HE 1  Z    0.000000   0.000000   0.576329   0.000000   0.000000
   22  HE 1 XX   -0.021790   0.037741   0.000000   0.000000   0.000000
   23  HE 1 YY   -0.021790  -0.037741   0.000000   0.000000   0.000000
   24  HE 1 ZZ    0.043580   0.000000   0.000000   0.000000   0.000000
   25  HE 1 XY    0.000000   0.000000   0.000000   0.000000   0.000000
   26  HE 1 XZ    0.000000   0.000000   0.000000   0.000000   0.000000
   27  HE 1 YZ    0.000000   0.000000   0.000000   0.000000   0.000000
   28  HE 1 XX    0.112028  -0.194039   0.000000   0.000000   0.000000
   29  HE 1 YY    0.112028   0.194039   0.000000   0.000000   0.000000
   30  HE 1 ZZ   -0.224056   0.000000   0.000000   0.000000   0.000000
   31  HE 1 XY    0.000000   0.000000   0.000000   0.000000   0.000000
   32  HE 1 XZ    0.000000   0.000000   0.000000   0.000000   0.000000
   33  HE 1 YZ    0.000000   0.000000   0.000000   0.000000   0.000000
   34  HE 1 XX   -0.707507   1.225438   0.000000   0.000000   0.000000
   35  HE 1 YY   -0.707507  -1.225438   0.000000   0.000000   0.000000
   36  HE 1 ZZ    1.415014   0.000000   0.000000   0.000000   0.000000
   37  HE 1 XY    0.000000   0.000000   0.000000   0.000000   0.000000
   38  HE 1 XZ    0.000000   0.000000   0.000000   0.000000   0.000000
   39  HE 1 YZ    0.000000   0.000000   0.000000   0.000000   0.000000
   40  HE 1 XX    0.340127  -0.589117   0.000000   0.000000   0.000000
   41  HE 1 YY    0.340127   0.589117   0.000000   0.000000   0.000000
   42  HE 1 ZZ   -0.680254   0.000000   0.000000   0.000000   0.000000
   43  HE 1 XY    0.000000   0.000000   0.000000   0.000000   0.000000
   44  HE 1 XZ    0.000000   0.000000   0.000000   0.000000   0.000000
   45  HE 1 YZ    0.000000   0.000000   0.000000   0.000000   0.000000
   46  HE 1 XXX   0.000000   0.000000   0.000000   0.000000   0.000000
   47  HE 1 YYY   0.000000   0.000000   0.000000   0.000000   0.000000
   48  HE 1 ZZZ   0.000000   0.000000   0.000000   0.000000   0.000000
   49  HE 1 XXY   0.000000   0.000000   0.000000   0.000000   0.000000
   50  HE 1 XXZ   0.000000   0.000000   0.000000   0.000000   0.000000
   51  HE 1 YYX   0.000000   0.000000   0.000000   0.000000   0.000000
   52  HE 1 YYZ   0.000000   0.000000   0.000000   0.000000   0.000000
   53  HE 1 ZZX   0.000000   0.000000   0.000000   0.000000   0.000000
   54  HE 1 ZZY   0.000000   0.000000   0.000000   0.000000   0.000000
   55  HE 1 XYZ   0.000000   0.000000   0.000000   0.000000   0.000000
   56  HE 1 XXX   0.000000   0.000000   0.000000   0.000000   0.000000
   57  HE 1 YYY   0.000000   0.000000   0.000000   0.000000   0.000000
   58  HE 1 ZZZ   0.000000   0.000000   0.000000   0.000000   0.000000
   59  HE 1 XXY   0.000000   0.000000   0.000000   0.000000   0.000000
   60  HE 1 XXZ   0.000000   0.000000   0.000000   0.000000   0.000000
   61  HE 1 YYX   0.000000   0.000000   0.000000   0.000000   0.000000
   62  HE 1 YYZ   0.000000   0.000000   0.000000   0.000000   0.000000
   63  HE 1 ZZX   0.000000   0.000000   0.000000   0.000000   0.000000
   64  HE 1 ZZY   0.000000   0.000000   0.000000   0.000000   0.000000
   65  HE 1 XYZ   0.000000   0.000000   0.000000   0.000000   0.000000
   66  HE 1 XXX   0.000000   0.000000   0.000000   0.000000   0.000000
   67  HE 1 YYY   0.000000   0.000000   0.000000   0.000000   0.000000
   68  HE 1 ZZZ   0.000000   0.000000   0.000000   0.000000   0.000000
   69  HE 1 XXY   0.000000   0.000000   0.000000   0.000000   0.000000
   70  HE 1 XXZ   0.000000   0.000000   0.000000   0.000000   0.000000
   71  HE 1 YYX   0.000000   0.000000   0.000000   0.000000   0.000000
   72  HE 1 YYZ   0.000000   0.000000   0.000000   0.000000   0.000000
   73  HE 1 ZZX   0.000000   0.000000   0.000000   0.000000   0.000000
   74  HE 1 ZZY   0.000000   0.000000   0.000000   0.000000   0.000000
   75  HE 1 XYZ   0.000000   0.000000   0.000000   0.000000   0.000000
   76  HE 1XXXX   0.000000   0.000000   0.000000   0.000000   0.000000
   77  HE 1YYYY   0.000000   0.000000   0.000000   0.000000   0.000000
   78  HE 1ZZZZ   0.000000   0.000000   0.000000   0.000000   0.000000
   79  HE 1XXXY   0.000000   0.000000   0.000000   0.000000   0.000000
   80  HE 1XXXZ   0.000000   0.000000   0.000000   0.000000   0.000000
   81  HE 1YYYX   0.000000   0.000000   0.000000   0.000000   0.000000
   82  HE 1YYYZ   0.000000   0.000000   0.000000   0.000000   0.000000
   83  HE 1ZZZX   0.000000   0.000000   0.000000   0.000000   0.000000
   84  HE 1ZZZY   0.000000   0.000000   0.000000   0.000000   0.000000
   85  HE 1XXYY   0.000000   0.000000   0.000000   0.000000   0.000000
   86  HE 1XXZZ   0.000000   0.000000   0.000000   0.000000   0.000000
   87  HE 1YYZZ   0.000000   0.000000   0.000000   0.000000   0.000000
   88  HE 1XXYZ   0.000000   0.000000   0.000000   0.000000   0.000000
   89  HE 1YYXZ   0.000000   0.000000   0.000000   0.000000   0.000000
   90  HE 1ZZXY   0.000000   0.000000   0.000000   0.000000   0.000000
   91  HE 1XXXX   0.000000   0.000000   0.000000   0.000000   0.000000
   92  HE 1YYYY   0.000000   0.000000   0.000000   0.000000   0.000000
   93  HE 1ZZZZ   0.000000   0.000000   0.000000   0.000000   0.000000
   94  HE 1XXXY   0.000000   0.000000   0.000000   0.000000   0.000000
   95  HE 1XXXZ   0.000000   0.000000   0.000000   0.000000   0.000000
   96  HE 1YYYX   0.000000   0.000000   0.000000   0.000000   0.000000
   97  HE 1YYYZ   0.000000   0.000000   0.000000   0.000000   0.000000
   98  HE 1ZZZX   0.000000   0.000000   0.000000   0.000000   0.000000
   99  HE 1ZZZY   0.000000   0.000000   0.000000   0.000000   0.000000
  100  HE 1XXYY   0.000000   0.000000   0.000000   0.000000   0.000000
  101  HE 1XXZZ   0.000000   0.000000   0.000000   0.000000   0.000000
  102  HE 1YYZZ   0.000000   0.000000   0.000000   0.000000   0.000000
  103  HE 1XXYZ   0.000000   0.000000   0.000000   0.000000   0.000000
  104  HE 1YYXZ   0.000000   0.000000   0.000000   0.000000   0.000000
  105  HE 1ZZXY   0.000000   0.000000   0.000000   0.000000   0.000000

                     31         32         33         34         35
                    5.2376     5.2376     5.2376     5.2376     5.2376
                     A          A          A          A          A   
    1  HE 1  S    0.000000   0.000000   0.000000   0.000000   0.000000
    2  HE 1  S    0.000000   0.000000   0.000000   0.000000   0.000000
    3  HE 1  S    0.000000   0.000000   0.000000   0.000000   0.000000
    4  HE 1  S    0.000000   0.000000   0.000000   0.000000   0.000000
    5  HE 1  S    0.000000   0.000000   0.000000   0.000000   0.000000
    6  HE 1  S    0.000000   0.000000   0.000000   0.000000   0.000000
    7  HE 1  X    0.000000   0.000000   0.000000   0.000000   0.000000
    8  HE 1  Y    0.000000   0.000000   0.000000   0.000000   0.000000
    9  HE 1  Z    0.000000   0.000000   0.000000   0.000000   0.000000
   10  HE 1  X    0.000000   0.000000   0.000000   0.000000   0.000000
   11  HE 1  Y    0.000000   0.000000   0.000000   0.000000   0.000000
   12  HE 1  Z    0.000000   0.000000   0.000000   0.000000   0.000000
   13  HE 1  X    0.000000   0.000000   0.000000   0.000000   0.000000
   14  HE 1  Y    0.000000   0.000000   0.000000   0.000000   0.000000
   15  HE 1  Z    0.000000   0.000000   0.000000   0.000000   0.000000
   16  HE 1  X    0.000000   0.000000   0.000000   0.000000   0.000000
   17  HE 1  Y    0.000000   0.000000   0.000000   0.000000   0.000000
   18  HE 1  Z    0.000000   0.000000   0.000000   0.000000   0.000000
   19  HE 1  X    0.000000   0.000000   0.000000   0.000000   0.000000
   20  HE 1  Y    0.000000   0.000000   0.000000   0.000000   0.000000
   21  HE 1  Z    0.000000   0.000000   0.000000   0.000000   0.000000
   22  HE 1 XX    0.000000   0.000000   0.000000   0.000000   0.000000
   23  HE 1 YY    0.000000   0.000000   0.000000   0.000000   0.000000
   24  HE 1 ZZ    0.000000   0.000000   0.000000   0.000000   0.000000
   25  HE 1 XY    0.000000   0.000000   0.000000   0.000000   0.000000
   26  HE 1 XZ    0.000000   0.000000   0.000000   0.000000   0.000000
   27  HE 1 YZ    0.000000   0.000000   0.000000   0.000000   0.000000
   28  HE 1 XX    0.000000   0.000000   0.000000   0.000000   0.000000
   29  HE 1 YY    0.000000   0.000000   0.000000   0.000000   0.000000
   30  HE 1 ZZ    0.000000   0.000000   0.000000   0.000000   0.000000
   31  HE 1 XY    0.000000   0.000000   0.000000   0.000000   0.000000
   32  HE 1 XZ    0.000000   0.000000   0.000000   0.000000   0.000000
   33  HE 1 YZ    0.000000   0.000000   0.000000   0.000000   0.000000
   34  HE 1 XX    0.000000   0.000000   0.000000   0.000000   0.000000
   35  HE 1 YY    0.000000   0.000000   0.000000   0.000000   0.000000
   36  HE 1 ZZ    0.000000   0.000000   0.000000   0.000000   0.000000
   37  HE 1 XY    0.000000   0.000000   0.000000   0.000000   0.000000
   38  HE 1 XZ    0.000000   0.000000   0.000000   0.000000   0.000000
   39  HE 1 YZ    0.000000   0.000000   0.000000   0.000000   0.000000
   40  HE 1 XX    0.000000   0.000000   0.000000   0.000000   0.000000
   41  HE 1 YY    0.000000   0.000000   0.000000   0.000000   0.000000
   42  HE 1 ZZ    0.000000   0.000000   0.000000   0.000000   0.000000
   43  HE 1 XY    0.000000   0.000000   0.000000   0.000000   0.000000
   44  HE 1 XZ    0.000000   0.000000   0.000000   0.000000   0.000000
   45  HE 1 YZ    0.000000   0.000000   0.000000   0.000000   0.000000
   46  HE 1 XXX   0.000000   0.000000   0.000000   0.000000   0.000000
   47  HE 1 YYY   0.000000   0.000000   0.000000   0.000000   0.000000
   48  HE 1 ZZZ   0.000000   0.000000   0.000000   0.000000   0.000000
   49  HE 1 XXY   0.000000   0.000000   0.000000   0.000000   0.000000
   50  HE 1 XXZ   0.000000   0.000000   0.000000   0.000000   0.000000
   51  HE 1 YYX   0.000000   0.000000   0.000000   0.000000   0.000000
   52  HE 1 YYZ   0.000000   0.000000   0.000000   0.000000   0.000000
   53  HE 1 ZZX   0.000000   0.000000   0.000000   0.000000   0.000000
   54  HE 1 ZZY   0.000000   0.000000   0.000000   0.000000   0.000000
   55  HE 1 XYZ   0.000000   0.000000   0.000000   0.000000   0.000000
   56  HE 1 XXX   0.000000   0.000000   0.000000   0.000000   0.000000
   57  HE 1 YYY   0.000000   0.000000   0.000000   0.000000   0.000000
   58  HE 1 ZZZ   0.000000   0.000000   0.000000   0.000000   0.000000
   59  HE 1 XXY   0.000000   0.000000   0.000000   0.000000   0.000000
   60  HE 1 XXZ   0.000000   0.000000   0.000000   0.000000   0.000000
   61  HE 1 YYX   0.000000   0.000000   0.000000   0.000000   0.000000
   62  HE 1 YYZ   0.000000   0.000000   0.000000   0.000000   0.000000
   63  HE 1 ZZX   0.000000   0.000000   0.000000   0.000000   0.000000
   64  HE 1 ZZY   0.000000   0.000000   0.000000   0.000000   0.000000
   65  HE 1 XYZ   0.000000   0.000000   0.000000   0.000000   0.000000
   66  HE 1 XXX   0.000000   0.000000   0.000000   0.000000   0.000000
   67  HE 1 YYY   0.000000   0.000000   0.000000   0.000000   0.000000
   68  HE 1 ZZZ   0.000000   0.000000   0.000000   0.000000   0.000000
   69  HE 1 XXY   0.000000   0.000000   0.000000   0.000000   0.000000
   70  HE 1 XXZ   0.000000   0.000000   0.000000   0.000000   0.000000
   71  HE 1 YYX   0.000000   0.000000   0.000000   0.000000   0.000000
   72  HE 1 YYZ   0.000000   0.000000   0.000000   0.000000   0.000000
   73  HE 1 ZZX   0.000000   0.000000   0.000000   0.000000   0.000000
   74  HE 1 ZZY   0.000000   0.000000   0.000000   0.000000   0.000000
   75  HE 1 XYZ   0.000000   0.000000   0.000000   0.000000   0.000000
   76  HE 1XXXX  -0.030647   0.000000   0.000000   0.000000   0.060436
   77  HE 1YYYY  -0.030647   0.000000   0.000000   0.000000   0.060436
   78  HE 1ZZZZ  -0.081725   0.000000   0.000000   0.000000   0.000000
   79  HE 1XXXY   0.000000   0.000000   0.000000  -0.091371   0.000000
   80  HE 1XXXZ   0.000000   0.000000   0.073260   0.000000   0.000000
   81  HE 1YYYX   0.000000   0.000000   0.000000   0.091371   0.000000
   82  HE 1YYYZ   0.000000   0.073260   0.000000   0.000000   0.000000
   83  HE 1ZZZX   0.000000   0.000000  -0.097680   0.000000   0.000000
   84  HE 1ZZZY   0.000000  -0.097680   0.000000   0.000000   0.000000
   85  HE 1XXYY  -0.017945   0.000000   0.000000   0.000000  -0.106164
   86  HE 1XXZZ   0.071780   0.000000   0.000000   0.000000   0.000000
   87  HE 1YYZZ   0.071780   0.000000   0.000000   0.000000   0.000000
   88  HE 1XXYZ   0.000000   0.032763   0.000000   0.000000   0.000000
   89  HE 1YYXZ   0.000000   0.000000   0.032763   0.000000   0.000000
   90  HE 1ZZXY   0.000000   0.000000   0.000000   0.000000   0.000000
   91  HE 1XXXX   0.385017   0.000000   0.000000   0.000000  -0.759264
   92  HE 1YYYY   0.385017   0.000000   0.000000   0.000000  -0.759264
   93  HE 1ZZZZ   1.026712   0.000000   0.000000   0.000000   0.000000
   94  HE 1XXXY   0.000000   0.000000   0.000000   1.147899   0.000000
   95  HE 1XXXZ   0.000000   0.000000  -0.920366   0.000000   0.000000
   96  HE 1YYYX   0.000000   0.000000   0.000000  -1.147899   0.000000
   97  HE 1YYYZ   0.000000  -0.920366   0.000000   0.000000   0.000000
   98  HE 1ZZZX   0.000000   0.000000   1.227155   0.000000   0.000000
   99  HE 1ZZZY   0.000000   1.227155   0.000000   0.000000   0.000000
  100  HE 1XXYY   0.225443   0.000000   0.000000   0.000000   1.333738
  101  HE 1XXZZ  -0.901771   0.000000   0.000000   0.000000   0.000000
  102  HE 1YYZZ  -0.901771   0.000000   0.000000   0.000000   0.000000
  103  HE 1XXYZ   0.000000  -0.411600   0.000000   0.000000   0.000000
[...]
   74  HE 1 ZZY   0.189559   0.000000   0.000000   0.000000   0.000000
   75  HE 1 XYZ   0.000000   0.000000   0.000000   0.000000   0.000000
   76  HE 1XXXX   0.000000   0.000000   0.000000   0.000000   0.000000
   77  HE 1YYYY   0.000000   0.000000   0.000000   0.000000   0.000000
   78  HE 1ZZZZ   0.000000   0.000000   0.000000   0.000000   0.000000
   79  HE 1XXXY   0.000000   0.000000   0.000000   0.000000   0.000000
   80  HE 1XXXZ   0.000000   0.000000   0.000000   0.000000   0.000000
   81  HE 1YYYX   0.000000   0.000000   0.000000   0.000000   0.000000
   82  HE 1YYYZ   0.000000   0.000000   0.000000   0.000000   0.000000
   83  HE 1ZZZX   0.000000   0.000000   0.000000   0.000000   0.000000
   84  HE 1ZZZY   0.000000   0.000000   0.000000   0.000000   0.000000
   85  HE 1XXYY   0.000000   0.000000   0.000000   0.000000   0.000000
   86  HE 1XXZZ   0.000000   0.000000   0.000000   0.000000   0.000000
   87  HE 1YYZZ   0.000000   0.000000   0.000000   0.000000   0.000000
   88  HE 1XXYZ   0.000000   0.000000   0.000000   0.000000   0.000000
   89  HE 1YYXZ   0.000000   0.000000   0.000000   0.000000   0.000000
   90  HE 1ZZXY   0.000000   0.000000   0.000000   0.000000   0.000000
   91  HE 1XXXX   0.000000   0.000000   0.000000   0.000000   0.000000
   92  HE 1YYYY   0.000000   0.000000   0.000000   0.000000   0.000000
   93  HE 1ZZZZ   0.000000   0.000000   0.000000   0.000000   0.000000
   94  HE 1XXXY   0.000000   0.000000   0.000000   0.000000   0.000000
   95  HE 1XXXZ   0.000000   0.000000   0.000000   0.000000   0.000000
   96  HE 1YYYX   0.000000   0.000000   0.000000   0.000000   0.000000
   97  HE 1YYYZ   0.000000   0.000000   0.000000   0.000000   0.000000
   98  HE 1ZZZX   0.000000   0.000000   0.000000   0.000000   0.000000
   99  HE 1ZZZY   0.000000   0.000000   0.000000   0.000000   0.000000
  100  HE 1XXYY   0.000000   0.000000   0.000000   0.000000   0.000000
  101  HE 1XXZZ   0.000000   0.000000   0.000000   0.000000   0.000000
  102  HE 1YYZZ   0.000000   0.000000   0.000000   0.000000   0.000000
  103  HE 1XXYZ   0.000000   0.000000   0.000000   0.000000   0.000000
  104  HE 1YYXZ   0.000000   0.000000   0.000000   0.000000   0.000000
  105  HE 1ZZXY   0.000000   0.000000   0.000000   0.000000   0.000000

                     76         77         78         79         80
                   32.9647    34.6570    35.9208    35.9208    35.9208
                     A          A          A          A          A   
    1  HE 1  S    0.000000  30.000507   0.000000   0.000000   0.000000
    2  HE 1  S    0.000000  -7.185176   0.000000   0.000000   0.000000
    3  HE 1  S    0.000000  -6.856066   0.000000   0.000000   0.000000
    4  HE 1  S    0.000000 -14.448115   0.000000   0.000000   0.000000
    5  HE 1  S    0.000000  -5.783926   0.000000   0.000000   0.000000
    6  HE 1  S    0.000000  -0.350326   0.000000   0.000000   0.000000
    7  HE 1  X    0.000000   0.000000   0.000000  -1.661366   0.000000
    8  HE 1  Y    0.000000   0.000000  -1.661366   0.000000   0.000000
    9  HE 1  Z    0.000000   0.000000   0.000000   0.000000  -1.661366
   10  HE 1  X    0.000000   0.000000   0.000000   1.746792   0.000000
   11  HE 1  Y    0.000000   0.000000   1.746792   0.000000   0.000000
   12  HE 1  Z    0.000000   0.000000   0.000000   0.000000   1.746792
   13  HE 1  X    0.000000   0.000000   0.000000  -1.019973   0.000000
   14  HE 1  Y    0.000000   0.000000  -1.019973   0.000000   0.000000
   15  HE 1  Z    0.000000   0.000000   0.000000   0.000000  -1.019973
   16  HE 1  X    0.000000   0.000000   0.000000   0.473242   0.000000
   17  HE 1  Y    0.000000   0.000000   0.473242   0.000000   0.000000
   18  HE 1  Z    0.000000   0.000000   0.000000   0.000000   0.473242
   19  HE 1  X    0.000000   0.000000   0.000000  -0.151735   0.000000
   20  HE 1  Y    0.000000   0.000000  -0.151735   0.000000   0.000000
   21  HE 1  Z    0.000000   0.000000   0.000000   0.000000  -0.151735
   22  HE 1 XX   -0.675486   0.000000   0.000000   0.000000   0.000000
   23  HE 1 YY   -0.675486   0.000000   0.000000   0.000000   0.000000
   24  HE 1 ZZ    1.350972   0.000000   0.000000   0.000000   0.000000
   25  HE 1 XY    0.000000   0.000000   0.000000   0.000000   0.000000
   26  HE 1 XZ    0.000000   0.000000   0.000000   0.000000   0.000000
   27  HE 1 YZ    0.000000   0.000000   0.000000   0.000000   0.000000
   28  HE 1 XX    0.501179   0.000000   0.000000   0.000000   0.000000
   29  HE 1 YY    0.501179   0.000000   0.000000   0.000000   0.000000
   30  HE 1 ZZ   -1.002357   0.000000   0.000000   0.000000   0.000000
   31  HE 1 XY    0.000000   0.000000   0.000000   0.000000   0.000000
   32  HE 1 XZ    0.000000   0.000000   0.000000   0.000000   0.000000
   33  HE 1 YZ    0.000000   0.000000   0.000000   0.000000   0.000000
   34  HE 1 XX   -0.229653   0.000000   0.000000   0.000000   0.000000
   35  HE 1 YY   -0.229653   0.000000   0.000000   0.000000   0.000000
   36  HE 1 ZZ    0.459306   0.000000   0.000000   0.000000   0.000000
   37  HE 1 XY    0.000000   0.000000   0.000000   0.000000   0.000000
   38  HE 1 XZ    0.000000   0.000000   0.000000   0.000000   0.000000
   39  HE 1 YZ    0.000000   0.000000   0.000000   0.000000   0.000000
   40  HE 1 XX    0.075254   0.000000   0.000000   0.000000   0.000000
   41  HE 1 YY    0.075254   0.000000   0.000000   0.000000   0.000000
   42  HE 1 ZZ   -0.150509   0.000000   0.000000   0.000000   0.000000
   43  HE 1 XY    0.000000   0.000000   0.000000   0.000000   0.000000
   44  HE 1 XZ    0.000000   0.000000   0.000000   0.000000   0.000000
   45  HE 1 YZ    0.000000   0.000000   0.000000   0.000000   0.000000
   46  HE 1 XXX   0.000000   0.000000   0.000000   0.000000   0.000000
   47  HE 1 YYY   0.000000   0.000000   0.000000   0.000000   0.000000
   48  HE 1 ZZZ   0.000000   0.000000   0.000000   0.000000   0.000000
   49  HE 1 XXY   0.000000   0.000000   0.000000   0.000000   0.000000
   50  HE 1 XXZ   0.000000   0.000000   0.000000   0.000000   0.000000
   51  HE 1 YYX   0.000000   0.000000   0.000000   0.000000   0.000000
   52  HE 1 YYZ   0.000000   0.000000   0.000000   0.000000   0.000000
   53  HE 1 ZZX   0.000000   0.000000   0.000000   0.000000   0.000000
   54  HE 1 ZZY   0.000000   0.000000   0.000000   0.000000   0.000000
   55  HE 1 XYZ   0.000000   0.000000   0.000000   0.000000   0.000000
   56  HE 1 XXX   0.000000   0.000000   0.000000   0.000000   0.000000
   57  HE 1 YYY   0.000000   0.000000   0.000000   0.000000   0.000000
   58  HE 1 ZZZ   0.000000   0.000000   0.000000   0.000000   0.000000
   59  HE 1 XXY   0.000000   0.000000   0.000000   0.000000   0.000000
   60  HE 1 XXZ   0.000000   0.000000   0.000000   0.000000   0.000000
   61  HE 1 YYX   0.000000   0.000000   0.000000   0.000000   0.000000
   62  HE 1 YYZ   0.000000   0.000000   0.000000   0.000000   0.000000
   63  HE 1 ZZX   0.000000   0.000000   0.000000   0.000000   0.000000
   64  HE 1 ZZY   0.000000   0.000000   0.000000   0.000000   0.000000
   65  HE 1 XYZ   0.000000   0.000000   0.000000   0.000000   0.000000
   66  HE 1 XXX   0.000000   0.000000   0.000000   0.000000   0.000000
   67  HE 1 YYY   0.000000   0.000000   0.000000   0.000000   0.000000
   68  HE 1 ZZZ   0.000000   0.000000   0.000000   0.000000   0.000000
   69  HE 1 XXY   0.000000   0.000000   0.000000   0.000000   0.000000
   70  HE 1 XXZ   0.000000   0.000000   0.000000   0.000000   0.000000
   71  HE 1 YYX   0.000000   0.000000   0.000000   0.000000   0.000000
   72  HE 1 YYZ   0.000000   0.000000   0.000000   0.000000   0.000000
   73  HE 1 ZZX   0.000000   0.000000   0.000000   0.000000   0.000000
   74  HE 1 ZZY   0.000000   0.000000   0.000000   0.000000   0.000000
   75  HE 1 XYZ   0.000000   0.000000   0.000000   0.000000   0.000000
   76  HE 1XXXX   0.000000   0.000000   0.000000   0.000000   0.000000
   77  HE 1YYYY   0.000000   0.000000   0.000000   0.000000   0.000000
   78  HE 1ZZZZ   0.000000   0.000000   0.000000   0.000000   0.000000
   79  HE 1XXXY   0.000000   0.000000   0.000000   0.000000   0.000000
   80  HE 1XXXZ   0.000000   0.000000   0.000000   0.000000   0.000000
   81  HE 1YYYX   0.000000   0.000000   0.000000   0.000000   0.000000
   82  HE 1YYYZ   0.000000   0.000000   0.000000   0.000000   0.000000
   83  HE 1ZZZX   0.000000   0.000000   0.000000   0.000000   0.000000
   84  HE 1ZZZY   0.000000   0.000000   0.000000   0.000000   0.000000
   85  HE 1XXYY   0.000000   0.000000   0.000000   0.000000   0.000000
   86  HE 1XXZZ   0.000000   0.000000   0.000000   0.000000   0.000000
   87  HE 1YYZZ   0.000000   0.000000   0.000000   0.000000   0.000000
   88  HE 1XXYZ   0.000000   0.000000   0.000000   0.000000   0.000000
   89  HE 1YYXZ   0.000000   0.000000   0.000000   0.000000   0.000000
   90  HE 1ZZXY   0.000000   0.000000   0.000000   0.000000   0.000000
   91  HE 1XXXX   0.000000   0.000000   0.000000   0.000000   0.000000
   92  HE 1YYYY   0.000000   0.000000   0.000000   0.000000   0.000000
   93  HE 1ZZZZ   0.000000   0.000000   0.000000   0.000000   0.000000
   94  HE 1XXXY   0.000000   0.000000   0.000000   0.000000   0.000000
   95  HE 1XXXZ   0.000000   0.000000   0.000000   0.000000   0.000000
   96  HE 1YYYX   0.000000   0.000000   0.000000   0.000000   0.000000
   97  HE 1YYYZ   0.000000   0.000000   0.000000   0.000000   0.000000
   98  HE 1ZZZX   0.000000   0.000000   0.000000   0.000000   0.000000
   99  HE 1ZZZY   0.000000   0.000000   0.000000   0.000000   0.000000
  100  HE 1XXYY   0.000000   0.000000   0.000000   0.000000   0.000000
  101  HE 1XXZZ   0.000000   0.000000   0.000000   0.000000   0.000000
  102  HE 1YYZZ   0.000000   0.000000   0.000000   0.000000   0.000000
  103  HE 1XXYZ   0.000000   0.000000   0.000000   0.000000   0.000000
  104  HE 1YYXZ   0.000000   0.000000   0.000000   0.000000   0.000000
  105  HE 1ZZXY   0.000000   0.000000   0.000000   0.000000   0.000000
 ...... END OF ROHF CALCULATION ......
 STEP CPU TIME =     0.22 TOTAL CPU TIME =        0.5 (    0.0 MIN)
 TOTAL WALL CLOCK TIME=        1.2 SECONDS, CPU UTILIZATION IS  44.83%

     ----------------------------------------------------------------
     PROPERTY VALUES FOR THE ROHF  SELF-CONSISTENT FIELD WAVEFUNCTION
     ----------------------------------------------------------------

          -----------------
          ENERGY COMPONENTS
          -----------------

         WAVEFUNCTION NORMALIZATION =       1.0000000000

                ONE ELECTRON ENERGY =      -3.8874938794
                TWO ELECTRON ENERGY =       1.0258144009
           NUCLEAR REPULSION ENERGY =       0.0000000000
                                      ------------------
                       TOTAL ENERGY =      -2.8616794785

 ELECTRON-ELECTRON POTENTIAL ENERGY =       1.0258144009
  NUCLEUS-ELECTRON POTENTIAL ENERGY =      -6.7314690151
   NUCLEUS-NUCLEUS POTENTIAL ENERGY =       0.0000000000
                                      ------------------
             TOTAL POTENTIAL ENERGY =      -5.7056546141
               TOTAL KINETIC ENERGY =       2.8439751356
                 VIRIAL RATIO (V/T) =       2.0062252102

          ---------------------------------------
          MULLIKEN AND LOWDIN POPULATION ANALYSES
          ---------------------------------------

     ATOMIC MULLIKEN POPULATION IN EACH MOLECULAR ORBITAL

                      1

                  2.000000

    1             2.000000

          MULLIKEN SPHERICAL HARMONIC POPULATIONS
       ATOM           S       P       D      F      G      H      I    TOTAL
    1 HE            1.00    0.00    0.00   0.00   0.00   0.00   0.00    1.00

          MULLIKEN SPHERICAL HARMONIC POPULATIONS
       ATOM           S       P       D      F      G      H      I    TOTAL
    1 HE            1.00    0.00    0.00   0.00   0.00   0.00   0.00    1.00

     ATOMIC SPIN POPULATION (ALPHA MINUS BETA)
       ATOM         MULL.POP.                    LOW.POP.
    1 HE            0.000000                     0.000000

               ----- POPULATIONS IN EACH AO -----
                             MULLIKEN      LOWDIN
              1  HE 1  S      1.99985     0.25799
              2  HE 1  S      0.00004     0.21497
              3  HE 1  S     -0.00005     0.20734
              4  HE 1  S      0.00026     0.18570
              5  HE 1  S     -0.00023     0.10909
              6  HE 1  S      0.00012     0.03703
              7  HE 1  X      0.00000     0.00000
              8  HE 1  Y      0.00000     0.00000
              9  HE 1  Z      0.00000     0.00000
             10  HE 1  X      0.00000     0.00000
             11  HE 1  Y      0.00000     0.00000
             12  HE 1  Z      0.00000     0.00000
             13  HE 1  X      0.00000     0.00000
             14  HE 1  Y      0.00000     0.00000
             15  HE 1  Z      0.00000     0.00000
             16  HE 1  X      0.00000     0.00000
             17  HE 1  Y      0.00000     0.00000
             18  HE 1  Z      0.00000     0.00000
             19  HE 1  X      0.00000     0.00000
             20  HE 1  Y      0.00000     0.00000
             21  HE 1  Z      0.00000     0.00000
             22  HE 1 XX      0.00000     0.05560
             23  HE 1 YY      0.00000     0.05560
             24  HE 1 ZZ      0.00000     0.05560
             25  HE 1 XY      0.00000     0.00000
             26  HE 1 XZ      0.00000     0.00000
             27  HE 1 YZ      0.00000     0.00000
             28  HE 1 XX      0.00000     0.06113
             29  HE 1 YY      0.00000     0.06113
             30  HE 1 ZZ      0.00000     0.06113
             31  HE 1 XY      0.00000     0.00000
             32  HE 1 XZ      0.00000     0.00000
             33  HE 1 YZ      0.00000     0.00000
             34  HE 1 XX      0.00000     0.06190
             35  HE 1 YY      0.00000     0.06190
             36  HE 1 ZZ      0.00000     0.06190
             37  HE 1 XY      0.00000     0.00000
             38  HE 1 XZ      0.00000     0.00000
             39  HE 1 YZ      0.00000     0.00000
             40  HE 1 XX      0.00000     0.02361
             41  HE 1 YY      0.00000     0.02361
             42  HE 1 ZZ      0.00000     0.02361
             43  HE 1 XY      0.00000     0.00000
             44  HE 1 XZ      0.00000     0.00000
             45  HE 1 YZ      0.00000     0.00000
             46  HE 1 XXX     0.00000     0.00000
             47  HE 1 YYY     0.00000     0.00000
             48  HE 1 ZZZ     0.00000     0.00000
             49  HE 1 XXY     0.00000     0.00000
             50  HE 1 XXZ     0.00000     0.00000
             51  HE 1 YYX     0.00000     0.00000
             52  HE 1 YYZ     0.00000     0.00000
             53  HE 1 ZZX     0.00000     0.00000
             54  HE 1 ZZY     0.00000     0.00000
             55  HE 1 XYZ     0.00000     0.00000
             56  HE 1 XXX     0.00000     0.00000
             57  HE 1 YYY     0.00000     0.00000
             58  HE 1 ZZZ     0.00000     0.00000
             59  HE 1 XXY     0.00000     0.00000
             60  HE 1 XXZ     0.00000     0.00000
             61  HE 1 YYX     0.00000     0.00000
             62  HE 1 YYZ     0.00000     0.00000
             63  HE 1 ZZX     0.00000     0.00000
             64  HE 1 ZZY     0.00000     0.00000
             65  HE 1 XYZ     0.00000     0.00000
             66  HE 1 XXX     0.00000     0.00000
             67  HE 1 YYY     0.00000     0.00000
             68  HE 1 ZZZ     0.00000     0.00000
             69  HE 1 XXY     0.00000     0.00000
             70  HE 1 XXZ     0.00000     0.00000
             71  HE 1 YYX     0.00000     0.00000
             72  HE 1 YYZ     0.00000     0.00000
             73  HE 1 ZZX     0.00000     0.00000
             74  HE 1 ZZY     0.00000     0.00000
             75  HE 1 XYZ     0.00000     0.00000
             76  HE 1XXXX     0.00000     0.03644
             77  HE 1YYYY     0.00000     0.03644
             78  HE 1ZZZZ     0.00000     0.03644
             79  HE 1XXXY     0.00000     0.00000
             80  HE 1XXXZ     0.00000     0.00000
             81  HE 1YYYX     0.00000     0.00000
             82  HE 1YYYZ     0.00000     0.00000
             83  HE 1ZZZX     0.00000     0.00000
             84  HE 1ZZZY     0.00000     0.00000
             85  HE 1XXYY     0.00000     0.04018
             86  HE 1XXZZ     0.00000     0.04018
             87  HE 1YYZZ     0.00000     0.04018
             88  HE 1XXYZ     0.00000     0.00000
             89  HE 1YYXZ     0.00000     0.00000
             90  HE 1ZZXY     0.00000     0.00000
             91  HE 1XXXX     0.00000     0.02409
             92  HE 1YYYY     0.00000     0.02409
             93  HE 1ZZZZ     0.00000     0.02409
             94  HE 1XXXY     0.00000     0.00000
             95  HE 1XXXZ     0.00000     0.00000
             96  HE 1YYYX     0.00000     0.00000
             97  HE 1YYYZ     0.00000     0.00000
             98  HE 1ZZZX     0.00000     0.00000
             99  HE 1ZZZY     0.00000     0.00000
            100  HE 1XXYY     0.00000     0.02633
            101  HE 1XXZZ     0.00000     0.02633
            102  HE 1YYZZ     0.00000     0.02633
            103  HE 1XXYZ     0.00000     0.00000
            104  HE 1YYXZ     0.00000     0.00000
            105  HE 1ZZXY     0.00000     0.00000

          ----- MULLIKEN ATOMIC OVERLAP POPULATIONS -----
          (OFF-DIAGONAL ELEMENTS NEED TO BE MULTIPLIED BY 2)

             1

    1    2.0000000

          TOTAL MULLIKEN AND LOWDIN ATOMIC POPULATIONS
       ATOM         MULL.POP.    CHARGE          LOW.POP.     CHARGE
    1 HE            2.000000   -0.000000         2.000000   -0.000000

          MULLIKEN SPHERICAL HARMONIC POPULATIONS
       ATOM           S       P       D      F      G      H      I    TOTAL
    1 HE            2.00    0.00    0.00   0.00   0.00   0.00   0.00    2.00

          -------------------------------
          BOND ORDER AND VALENCE ANALYSIS     BOND ORDER THRESHOLD=0.050
          -------------------------------

                   BOND                       BOND                       BOND
  ATOM PAIR DIST  ORDER      ATOM PAIR DIST  ORDER      ATOM PAIR DIST  ORDER

                       TOTAL       BONDED        FREE
      ATOM            VALENCE     VALENCE     VALENCE
    1 HE               -0.000       0.000      -0.000

          -----------------------------------------
          ATOMIC SPIN DENSITY AT THE NUCLEUS (A.U.)
          -----------------------------------------
                            SPIN DENS    ALPHA DENS     BETA DENS
    1  HE           2.0     0.0000000       1.36886       1.36886

          ---------------------
          ELECTROSTATIC MOMENTS
          ---------------------

 POINT   1           X           Y           Z (BOHR)    CHARGE
                 0.000000    0.000000    0.000000       -0.00 (A.U.)
         DX          DY          DZ         /D/  (DEBYE)
     0.000000    0.000000    0.000000    0.000000
 ...... END OF PROPERTY EVALUATION ......
 STEP CPU TIME =     0.01 TOTAL CPU TIME =        0.5 (    0.0 MIN)
 TOTAL WALL CLOCK TIME=        1.2 SECONDS, CPU UTILIZATION IS  44.17%
                809237  WORDS OF DYNAMIC MEMORY USED
 EXECUTION OF GAMESS TERMINATED NORMALLY Thu Feb 21 11:36:33 2019
 DDI: 263624 bytes (0.3 MB / 0 MWords) used by master data server.

 ----------------------------------------
 CPU timing information for all processes
 ========================================
 0: 0.459 + 0.86 = 0.546
 ----------------------------------------
 ddikick.x: exited gracefully.
----- accounting info -----
Files used on the master node login4.stampede2.tacc.utexas.edu were:
-rw------- 1 aannabe G-801537     1294 Feb 21 11:36 /tmp/He.F05
-rw------- 1 aannabe G-801537 23942128 Feb 21 11:36 /tmp/He.F08
-rw------- 1 aannabe G-801537  8441760 Feb 21 11:36 /tmp/He.F10
Thu Feb 21 11:36:36 CST 2019
0.223u 0.179s 0:04.74 8.2%	0+0k 0+32io 0pf+0w
