
 Primary working directories    : /global/cscratch1/sd/aannabe
 Secondary working directories  : /global/cscratch1/sd/aannabe
 Wavefunction directory         : /global/homes/a/aannabe/wfu/
 Main file repository           : /global/cscratch1/sd/aannabe/

 SHA1      : 2873118e99aab1bc19f5b6fc1784693c06d15c95
 NAME      : 2015.1.8
 ARCHNAME  : linux/x86_64
 FC        : /opt/cray/pe/craype/2.5.5/bin/ftn
 BLASLIB   : -Wl,-_start-group /opt/intel/compilers_and_libraries_2016.3.210/linux/mkl/lib/intel64/libmkl_intel_ilp64.a /opt/intel/compilers_and_libraries_2016.3.210/linux/mkl/lib/intel64/libmkl_intel_thread.a /opt/intel/compilers_and_libraries_2016.3.210/linux/mkl/lib/intel64/libmkl_core.a -Wl,-_end-group
 id        : lbl

 Nodes     nprocs
 nid00443     1

 Using customized tuning parameters: mindgm=8; mindgv=16; mindgc=4; mindgr=1; noblas=0; minvec=7
 default implementation of scratch files=df  

 ***,F
 memory,512,m
 gthresh,twoint=1.e-12
 
 gprint,basis,orbitals
 gexpec,ekin,pot
 
 angstrom
 geometry={
 1                                                                               ! Number of atoms
 F 0.0 0.0 0.0
 }
 
 basis={
 Including file /global/homes/a/aannabe/docs/totals/pps/F.pp
 Including file /global/homes/a/aannabe/docs/totals/basis/aug-cc-pVnZ/F_dz.basis
 }
 
 {hf
 wf,7,3,1
 occ,1,1,1,0,1,0,0,0
                                                                                 !open,1.3
 closed,1,1,0,0,1,0,0,0
                                                                                 !sym,
 }
 scf(i)=energy
 
 _CC_NORM_MAX=2.0
 {uccsd(t)
 maxit,100
 core
 }
 posthf(i)=energy
 
 table,scf,posthf,ekin,pot
 save,2.csv
 
 

 Variables initialized (889), CPU time= 0.00 sec
 Commands  initialized (702), CPU time= 0.02 sec, 572 directives.
 Default parameters read. Elapsed time= 0.15 sec

 Checking input...
 Passed
1


                                         ***  PROGRAM SYSTEM MOLPRO  ***
                                       Copyright, TTI GmbH Stuttgart, 2015
                                    Version 2015.1 linked Sep  7 2016 23:09:38


 **********************************************************************************************************************************
 LABEL *   F                                                                             
  64 bit serial version                                                                  DATE: 11-Jun-18          TIME: 14:21:06  
 **********************************************************************************************************************************

 SHA1:             2873118e99aab1bc19f5b6fc1784693c06d15c95
 **********************************************************************************************************************************

 THRESHOLDS:

 ZERO    =  1.00D-12  ONEINT  =  1.00D-12  TWOINT  =  1.00D-12  PREFAC  =  1.00D-14  LOCALI  =  1.00D-09  EORDER  =  1.00D-04
 ENERGY  =  0.00D+00  ETEST   =  0.00D+00  EDENS   =  0.00D+00  THRDEDEF=  1.00D-06  GRADIENT=  1.00D-02  STEP    =  1.00D-03
 ORBITAL =  1.00D-05  CIVEC   =  1.00D-05  COEFF   =  1.00D-04  PRINTCI =  5.00D-02  PUNCHCI =  9.90D+01  OPTGRAD =  3.00D-04
 OPTENERG=  1.00D-06  OPTSTEP =  3.00D-04  THRGRAD =  1.00D-10  COMPRESS=  1.00D-11  VARMIN  =  1.00D-07  VARMAX  =  1.00D-03
 THRDOUB =  0.00D+00  THRDIV  =  1.00D-05  THRRED  =  1.00D-07  THRPSP  =  1.00D+00  THRDC   =  1.00D-10  THRCS   =  1.00D-10
 THRNRM  =  1.00D-08  THREQ   =  0.00D+00  THRDE   =  1.00D+00  THRREF  =  1.00D-05  SPARFAC =  1.00D+00  THRDLP  =  1.00D-07
 THRDIA  =  1.00D-10  THRDLS  =  1.00D-07  THRGPS  =  0.00D+00  THRKEX  =  0.00D+00  THRDIS  =  2.00D-01  THRVAR  =  1.00D-10
 THRLOC  =  1.00D-06  THRGAP  =  1.00D-06  THRLOCT = -1.00D+00  THRGAPT = -1.00D+00  THRORB  =  1.00D-06  THRMLTP =  0.00D+00
 THRCPQCI=  1.00D-10  KEXTA   =  0.00D+00  THRCOARS=  0.00D+00  SYMTOL  =  1.00D-06  GRADTOL =  1.00D-06  THROVL  =  1.00D-08
 THRORTH =  1.00D-08  GRID    =  1.00D-06  GRIDMAX =  1.00D-03  DTMAX   =  0.00D+00  THROCCDE=  1.00D-01  THROCCDE=  1.00D-01



 ZUNIT=ANG
 

Geometry recognized as XYZ


 Variable memory set to  512000000 words,  buffer space   230000 words

 SETTING BASIS          =    USERDEF


 Recomputing integrals since basis changed


 Using spherical harmonics



 PROGRAM * SEWARD (Integral evaluation for generally contracted gaussian basis sets)     Author: Roland Lindh, 1990

 Geometry written to block  1 of record 700

 Orientation using atomic masses  
 Molecule type: Atom
 Symmetry elements: X,Y,Z
 Rotational constants:       0.0000000      0.0000000      0.0000000 GHz  (calculated with average atomic masses)

 Point group  D2h 



 ATOMIC COORDINATES

 NR  ATOM    CHARGE       X              Y              Z

   1  F       7.00    0.000000000    0.000000000    0.000000000


          F   CORE POTENTIAL

          p POTENTIAL

 POWERS             1              3              2
 EXPONENTIALS   11.39544       10.49202       10.28681    
 COEFFICIENTS   7.000000       79.76808      -49.49901    

          s - p POTENTIAL

 POWERS             2
 EXPONENTIALS   11.39035    
 COEFFICIENTS   51.39347    


 BASIS DATA

   Nr Sym  Nuc  Type         Exponents   Contraction coefficients

    1.1 Ag    1  1s          71.173909    -0.000057
                             33.399038     0.000363
                             15.672819     0.009533
                              7.354620    -0.127065
                              3.451226     0.011527
                              1.619521     0.290584
                              0.759976     0.448567
                              0.356626     0.312306
                              0.167350     0.065625
    2.1 Ag    1  1s           0.344569     1.000000
    3.1 Ag    1  1s           0.137828     1.000000
    4.1 Ag    1  3d0          1.722479     1.000000
    5.1 Ag    1  3d2+         1.722479     1.000000
    6.1 Ag    1  3d0          0.688992     1.000000
    7.1 Ag    1  3d2+         0.688992     1.000000
    1.2 B3u   1  2px         27.863051     0.003758
                             13.662475     0.043495
                              6.699310     0.093050
                              3.284965     0.177293
                              1.610762     0.261759
                              0.789827     0.289687
                              0.387287     0.243341
                              0.189904     0.125496
                              0.093118     0.026843
    2.2 B3u   1  2px          0.364831     1.000000
    3.2 B3u   1  2px          0.145932     1.000000
    1.3 B2u   1  2py         27.863051     0.003758
                             13.662475     0.043495
                              6.699310     0.093050
                              3.284965     0.177293
                              1.610762     0.261759
                              0.789827     0.289687
                              0.387287     0.243341
                              0.189904     0.125496
                              0.093118     0.026843
    2.3 B2u   1  2py          0.364831     1.000000
    3.3 B2u   1  2py          0.145932     1.000000
    1.4 B1g   1  3d2-         1.722479     1.000000
    2.4 B1g   1  3d2-         0.688992     1.000000
    1.5 B1u   1  2pz         27.863051     0.003758
                             13.662475     0.043495
                              6.699310     0.093050
                              3.284965     0.177293
                              1.610762     0.261759
                              0.789827     0.289687
                              0.387287     0.243341
                              0.189904     0.125496
                              0.093118     0.026843
    2.5 B1u   1  2pz          0.364831     1.000000
    3.5 B1u   1  2pz          0.145932     1.000000
    1.6 B2g   1  3d1+         1.722479     1.000000
    2.6 B2g   1  3d1+         0.688992     1.000000
    1.7 B3g   1  3d1-         1.722479     1.000000
    2.7 B3g   1  3d1-         0.688992     1.000000

 NUCLEAR CHARGE:                    7
 NUMBER OF PRIMITIVE AOS:          56
 NUMBER OF SYMMETRY AOS:           54
 NUMBER OF CONTRACTIONS:           22   (   7Ag  +   3B3u +   3B2u +   2B1g +   3B1u +   2B2g +   2B3g +   0Au  )
 NUMBER OF CORE ORBITALS:           0   (   0Ag  +   0B3u +   0B2u +   0B1g +   0B1u +   0B2g +   0B3g +   0Au  )
 NUMBER OF VALENCE ORBITALS:        4   (   1Ag  +   1B3u +   1B2u +   0B1g +   1B1u +   0B2g +   0B3g +   0Au  )


 NUCLEAR REPULSION ENERGY    0.00000000

 EXTRA SYMMETRY OF AOS IN SYMMETRY 1:   1 1 1 2 3 2 3

 Eigenvalues of metric

         1 0.271E-01 0.299E+00 0.299E+00 0.301E+00 0.170E+01 0.170E+01 0.267E+01
         2 0.114E+00 0.458E+00 0.243E+01
         3 0.114E+00 0.458E+00 0.243E+01
         4 0.299E+00 0.170E+01
         5 0.114E+00 0.458E+00 0.243E+01
         6 0.299E+00 0.170E+01
         7 0.299E+00 0.170E+01


 Contracted 2-electron integrals neglected if value below      1.0D-12
 AO integral compression algorithm  1   Integral accuracy      1.0D-12

     0.262 MB (compressed) written to integral file (100.0%)


 NUMBER OF SORTED TWO-ELECTRON INTEGRALS:       5272.     BUFFER LENGTH:  32768
 NUMBER OF SEGMENTS:   1  SEGMENT LENGTH:       5272      RECORD LENGTH: 524288

 Memory used in sort:       0.56 MW

 SORT1 READ       12220. AND WROTE        4734. INTEGRALS IN      1 RECORDS. CPU TIME:     0.00 SEC, REAL TIME:     0.01 SEC
 SORT2 READ        4734. AND WROTE        5272. INTEGRALS IN      1 RECORDS. CPU TIME:     0.01 SEC, REAL TIME:     0.01 SEC

 FILE SIZES:   FILE 1:    19.3 MBYTE,  FILE 4:     4.2 MBYTE,   TOTAL:     23.6 MBYTE

 OPERATOR DM      FOR CENTER  0  COORDINATES:    0.000000    0.000000    0.000000
 OPERATOR EKIN    FOR CENTER  0  COORDINATES:    0.000000    0.000000    0.000000
 OPERATOR POT     FOR CENTER  0  COORDINATES:    0.000000    0.000000    0.000000


 **********************************************************************************************************************************
 DATASETS  * FILE   NREC   LENGTH (MB)   RECORD NAMES
              1      20       19.12       500      610      700      900      950      970     1000      129      960     1100   
                                          VAR    BASINP    GEOM    SYMINP    ZMAT    AOBASIS   BASIS     P2S    ABASIS      S 
                                         1400     1410     1420     1200     1210     1080     1600     1650     1300     1700   
                                         EKIN       V       ECP      H0       H01     AOSYM     SMH    MOLCAS    ERIS     OPER   

 PROGRAMS   *        TOTAL       INT
 CPU TIMES  *         0.28      0.16
 REAL TIME  *         1.34 SEC
 DISK USED  *        23.83 MB      
 **********************************************************************************************************************************


 PROGRAM * RHF-SCF (OPEN SHELL)       Authors: W. Meyer, H.-J. Werner


 NUMBER OF ELECTRONS:       4+    3-    SPACE SYMMETRY=3    SPIN SYMMETRY: Doublet 
 CONVERGENCE THRESHOLDS:    1.00E-05 (Density)    1.00E-07 (Energy)
 MAX. NUMBER OF ITERATIONS:       60
 INTERPOLATION TYPE:            DIIS
 INTERPOLATION STEPS:              2 (START)      1 (STEP)
 LEVEL SHIFTS:                 -0.60 (CLOSED) -0.30 (OPEN) 

 Number of closed-shell orbitals:    3 (   1   1   0   0   1   0   0 )
 Number of open-shell orbitals:      1 (   0   0   1   0   0   0   0 )



   Atom=F  basis=ECP2MWB_GUESS     lmin=0  lmax=1

 Orbital guess generated from atomic densities. Full valence occupancy:    1   1   1   0   1   0   0   0


 Molecular orbital dump at record        2100.2

 ITERATION    DDIFF          GRAD             ENERGY        2-EL.EN.            DIPOLE MOMENTS         DIIS   ORB.
    1      0.000D+00      0.000D+00       -23.90256028     33.800412    0.00000    0.00000    0.00000    0    start
    2      0.000D+00      0.172D-01       -23.90666162     34.262444    0.00000    0.00000    0.00000    1    diag,B
    3      0.185D-01      0.427D-02       -23.90694523     34.243714    0.00000    0.00000    0.00000    2    diag,B
    4      0.463D-02      0.179D-02       -23.90704899     34.251612    0.00000    0.00000    0.00000    3    diag,B
    5      0.347D-02      0.222D-03       -23.90705057     34.250737    0.00000    0.00000    0.00000    4    diag,B
    6      0.401D-03      0.460D-04       -23.90705063     34.249876    0.00000    0.00000    0.00000    5    diag,B
    7      0.843D-04      0.697D-05       -23.90705063     34.249995    0.00000    0.00000    0.00000    6    fixocc
    8      0.887D-05      0.153D-05       -23.90705063     34.249963    0.00000    0.00000    0.00000    0    orth

 Final alpha occupancy:   1   1   1   0   1   0   0
 Final beta  occupancy:   1   1   0   0   1   0   0

 !RHF STATE 1.3 Energy                -23.907050633103
 Nuclear energy                         0.00000000
 One-electron energy                  -41.03203203
 Two-electron energy                   17.12498140
 Virial quotient                       -1.28953541
 !RHF STATE 1.3 Dipole moment           0.00000000     0.00000000     0.00000000
 Dipole moment /Debye                   0.00000000     0.00000000     0.00000000
 

 !RHF expec          <1.3|EKIN|1.3>    18.539274250387
 
 !RHF expec           <1.3|POT|1.3>    -8.841855360636

 ELECTRON ORBITALS
 =================


   Orb  Occ    Energy  Couls-En    Coefficients

                                   1 1s      1 1s      1 1s      1 3d0     1 3d2+    1 3d0     1 3d2+ 

   1.1   2    -1.5591   -7.9873  1.000005 -0.000059  0.000065  0.000098  0.000169  0.001442  0.002497

                                   1 2px     1 2px     1 2px  

   1.2   2    -0.7067   -6.3236  0.999914  0.000133 -0.000041

                                   1 2py     1 2py     1 2py  

   1.3   +    -0.8370   -6.5452  1.035931 -0.020286 -0.037264

                                   1 2pz     1 2pz     1 2pz  

   1.5   2    -0.7067   -6.3236  0.999914  0.000133 -0.000041

 HOMO      1.2    -0.706716 =     -19.2307eV
 LUMO      2.1     0.294942 =       8.0258eV
 LUMO-HOMO         1.001658 =      27.2565eV


 **********************************************************************************************************************************
 DATASETS  * FILE   NREC   LENGTH (MB)   RECORD NAMES
              1      20       19.12       500      610      700      900      950      970     1000      129      960     1100   
                                          VAR    BASINP    GEOM    SYMINP    ZMAT    AOBASIS   BASIS     P2S    ABASIS      S 
                                         1400     1410     1420     1200     1210     1080     1600     1650     1300     1700   
                                         EKIN       V       ECP      H0       H01     AOSYM     SMH    MOLCAS    ERIS     OPER   

              2       4        2.75       700     1000      520     2100   
                                         GEOM     BASIS   MCVARS     RHF  

 PROGRAMS   *        TOTAL        HF       INT
 CPU TIMES  *         0.32      0.04      0.16
 REAL TIME  *         1.54 SEC
 DISK USED  *        23.83 MB      
 **********************************************************************************************************************************
 SETTING SCF(I)         =       -23.90705063  AU                              
 SETTING _CC_NORM_MAX   =         2.00000000                                  


 PROGRAM * CCSD (Unrestricted open-shell coupled cluster)     Authors: C. Hampel, H.-J. Werner, 1991, M. Deegan, P.J. Knowles, 1992


 Convergence thresholds:  THRVAR = 1.00D-08  THRDEN = 1.00D-06

 CCSD(T)     terms to be evaluated (factor= 1.000)


 Number of closed-shell orbitals:   3 (   1   1   0   0   1   0   0 )
 Number of active  orbitals:        1 (   0   0   1   0   0   0   0 )
 Number of external orbitals:      18 (   6   2   2   2   2   2   2 )

 Memory could be reduced to 0.30 Mwords without degradation in triples

 Number of N-1 electron functions:               7
 Number of N-2 electron functions:              21
 Number of singly external CSFs:                23
 Number of doubly external CSFs:               789
 Total number of CSFs:                         812

 Molecular orbitals read from record     2100.2  Type=RHF/CANONICAL (state 1.3)

 Integral transformation finished. Total CPU:   0.00 sec, npass=  1  Memory used:   0.07 MW

 Starting RMP2 calculation

 ITER.      SQ.NORM     CORR.ENERGY   TOTAL ENERGY   ENERGY CHANGE        DEN1      VAR(S)    VAR(P)  DIIS     TIME
   1      1.02999205    -0.15816294   -24.06521357    -0.15816294    -0.00022966  0.21D-05  0.53D-04  1  1     0.00
   2      1.03011965    -0.15840377   -24.06545441    -0.00024083    -0.00000018  0.68D-08  0.49D-07  2  2     0.00
   3      1.03012187    -0.15840586   -24.06545650    -0.00000209    -0.00000000  0.19D-10  0.10D-09  3  3     0.00
   4      1.03012189    -0.15840586   -24.06545650    -0.00000000    -0.00000000  0.34D-13  0.98D-12  4  4     0.00

 Norm of t1 vector:      0.02964491      S-energy:    -0.00320755      T1 diagnostic:  0.00011527
 Norm of t2 vector:      0.17100606      P-energy:    -0.15519832
                                         Alpha-Beta:  -0.11738870
                                         Alpha-Alpha: -0.02555148
                                         Beta-Beta:   -0.01225814

 Spin contamination <S**2-Sz**2-Sz>     0.00398703
  Reference energy                    -23.907050633103
  RHF-RMP2 correlation energy          -0.158405864268
 !RHF-RMP2 energy                     -24.065456497370

 Starting UCCSD calculation

 ITER.      SQ.NORM     CORR.ENERGY   TOTAL ENERGY   ENERGY CHANGE        DEN1      VAR(S)    VAR(P)  DIIS     TIME
   1      1.03421211    -0.16773184   -24.07478247    -0.16773184    -0.00312601  0.54D-03  0.46D-03  1  1     0.01
   2      1.03681666    -0.17107784   -24.07812847    -0.00334601    -0.00017440  0.16D-04  0.44D-04  2  2     0.01
   3      1.03771495    -0.17162728   -24.07867791    -0.00054944    -0.00001878  0.35D-05  0.54D-05  3  3     0.01
   4      1.03805157    -0.17177975   -24.07883038    -0.00015247    -0.00000243  0.22D-06  0.83D-06  4  4     0.01
   5      1.03811645    -0.17179249   -24.07884312    -0.00001274    -0.00000027  0.31D-07  0.86D-07  5  5     0.01
   6      1.03812152    -0.17179507   -24.07884570    -0.00000258    -0.00000002  0.65D-08  0.24D-08  6  6     0.02
   7      1.03811872    -0.17179399   -24.07884463     0.00000108    -0.00000000  0.44D-09  0.18D-09  6  1     0.02
   8      1.03811833    -0.17179411   -24.07884474    -0.00000012    -0.00000000  0.24D-10  0.14D-10  6  2     0.02

 Norm of t1 vector:      0.05025741      S-energy:    -0.00351869      T1 diagnostic:  0.00911262
                                                                       D1 diagnostic:  0.01503600
 Norm of t2 vector:      0.18865980      P-energy:    -0.16827542
                                         Alpha-Beta:  -0.13166176
                                         Alpha-Alpha: -0.02485935
                                         Beta-Beta:   -0.01175431

 Spin contamination <S**2-Sz**2-Sz>     0.00097312

 Memory could be reduced to 0.30 Mwords without degradation in triples
 

 RESULTS
 =======

  Reference energy                    -23.907050633103
  UCCSD singles energy                 -0.003518691515
  UCCSD pair energy                    -0.168275418657
  UCCSD correlation energy             -0.171794110172
  Triples (T) contribution             -0.002457723411
  Total correlation energy             -0.174251833583
 
  RHF-UCCSD energy                    -24.078844743275
  RHF-UCCSD[T] energy                 -24.081573188628
  RHF-UCCSD-T energy                  -24.081175516742
 !RHF-UCCSD(T) energy                 -24.081302466686

 Program statistics:

 Available memory in ccsd:               511999732
 Min. memory needed in ccsd:                  4816
 Max. memory used in ccsd:                    5519
 Max. memory used in cckext:                 38154 ( 8 integral passes)
 Max. memory used in cckint:                 68372 ( 1 integral passes)



 **********************************************************************************************************************************
 DATASETS  * FILE   NREC   LENGTH (MB)   RECORD NAMES
              1      20       19.12       500      610      700      900      950      970     1000      129      960     1100   
                                          VAR    BASINP    GEOM    SYMINP    ZMAT    AOBASIS   BASIS     P2S    ABASIS      S 
                                         1400     1410     1420     1200     1210     1080     1600     1650     1300     1700   
                                         EKIN       V       ECP      H0       H01     AOSYM     SMH    MOLCAS    ERIS     OPER   

              2       4        2.75       700     1000      520     2100   
                                         GEOM     BASIS   MCVARS     RHF  

 PROGRAMS   *        TOTAL  UCCSD(T)        HF       INT
 CPU TIMES  *         0.38      0.05      0.04      0.16
 REAL TIME  *         1.92 SEC
 DISK USED  *        23.83 MB      
 **********************************************************************************************************************************
 SETTING POSTHF(I)      =       -24.08130247  AU                              
                                                                                                                                                                                                                                                                

        SCF            POSTHF        EKIN          POT
    -23.90705063   -24.08130247   18.53927425   -8.84185536
                                                  

 UCCSD(T)/USERDEF energy=    -24.081302466686

        UCCSD(T)        HF-SCF  
    -24.08130247    -23.90705063
 **********************************************************************************************************************************
 Variable memory released
