
 Primary working directories    : /global/cscratch1/sd/aannabe
 Secondary working directories  : /global/cscratch1/sd/aannabe
 Wavefunction directory         : /global/homes/a/aannabe/wfu/
 Main file repository           : /global/cscratch1/sd/aannabe/

 SHA1      : 19cd028119e0e09f93f0674bd8af7968d9b3eff6
 NAME      : 2015.1.36
 ARCHNAME  : linux/x86_64
 FC        : /opt/cray/pe/craype/2.5.14/bin/ftn
 BLASLIB   : -L/opt/intel/compilers_and_libraries_2018.1.163/linux/mkl/lib/intel64 -Wl,-_start-group -lmkl_intel_ilp64 -lmkl_intel_thread -lmkl_core -Wl,-_end-group -liomp5
 id        : lbl

 Nodes     nprocs
 nid00475     1

 Using customized tuning parameters: mindgm=7; mindgv=16; mindgc=1; mindgr=1; noblas=0; minvec=7
 default implementation of scratch files=df  

 ***,Ge
 memory,8,g
 gthresh,twoint=1.e-12
 
 gprint,basis,orbitals
 gexpec,ekin,pot
 
 angstrom
 geometry={
 1                                                                               ! Number of atoms
 Ge 0.0 0.0 0.0
 }
 
 basis={
 
 Including file /global/homes/a/aannabe/repos/pseudopotentiallibrary/recipes/Ge/ccECP/Ge.ccECP.molpro
 
                                   !include,/global/homes/a/aannabe/repos/pseudopotentiallibrary/recipes/Ge/ccECP/Ge.cc-pVQZ.molpro
                                  !include,/global/homes/a/aannabe/repos/pseudopotentiallibrary/recipes/Ge/ccECP/Ge.cc-pCVQZ.molpro
 Including file /global/homes/a/aannabe/repos/pseudopotentiallibrary/recipes/Ge/ccECP/Ge.aug-cc-pVQZ.molpro
 
 
 }
 
 {hf
 wf,4,6,2
 occ,1,1,0,0,1,0,0,0
                                                                                 !open,1.2,1.5
 closed,1,0,0,0,0,0,0,0
                                                                                 !sym,
 }
 scf(i)=energy
 
 _CC_NORM_MAX=2.0
 {uccsd(t)
 maxit,100
 core
 }
 posthf(i)=energy
 
 table,scf,posthf,ekin,pot
 save,4.csv,new
 
 

 Variables initialized (889), CPU time= 0.00 sec
 Commands  initialized (702), CPU time= 0.01 sec, 572 directives.
 Default parameters read. Elapsed time= 0.18 sec

 Checking input...
 Passed
1


                                         ***  PROGRAM SYSTEM MOLPRO  ***
                                       Copyright, TTI GmbH Stuttgart, 2015
                                    Version 2015.1 linked Dec 29 2018 15:55:43


 **********************************************************************************************************************************
 LABEL *   Ge                                                                            
  64 bit serial version                                                                  DATE: 25-Jun-19          TIME: 12:04:15  
 **********************************************************************************************************************************

 SHA1:             19cd028119e0e09f93f0674bd8af7968d9b3eff6
 **********************************************************************************************************************************

 THRESHOLDS:

 ZERO    =  1.00D-12  ONEINT  =  1.00D-12  TWOINT  =  1.00D-12  PREFAC  =  1.00D-14  LOCALI  =  1.00D-09  EORDER  =  1.00D-04
 ENERGY  =  0.00D+00  ETEST   =  0.00D+00  EDENS   =  0.00D+00  THRDEDEF=  1.00D-06  GRADIENT=  1.00D-02  STEP    =  1.00D-03
 ORBITAL =  1.00D-05  CIVEC   =  1.00D-05  COEFF   =  1.00D-04  PRINTCI =  5.00D-02  PUNCHCI =  9.90D+01  OPTGRAD =  3.00D-04
 OPTENERG=  1.00D-06  OPTSTEP =  3.00D-04  THRGRAD =  1.00D-10  COMPRESS=  1.00D-11  VARMIN  =  1.00D-07  VARMAX  =  1.00D-03
 THRDOUB =  0.00D+00  THRDIV  =  1.00D-05  THRRED  =  1.00D-07  THRPSP  =  1.00D+00  THRDC   =  1.00D-10  THRCS   =  1.00D-10
 THRNRM  =  1.00D-08  THREQ   =  0.00D+00  THRDE   =  1.00D+00  THRREF  =  1.00D-05  SPARFAC =  1.00D+00  THRDLP  =  1.00D-07
 THRDIA  =  1.00D-10  THRDLS  =  1.00D-07  THRGPS  =  0.00D+00  THRKEX  =  0.00D+00  THRDIS  =  2.00D-01  THRVAR  =  1.00D-10
 THRLOC  =  1.00D-06  THRGAP  =  1.00D-06  THRLOCT = -1.00D+00  THRGAPT = -1.00D+00  THRORB  =  1.00D-06  THRMLTP =  0.00D+00
 THRCPQCI=  1.00D-10  KEXTA   =  0.00D+00  THRCOARS=  0.00D+00  SYMTOL  =  1.00D-06  GRADTOL =  1.00D-06  THROVL  =  1.00D-08
 THRORTH =  1.00D-08  GRID    =  1.00D-06  GRIDMAX =  1.00D-03  DTMAX   =  0.00D+00  THROCCDE=  1.00D-01  THROCCDE=  1.00D-01



 ZUNIT=ANG
 

Geometry recognized as XYZ


 Variable memory set to 8000000000 words,  buffer space   230000 words

 SETTING BASIS          =    USERDEF


 Recomputing integrals since basis changed


 Using spherical harmonics



 PROGRAM * SEWARD (Integral evaluation for generally contracted gaussian basis sets)     Author: Roland Lindh, 1990

 Geometry written to block  1 of record 700

 Orientation using atomic masses  
 Molecule type: Atom
 Symmetry elements: X,Y,Z
 Rotational constants:       0.0000000      0.0000000      0.0000000 GHz  (calculated with average atomic masses)

 Point group  D2h 



 ATOMIC COORDINATES

 NR  ATOM    CHARGE       X              Y              Z

   1  GE      4.00    0.000000000    0.000000000    0.000000000


          GE  CORE POTENTIAL

          f POTENTIAL

 POWERS             1              3              2              2
 EXPONENTIALS   1.478963       3.188906       1.927439       1.545539    
 COEFFICIENTS   4.000000       5.915851      -12.03371       1.283543    

          s - f POTENTIAL

 POWERS             2              2
 EXPONENTIALS   2.894474       1.550340    
 COEFFICIENTS   43.26543      -1.909340    

          p - f POTENTIAL

 POWERS             2              2
 EXPONENTIALS   2.986529       1.283381    
 COEFFICIENTS   35.26301      0.9634399    

          d - f POTENTIAL

 POWERS             2              2
 EXPONENTIALS   1.043001      0.5545627    
 COEFFICIENTS   2.339019      0.5413807    


 BASIS DATA

   Nr Sym  Nuc  Type         Exponents   Contraction coefficients

    1.1 Ag    1  1s          46.470485    -0.000229
                             20.357328     0.001574
                              8.917936    -0.011345
                              3.906681     0.098972
                              1.711400    -0.331545
                              0.749713    -0.094809
                              0.328427     0.438933
                              0.143874     0.596777
                              0.063027     0.186251
    2.1 Ag    1  1s           0.472336     1.000000
    3.1 Ag    1  1s           0.198545     1.000000
    4.1 Ag    1  1s           0.083458     1.000000
    5.1 Ag    1  1s           0.033383     1.000000
    6.1 Ag    1  3d0          0.505266     1.000000
    7.1 Ag    1  3d2+         0.505266     1.000000
    8.1 Ag    1  3d0          0.230692     1.000000
    9.1 Ag    1  3d2+         0.230692     1.000000
   10.1 Ag    1  3d0          0.105328     1.000000
   11.1 Ag    1  3d2+         0.105328     1.000000
   12.1 Ag    1  3d0          0.042131     1.000000
   13.1 Ag    1  3d2+         0.042131     1.000000
   14.1 Ag    1  5g0          0.480349     1.000000
   15.1 Ag    1  5g4+         0.480349     1.000000
   16.1 Ag    1  5g2+         0.480349     1.000000
   17.1 Ag    1  5g0          0.192140     1.000000
   18.1 Ag    1  5g4+         0.192140     1.000000
   19.1 Ag    1  5g2+         0.192140     1.000000
    1.2 B3u   1  2px         22.641155     0.000052
                             10.174686    -0.000675
                              4.572392     0.011276
                              2.054783    -0.074628
                              0.923397    -0.012070
                              0.414964     0.216919
                              0.186480     0.438735
                              0.083802     0.385126
                              0.037660     0.108074
    2.2 B3u   1  2px          0.435049     1.000000
    3.2 B3u   1  2px          0.164783     1.000000
    4.2 B3u   1  2px          0.062415     1.000000
    5.2 B3u   1  2px          0.024966     1.000000
    6.2 B3u   1  4f1+         0.554284     1.000000
    7.2 B3u   1  4f3+         0.554284     1.000000
    8.2 B3u   1  4f1+         0.221254     1.000000
    9.2 B3u   1  4f3+         0.221254     1.000000
   10.2 B3u   1  4f1+         0.088502     1.000000
   11.2 B3u   1  4f3+         0.088502     1.000000
    1.3 B2u   1  2py         22.641155     0.000052
                             10.174686    -0.000675
                              4.572392     0.011276
                              2.054783    -0.074628
                              0.923397    -0.012070
                              0.414964     0.216919
                              0.186480     0.438735
                              0.083802     0.385126
                              0.037660     0.108074
    2.3 B2u   1  2py          0.435049     1.000000
    3.3 B2u   1  2py          0.164783     1.000000
    4.3 B2u   1  2py          0.062415     1.000000
    5.3 B2u   1  2py          0.024966     1.000000
    6.3 B2u   1  4f1-         0.554284     1.000000
    7.3 B2u   1  4f3-         0.554284     1.000000
    8.3 B2u   1  4f1-         0.221254     1.000000
    9.3 B2u   1  4f3-         0.221254     1.000000
   10.3 B2u   1  4f1-         0.088502     1.000000
   11.3 B2u   1  4f3-         0.088502     1.000000
    1.4 B1g   1  3d2-         0.505266     1.000000
    2.4 B1g   1  3d2-         0.230692     1.000000
    3.4 B1g   1  3d2-         0.105328     1.000000
    4.4 B1g   1  3d2-         0.042131     1.000000
    5.4 B1g   1  5g2-         0.480349     1.000000
    6.4 B1g   1  5g4-         0.480349     1.000000
    7.4 B1g   1  5g2-         0.192140     1.000000
    8.4 B1g   1  5g4-         0.192140     1.000000
    1.5 B1u   1  2pz         22.641155     0.000052
                             10.174686    -0.000675
                              4.572392     0.011276
                              2.054783    -0.074628
                              0.923397    -0.012070
                              0.414964     0.216919
                              0.186480     0.438735
                              0.083802     0.385126
                              0.037660     0.108074
    2.5 B1u   1  2pz          0.435049     1.000000
    3.5 B1u   1  2pz          0.164783     1.000000
    4.5 B1u   1  2pz          0.062415     1.000000
    5.5 B1u   1  2pz          0.024966     1.000000
    6.5 B1u   1  4f0          0.554284     1.000000
    7.5 B1u   1  4f2+         0.554284     1.000000
    8.5 B1u   1  4f0          0.221254     1.000000
    9.5 B1u   1  4f2+         0.221254     1.000000
   10.5 B1u   1  4f0          0.088502     1.000000
   11.5 B1u   1  4f2+         0.088502     1.000000
    1.6 B2g   1  3d1+         0.505266     1.000000
    2.6 B2g   1  3d1+         0.230692     1.000000
    3.6 B2g   1  3d1+         0.105328     1.000000
    4.6 B2g   1  3d1+         0.042131     1.000000
    5.6 B2g   1  5g1+         0.480349     1.000000
    6.6 B2g   1  5g3+         0.480349     1.000000
    7.6 B2g   1  5g1+         0.192140     1.000000
    8.6 B2g   1  5g3+         0.192140     1.000000
    1.7 B3g   1  3d1-         0.505266     1.000000
    2.7 B3g   1  3d1-         0.230692     1.000000
    3.7 B3g   1  3d1-         0.105328     1.000000
    4.7 B3g   1  3d1-         0.042131     1.000000
    5.7 B3g   1  5g1-         0.480349     1.000000
    6.7 B3g   1  5g3-         0.480349     1.000000
    7.7 B3g   1  5g1-         0.192140     1.000000
    8.7 B3g   1  5g3-         0.192140     1.000000
    1.8 Au    1  4f2-         0.554284     1.000000
    2.8 Au    1  4f2-         0.221254     1.000000
    3.8 Au    1  4f2-         0.088502     1.000000

 NUCLEAR CHARGE:                    4
 NUMBER OF PRIMITIVE AOS:         136
 NUMBER OF SYMMETRY AOS:          111
 NUMBER OF CONTRACTIONS:           79   (  19Ag  +  11B3u +  11B2u +   8B1g +  11B1u +   8B2g +   8B3g +   3Au  )
 NUMBER OF CORE ORBITALS:           0   (   0Ag  +   0B3u +   0B2u +   0B1g +   0B1u +   0B2g +   0B3g +   0Au  )
 NUMBER OF VALENCE ORBITALS:        4   (   1Ag  +   1B3u +   1B2u +   0B1g +   1B1u +   0B2g +   0B3g +   0Au  )


 NUCLEAR REPULSION ENERGY    0.00000000

 EXTRA SYMMETRY OF AOS IN SYMMETRY 1:   1 1 1 1 1 2 3 2 3 2   3 2 3 4 5 6 4 5 6
 EXTRA SYMMETRY OF AOS IN SYMMETRY 2:   1 1 1 1 1 2 3 2 3 2   3
 EXTRA SYMMETRY OF AOS IN SYMMETRY 3:   1 1 1 1 1 2 3 2 3 2   3
 EXTRA SYMMETRY OF AOS IN SYMMETRY 4:   1 1 1 1 2 3 2 3
 EXTRA SYMMETRY OF AOS IN SYMMETRY 5:   1 1 1 1 1 2 3 2 3 2   3
 EXTRA SYMMETRY OF AOS IN SYMMETRY 6:   1 1 1 1 2 3 2 3
 EXTRA SYMMETRY OF AOS IN SYMMETRY 7:   1 1 1 1 2 3 2 3

 Eigenvalues of metric

         1 0.459E-02 0.242E-01 0.500E-01 0.500E-01 0.189E+00 0.308E+00 0.308E+00 0.428E+00
         2 0.233E-02 0.523E-01 0.194E+00 0.194E+00 0.292E+00 0.813E+00 0.813E+00 0.108E+01
         3 0.233E-02 0.523E-01 0.194E+00 0.194E+00 0.292E+00 0.813E+00 0.813E+00 0.108E+01
         4 0.500E-01 0.308E+00 0.428E+00 0.428E+00 0.107E+01 0.157E+01 0.157E+01 0.257E+01
         5 0.233E-02 0.523E-01 0.194E+00 0.194E+00 0.292E+00 0.813E+00 0.813E+00 0.108E+01
         6 0.500E-01 0.308E+00 0.428E+00 0.428E+00 0.107E+01 0.157E+01 0.157E+01 0.257E+01
         7 0.500E-01 0.308E+00 0.428E+00 0.428E+00 0.107E+01 0.157E+01 0.157E+01 0.257E+01
         8 0.194E+00 0.813E+00 0.199E+01


 Contracted 2-electron integrals neglected if value below      1.0D-12
 AO integral compression algorithm  1   Integral accuracy      1.0D-12

     6.291 MB (compressed) written to integral file ( 65.7%)


 NUMBER OF SORTED TWO-ELECTRON INTEGRALS:     665704.     BUFFER LENGTH:  32768
 NUMBER OF SEGMENTS:   1  SEGMENT LENGTH:     665704      RECORD LENGTH: 524288

 Memory used in sort:       1.22 MW

 SORT1 READ     1222209. AND WROTE      500866. INTEGRALS IN      2 RECORDS. CPU TIME:     0.02 SEC, REAL TIME:     0.04 SEC
 SORT2 READ      500866. AND WROTE      665704. INTEGRALS IN     24 RECORDS. CPU TIME:     0.05 SEC, REAL TIME:     0.12 SEC

 FILE SIZES:   FILE 1:    26.3 MBYTE,  FILE 4:     8.4 MBYTE,   TOTAL:     34.7 MBYTE

 OPERATOR DM      FOR CENTER  0  COORDINATES:    0.000000    0.000000    0.000000
 OPERATOR EKIN    FOR CENTER  0  COORDINATES:    0.000000    0.000000    0.000000
 OPERATOR POT     FOR CENTER  0  COORDINATES:    0.000000    0.000000    0.000000


 **********************************************************************************************************************************
 DATASETS  * FILE   NREC   LENGTH (MB)   RECORD NAMES
              1      20       23.48       500      610      700      900      950      970     1000      129      960     1100   
                                          VAR    BASINP    GEOM    SYMINP    ZMAT    AOBASIS   BASIS     P2S    ABASIS      S 
                                         1400     1410     1420     1200     1210     1080     1600     1650     1300     1700   
                                         EKIN       V       ECP      H0       H01     AOSYM     SMH    MOLCAS    ERIS     OPER   

 PROGRAMS   *        TOTAL       INT
 CPU TIMES  *         2.16      2.02
 REAL TIME  *        16.81 SEC
 DISK USED  *        35.03 MB      
 **********************************************************************************************************************************


 PROGRAM * RHF-SCF (OPEN SHELL)       Authors: W. Meyer, H.-J. Werner


 NUMBER OF ELECTRONS:       3+    1-    SPACE SYMMETRY=6    SPIN SYMMETRY: Triplet 
 CONVERGENCE THRESHOLDS:    1.00E-05 (Density)    1.00E-07 (Energy)
 MAX. NUMBER OF ITERATIONS:       60
 INTERPOLATION TYPE:            DIIS
 INTERPOLATION STEPS:              2 (START)      1 (STEP)
 LEVEL SHIFTS:                 -0.60 (CLOSED) -0.30 (OPEN) 

 Number of closed-shell orbitals:    1 (   1   0   0   0   0   0   0   0 )
 Number of open-shell orbitals:      2 (   0   1   0   0   1   0   0   0 )



   Atom=GE basis=ECP28MDF_GUESS    lmin=0  lmax=1

 Orbital guess generated from atomic densities. Full valence occupancy:    1   1   1   0   1   0   0   0


 Molecular orbital dump at record        2100.2

 ITERATION    DDIFF          GRAD             ENERGY        2-EL.EN.            DIPOLE MOMENTS         DIIS   ORB.
    1      0.000D+00      0.000D+00        -3.64826939      3.676491    0.00000    0.00000    0.00000    0    start
    2      0.000D+00      0.676D-02        -3.65910773      3.800578    0.00000    0.00000    0.00000    1    diag,B
    3      0.972D-02      0.330D-02        -3.66370128      3.889283    0.00000    0.00000    0.00000    2    diag,B
    4      0.674D-02      0.157D-02        -3.66483247      3.929041    0.00000    0.00000    0.00000    3    diag,B
    5      0.452D-02      0.483D-03        -3.66489929      3.932826    0.00000    0.00000    0.00000    4    diag,B
    6      0.154D-02      0.121D-03        -3.66490198      3.932832    0.00000    0.00000    0.00000    5    diag,B
    7      0.473D-03      0.214D-04        -3.66490205      3.932857    0.00000    0.00000    0.00000    6    fixocc
    8      0.707D-04      0.268D-05        -3.66490205      3.932816    0.00000    0.00000    0.00000    7    diag,B
    9      0.938D-05      0.654D-06        -3.66490205      3.932816    0.00000    0.00000    0.00000    0    orth

 Final alpha occupancy:   1   1   0   0   1   0   0   0
 Final beta  occupancy:   1   0   0   0   0   0   0   0

 !RHF STATE 1.6 Energy                 -3.664902050476
 Nuclear energy                         0.00000000
 One-electron energy                   -5.63130998
 Two-electron energy                    1.96640793
 Virial quotient                       -2.66851563
 !RHF STATE 1.6 Dipole moment           0.00000000     0.00000000     0.00000000
 Dipole moment /Debye                   0.00000000     0.00000000     0.00000000
 

 !RHF expec          <1.6|EKIN|1.6>     1.373386016070
 
 !RHF expec           <1.6|POT|1.6>    -1.867827722958

 ELECTRON ORBITALS
 =================


   Orb  Occ    Energy  Couls-En    Coefficients

                                   1 1s      1 1s      1 1s      1 1s      1 1s      1 3d0     1 3d2+    1 3d0     1 3d2+    1 3d0  
                                   1 3d2+    1 3d0     1 3d2+    1 5g0     1 5g4+    1 5g2+    1 5g0     1 5g4+    1 5g2+ 

   1.1   2    -0.5631   -2.1735  0.999615 -0.000643  0.001964 -0.001901  0.001021 -0.000335 -0.000580 -0.000243 -0.000421  0.003768
                                 0.006527  0.000710  0.001230  0.000002  0.000003  0.000002 -0.000034 -0.000066 -0.000050

                                   1 2px     1 2px     1 2px     1 2px     1 2px     1 4f1+    1 4f3+    1 4f1+    1 4f3+    1 4f1+ 
                                   1 4f3+ 

   1.2   +    -0.2861   -1.4914  0.999812 -0.000036  0.000212 -0.000226  0.000380 -0.000011 -0.000044 -0.000020 -0.000078  0.000035
                                 0.000137

                                   1 2pz     1 2pz     1 2pz     1 2pz     1 2pz     1 4f0     1 4f2+    1 4f0     1 4f2+    1 4f0  
                                   1 4f2+ 

   1.5   +    -0.2861   -1.4914  0.999812 -0.000036  0.000212 -0.000226  0.000380 -0.000028 -0.000036 -0.000049 -0.000064  0.000087
                                 0.000112

 HOMO      1.2    -0.286110 =      -7.7854eV
 LUMO      1.3    -0.015624 =      -0.4251eV
 LUMO-HOMO         0.270486 =       7.3603eV


 **********************************************************************************************************************************
 DATASETS  * FILE   NREC   LENGTH (MB)   RECORD NAMES
              1      20       23.48       500      610      700      900      950      970     1000      129      960     1100   
                                          VAR    BASINP    GEOM    SYMINP    ZMAT    AOBASIS   BASIS     P2S    ABASIS      S 
                                         1400     1410     1420     1200     1210     1080     1600     1650     1300     1700   
                                         EKIN       V       ECP      H0       H01     AOSYM     SMH    MOLCAS    ERIS     OPER   

              2       4        2.78       700     1000      520     2100   
                                         GEOM     BASIS   MCVARS     RHF  

 PROGRAMS   *        TOTAL        HF       INT
 CPU TIMES  *         2.22      0.05      2.02
 REAL TIME  *        17.09 SEC
 DISK USED  *        35.03 MB      
 **********************************************************************************************************************************
 SETTING SCF(I)         =        -3.66490205  AU                              
 SETTING _CC_NORM_MAX   =         2.00000000                                  


 PROGRAM * CCSD (Unrestricted open-shell coupled cluster)     Authors: C. Hampel, H.-J. Werner, 1991, M. Deegan, P.J. Knowles, 1992


 Convergence thresholds:  THRVAR = 1.00D-08  THRDEN = 1.00D-06

 CCSD(T)     terms to be evaluated (factor= 1.000)


 Number of closed-shell orbitals:   1 (   1   0   0   0   0   0   0   0 )
 Number of active  orbitals:        2 (   0   1   0   0   1   0   0   0 )
 Number of external orbitals:      76 (  18  10  11   8  10   8   8   3 )

 Memory could be reduced to 0.88 Mwords without degradation in triples

 Number of N-1 electron functions:               4
 Number of N-2 electron functions:               6
 Number of singly external CSFs:                58
 Number of doubly external CSFs:              3638
 Total number of CSFs:                        3696

 Molecular orbitals read from record     2100.2  Type=RHF/CANONICAL (state 1.6)

 Integral transformation finished. Total CPU:   0.02 sec, npass=  1  Memory used:   0.15 MW

 Starting RMP2 calculation

 ITER.      SQ.NORM     CORR.ENERGY   TOTAL ENERGY   ENERGY CHANGE        DEN1      VAR(S)    VAR(P)  DIIS     TIME
   1      1.03652061    -0.06166946    -3.72657151    -0.06166946    -0.00054737  0.24D-04  0.34D-03  1  1     0.02
   2      1.03749003    -0.06228923    -3.72719128    -0.00061977    -0.00000153  0.40D-07  0.97D-06  2  2     0.02
   3      1.03751971    -0.06230031    -3.72720236    -0.00001108    -0.00000001  0.15D-09  0.39D-08  3  3     0.02
   4      1.03752016    -0.06230043    -3.72720248    -0.00000012    -0.00000000  0.61D-12  0.14D-10  4  4     0.03

 Norm of t1 vector:      0.04594558      S-energy:    -0.00222734      T1 diagnostic:  0.00094154
 Norm of t2 vector:      0.18817322      P-energy:    -0.06007309
                                         Alpha-Beta:  -0.05005830
                                         Alpha-Alpha: -0.01001480
                                         Beta-Beta:    0.00000000

 Spin contamination <S**2-Sz**2-Sz>     0.00642449
  Reference energy                     -3.664902050476
  RHF-RMP2 correlation energy          -0.062300428549
 !RHF-RMP2 energy                      -3.727202479024

 Starting UCCSD calculation

 ITER.      SQ.NORM     CORR.ENERGY   TOTAL ENERGY   ENERGY CHANGE        DEN1      VAR(S)    VAR(P)  DIIS     TIME
   1      1.04836046    -0.06895605    -3.73385810    -0.06895605    -0.00411666  0.24D-03  0.24D-02  1  1     0.04
   2      1.05992626    -0.07436472    -3.73926677    -0.00540867    -0.00020078  0.16D-04  0.10D-03  2  2     0.06
   3      1.06217564    -0.07496703    -3.73986908    -0.00060231    -0.00001716  0.14D-05  0.10D-04  3  3     0.06
   4      1.06297080    -0.07517087    -3.74007292    -0.00020384    -0.00000092  0.53D-07  0.53D-06  4  4     0.07
   5      1.06300545    -0.07516572    -3.74006777     0.00000515    -0.00000004  0.40D-08  0.26D-07  5  5     0.08
   6      1.06302366    -0.07517204    -3.74007409    -0.00000632    -0.00000000  0.51D-09  0.17D-08  6  6     0.10
   7      1.06302039    -0.07517044    -3.74007249     0.00000161    -0.00000000  0.67D-10  0.16D-09  6  1     0.11
   8      1.06302051    -0.07517037    -3.74007242     0.00000007    -0.00000000  0.37D-11  0.61D-11  6  3     0.12

 Norm of t1 vector:      0.05954904      S-energy:    -0.00256595      T1 diagnostic:  0.00956483
                                                                       D1 diagnostic:  0.01642313
 Norm of t2 vector:      0.24387379      P-energy:    -0.07260442
                                         Alpha-Beta:  -0.06151979
                                         Alpha-Alpha: -0.01108463
                                         Beta-Beta:    0.00000000

 Doubles amplitudes (print threshold =  0.500E-01):

         I         J         SYM. A    SYM. B    A         B      T(IJ, AB) [Alpha-Beta]

         1         1         3         3         1         1     -0.07659970

 Spin contamination <S**2-Sz**2-Sz>     0.00378681

 Memory could be reduced to 0.88 Mwords without degradation in triples
 

 RESULTS
 =======

  Reference energy                     -3.664902050476
  UCCSD singles energy                 -0.002565949734
  UCCSD pair energy                    -0.072604422304
  UCCSD correlation energy             -0.075170372038
  Triples (T) contribution             -0.002526173421
  Total correlation energy             -0.077696545458
 
  RHF-UCCSD energy                     -3.740072422514
  RHF-UCCSD[T] energy                  -3.742557947908
  RHF-UCCSD-T energy                   -3.742604398734
 !RHF-UCCSD(T) energy                  -3.742598595934

 Program statistics:

 Available memory in ccsd:              7999999798
 Min. memory needed in ccsd:                 36252
 Max. memory used in ccsd:                   38597
 Max. memory used in cckext:                 61345 ( 8 integral passes)
 Max. memory used in cckint:                145089 ( 1 integral passes)



 **********************************************************************************************************************************
 DATASETS  * FILE   NREC   LENGTH (MB)   RECORD NAMES
              1      20       23.48       500      610      700      900      950      970     1000      129      960     1100   
                                          VAR    BASINP    GEOM    SYMINP    ZMAT    AOBASIS   BASIS     P2S    ABASIS      S 
                                         1400     1410     1420     1200     1210     1080     1600     1650     1300     1700   
                                         EKIN       V       ECP      H0       H01     AOSYM     SMH    MOLCAS    ERIS     OPER   

              2       4        2.78       700     1000      520     2100   
                                         GEOM     BASIS   MCVARS     RHF  

 PROGRAMS   *        TOTAL  UCCSD(T)        HF       INT
 CPU TIMES  *         2.41      0.18      0.05      2.02
 REAL TIME  *        18.11 SEC
 DISK USED  *        35.03 MB      
 **********************************************************************************************************************************
 SETTING POSTHF(I)      =        -3.74259860  AU                              
                                                                                                                                                                                                                                                                

       SCF           POSTHF       EKIN          POT
    -3.66490205   -3.74259860   1.37338602   -1.86782772
                                                  

 UCCSD(T)/USERDEF energy=     -3.742598595934

        UCCSD(T)        HF-SCF  
     -3.74259860     -3.66490205
 **********************************************************************************************************************************
 Molpro calculation terminated
 Variable memory released
