
 Primary working directories    : /global/cscratch1/sd/aannabe
 Secondary working directories  : /global/cscratch1/sd/aannabe
 Wavefunction directory         : /global/homes/a/aannabe/wfu/
 Main file repository           : /global/cscratch1/sd/aannabe/

 SHA1      : 19cd028119e0e09f93f0674bd8af7968d9b3eff6
 NAME      : 2015.1.36
 ARCHNAME  : linux/x86_64
 FC        : /opt/cray/pe/craype/2.5.14/bin/ftn
 BLASLIB   : -L/opt/intel/compilers_and_libraries_2018.1.163/linux/mkl/lib/intel64 -Wl,-_start-group -lmkl_intel_ilp64 -lmkl_intel_thread -lmkl_core -Wl,-_end-group -liomp5
 id        : lbl

 Nodes     nprocs
 nid00465     1

 Using customized tuning parameters: mindgm=7; mindgv=16; mindgc=1; mindgr=1; noblas=0; minvec=7
 default implementation of scratch files=df  

 ***,Se
 memory,8,g
 gthresh,twoint=1.e-12
 
 gprint,basis,orbitals
 gexpec,ekin,pot
 
 angstrom
 geometry={
 1                                                                               ! Number of atoms
 Se 0.0 0.0 0.0
 }
 
 basis={
 
 Including file /global/homes/a/aannabe/repos/pseudopotentiallibrary/recipes/Se/ccECP/Se.ccECP.molpro
 
                                   !include,/global/homes/a/aannabe/repos/pseudopotentiallibrary/recipes/Se/ccECP/Se.cc-pVQZ.molpro
                                  !include,/global/homes/a/aannabe/repos/pseudopotentiallibrary/recipes/Se/ccECP/Se.cc-pCVQZ.molpro
 Including file /global/homes/a/aannabe/repos/pseudopotentiallibrary/recipes/Se/ccECP/Se.aug-cc-pVQZ.molpro
 
 
 }
 
 {hf
 wf,6,7,2
 occ,1,1,1,0,1,0,0,0
                                                                                 !open,1.3
 closed,1,1,0,0,0,0,0,0
                                                                                 !sym,
 }
 scf(i)=energy
 
 _CC_NORM_MAX=2.0
 {rccsd(t)
 maxit,100
 core
 }
 posthf(i)=energy
 
 table,scf,posthf,ekin,pot
 save,4.csv,new
 
 

 Variables initialized (889), CPU time= 0.01 sec
 Commands  initialized (702), CPU time= 0.01 sec, 572 directives.
 Default parameters read. Elapsed time= 0.10 sec

 Checking input...
 Passed
1


                                         ***  PROGRAM SYSTEM MOLPRO  ***
                                       Copyright, TTI GmbH Stuttgart, 2015
                                    Version 2015.1 linked Dec 29 2018 15:55:43


 **********************************************************************************************************************************
 LABEL *   Se                                                                            
  64 bit serial version                                                                  DATE: 25-Jun-19          TIME: 12:03:45  
 **********************************************************************************************************************************

 SHA1:             19cd028119e0e09f93f0674bd8af7968d9b3eff6
 **********************************************************************************************************************************

 THRESHOLDS:

 ZERO    =  1.00D-12  ONEINT  =  1.00D-12  TWOINT  =  1.00D-12  PREFAC  =  1.00D-14  LOCALI  =  1.00D-09  EORDER  =  1.00D-04
 ENERGY  =  0.00D+00  ETEST   =  0.00D+00  EDENS   =  0.00D+00  THRDEDEF=  1.00D-06  GRADIENT=  1.00D-02  STEP    =  1.00D-03
 ORBITAL =  1.00D-05  CIVEC   =  1.00D-05  COEFF   =  1.00D-04  PRINTCI =  5.00D-02  PUNCHCI =  9.90D+01  OPTGRAD =  3.00D-04
 OPTENERG=  1.00D-06  OPTSTEP =  3.00D-04  THRGRAD =  1.00D-10  COMPRESS=  1.00D-11  VARMIN  =  1.00D-07  VARMAX  =  1.00D-03
 THRDOUB =  0.00D+00  THRDIV  =  1.00D-05  THRRED  =  1.00D-07  THRPSP  =  1.00D+00  THRDC   =  1.00D-10  THRCS   =  1.00D-10
 THRNRM  =  1.00D-08  THREQ   =  0.00D+00  THRDE   =  1.00D+00  THRREF  =  1.00D-05  SPARFAC =  1.00D+00  THRDLP  =  1.00D-07
 THRDIA  =  1.00D-10  THRDLS  =  1.00D-07  THRGPS  =  0.00D+00  THRKEX  =  0.00D+00  THRDIS  =  2.00D-01  THRVAR  =  1.00D-10
 THRLOC  =  1.00D-06  THRGAP  =  1.00D-06  THRLOCT = -1.00D+00  THRGAPT = -1.00D+00  THRORB  =  1.00D-06  THRMLTP =  0.00D+00
 THRCPQCI=  1.00D-10  KEXTA   =  0.00D+00  THRCOARS=  0.00D+00  SYMTOL  =  1.00D-06  GRADTOL =  1.00D-06  THROVL  =  1.00D-08
 THRORTH =  1.00D-08  GRID    =  1.00D-06  GRIDMAX =  1.00D-03  DTMAX   =  0.00D+00  THROCCDE=  1.00D-01  THROCCDE=  1.00D-01



 ZUNIT=ANG
 

Geometry recognized as XYZ


 Variable memory set to 8000000000 words,  buffer space   230000 words

 SETTING BASIS          =    USERDEF


 Recomputing integrals since basis changed


 Using spherical harmonics



 PROGRAM * SEWARD (Integral evaluation for generally contracted gaussian basis sets)     Author: Roland Lindh, 1990

 Geometry written to block  1 of record 700

 Orientation using atomic masses  
 Molecule type: Atom
 Symmetry elements: X,Y,Z
 Rotational constants:       0.0000000      0.0000000      0.0000000 GHz  (calculated with average atomic masses)

 Point group  D2h 



 ATOMIC COORDINATES

 NR  ATOM    CHARGE       X              Y              Z

   1  SE      6.00    0.000000000    0.000000000    0.000000000


          SE  CORE POTENTIAL

          f POTENTIAL

 POWERS             1              3              2              2
 EXPONENTIALS   2.977052       7.016674       3.960663       5.028263    
 COEFFICIENTS   6.000000       17.86231      -20.00913       10.00574    

          s - f POTENTIAL

 POWERS             2              2
 EXPONENTIALS   4.175363       2.144911    
 COEFFICIENTS   71.37928      0.4261986    

          p - f POTENTIAL

 POWERS             2              2
 EXPONENTIALS   4.287722       2.095383    
 COEFFICIENTS   50.94829       5.542881    

          d - f POTENTIAL

 POWERS             2              2
 EXPONENTIALS   1.394037       1.696599    
 COEFFICIENTS   6.204697      0.5339570    


 BASIS DATA

   Nr Sym  Nuc  Type         Exponents   Contraction coefficients

    1.1 Ag    1  1s          53.235856    -0.000173
                             24.069480     0.001518
                             10.882513    -0.015384
                              4.920301     0.136816
                              2.224611    -0.394610
                              1.005811    -0.139559
                              0.454757     0.507331
                              0.205609     0.586875
                              0.092962     0.177170
    2.1 Ag    1  1s           0.635024     1.000000
    3.1 Ag    1  1s           0.280784     1.000000
    4.1 Ag    1  1s           0.124152     1.000000
    5.1 Ag    1  1s           0.049661     1.000000
    6.1 Ag    1  3d0          1.309673     1.000000
    7.1 Ag    1  3d2+         1.309673     1.000000
    8.1 Ag    1  3d0          0.519002     1.000000
    9.1 Ag    1  3d2+         0.519002     1.000000
   10.1 Ag    1  3d0          0.205672     1.000000
   11.1 Ag    1  3d2+         0.205672     1.000000
   12.1 Ag    1  3d0          0.082269     1.000000
   13.1 Ag    1  3d2+         0.082269     1.000000
   14.1 Ag    1  5g0          0.591247     1.000000
   15.1 Ag    1  5g4+         0.591247     1.000000
   16.1 Ag    1  5g2+         0.591247     1.000000
   17.1 Ag    1  5g0          0.236499     1.000000
   18.1 Ag    1  5g4+         0.236499     1.000000
   19.1 Ag    1  5g2+         0.236499     1.000000
    1.2 B3u   1  2px         25.056177    -0.000153
                             11.673683     0.000332
                              5.438773     0.014175
                              2.533927    -0.103893
                              1.180557    -0.008134
                              0.550022     0.284904
                              0.256256     0.427437
                              0.119390     0.334066
                              0.055624     0.112340
    2.2 B3u   1  2px          0.623700     1.000000
    3.2 B3u   1  2px          0.231660     1.000000
    4.2 B3u   1  2px          0.086045     1.000000
    5.2 B3u   1  2px          0.034418     1.000000
    6.2 B3u   1  4f1+         0.720580     1.000000
    7.2 B3u   1  4f3+         0.720580     1.000000
    8.2 B3u   1  4f1+         0.288011     1.000000
    9.2 B3u   1  4f3+         0.288011     1.000000
   10.2 B3u   1  4f1+         0.115204     1.000000
   11.2 B3u   1  4f3+         0.115204     1.000000
    1.3 B2u   1  2py         25.056177    -0.000153
                             11.673683     0.000332
                              5.438773     0.014175
                              2.533927    -0.103893
                              1.180557    -0.008134
                              0.550022     0.284904
                              0.256256     0.427437
                              0.119390     0.334066
                              0.055624     0.112340
    2.3 B2u   1  2py          0.623700     1.000000
    3.3 B2u   1  2py          0.231660     1.000000
    4.3 B2u   1  2py          0.086045     1.000000
    5.3 B2u   1  2py          0.034418     1.000000
    6.3 B2u   1  4f1-         0.720580     1.000000
    7.3 B2u   1  4f3-         0.720580     1.000000
    8.3 B2u   1  4f1-         0.288011     1.000000
    9.3 B2u   1  4f3-         0.288011     1.000000
   10.3 B2u   1  4f1-         0.115204     1.000000
   11.3 B2u   1  4f3-         0.115204     1.000000
    1.4 B1g   1  3d2-         1.309673     1.000000
    2.4 B1g   1  3d2-         0.519002     1.000000
    3.4 B1g   1  3d2-         0.205672     1.000000
    4.4 B1g   1  3d2-         0.082269     1.000000
    5.4 B1g   1  5g2-         0.591247     1.000000
    6.4 B1g   1  5g4-         0.591247     1.000000
    7.4 B1g   1  5g2-         0.236499     1.000000
    8.4 B1g   1  5g4-         0.236499     1.000000
    1.5 B1u   1  2pz         25.056177    -0.000153
                             11.673683     0.000332
                              5.438773     0.014175
                              2.533927    -0.103893
                              1.180557    -0.008134
                              0.550022     0.284904
                              0.256256     0.427437
                              0.119390     0.334066
                              0.055624     0.112340
    2.5 B1u   1  2pz          0.623700     1.000000
    3.5 B1u   1  2pz          0.231660     1.000000
    4.5 B1u   1  2pz          0.086045     1.000000
    5.5 B1u   1  2pz          0.034418     1.000000
    6.5 B1u   1  4f0          0.720580     1.000000
    7.5 B1u   1  4f2+         0.720580     1.000000
    8.5 B1u   1  4f0          0.288011     1.000000
    9.5 B1u   1  4f2+         0.288011     1.000000
   10.5 B1u   1  4f0          0.115204     1.000000
   11.5 B1u   1  4f2+         0.115204     1.000000
    1.6 B2g   1  3d1+         1.309673     1.000000
    2.6 B2g   1  3d1+         0.519002     1.000000
    3.6 B2g   1  3d1+         0.205672     1.000000
    4.6 B2g   1  3d1+         0.082269     1.000000
    5.6 B2g   1  5g1+         0.591247     1.000000
    6.6 B2g   1  5g3+         0.591247     1.000000
    7.6 B2g   1  5g1+         0.236499     1.000000
    8.6 B2g   1  5g3+         0.236499     1.000000
    1.7 B3g   1  3d1-         1.309673     1.000000
    2.7 B3g   1  3d1-         0.519002     1.000000
    3.7 B3g   1  3d1-         0.205672     1.000000
    4.7 B3g   1  3d1-         0.082269     1.000000
    5.7 B3g   1  5g1-         0.591247     1.000000
    6.7 B3g   1  5g3-         0.591247     1.000000
    7.7 B3g   1  5g1-         0.236499     1.000000
    8.7 B3g   1  5g3-         0.236499     1.000000
    1.8 Au    1  4f2-         0.720580     1.000000
    2.8 Au    1  4f2-         0.288011     1.000000
    3.8 Au    1  4f2-         0.115204     1.000000

 NUCLEAR CHARGE:                    6
 NUMBER OF PRIMITIVE AOS:         136
 NUMBER OF SYMMETRY AOS:          111
 NUMBER OF CONTRACTIONS:           79   (  19Ag  +  11B3u +  11B2u +   8B1g +  11B1u +   8B2g +   8B3g +   3Au  )
 NUMBER OF CORE ORBITALS:           0   (   0Ag  +   0B3u +   0B2u +   0B1g +   0B1u +   0B2g +   0B3g +   0Au  )
 NUMBER OF VALENCE ORBITALS:        4   (   1Ag  +   1B3u +   1B2u +   0B1g +   1B1u +   0B2g +   0B3g +   0Au  )


 NUCLEAR REPULSION ENERGY    0.00000000

 EXTRA SYMMETRY OF AOS IN SYMMETRY 1:   1 1 1 1 1 2 3 2 3 2   3 2 3 4 5 6 4 5 6
 EXTRA SYMMETRY OF AOS IN SYMMETRY 2:   1 1 1 1 1 2 3 2 3 2   3
 EXTRA SYMMETRY OF AOS IN SYMMETRY 3:   1 1 1 1 1 2 3 2 3 2   3
 EXTRA SYMMETRY OF AOS IN SYMMETRY 4:   1 1 1 1 2 3 2 3
 EXTRA SYMMETRY OF AOS IN SYMMETRY 5:   1 1 1 1 1 2 3 2 3 2   3
 EXTRA SYMMETRY OF AOS IN SYMMETRY 6:   1 1 1 1 2 3 2 3
 EXTRA SYMMETRY OF AOS IN SYMMETRY 7:   1 1 1 1 2 3 2 3

 Eigenvalues of metric

         1 0.383E-02 0.244E-01 0.838E-01 0.838E-01 0.188E+00 0.369E+00 0.369E+00 0.428E+00
         2 0.395E-02 0.564E-01 0.193E+00 0.193E+00 0.299E+00 0.812E+00 0.812E+00 0.110E+01
         3 0.395E-02 0.564E-01 0.193E+00 0.193E+00 0.299E+00 0.812E+00 0.812E+00 0.110E+01
         4 0.838E-01 0.369E+00 0.428E+00 0.428E+00 0.115E+01 0.157E+01 0.157E+01 0.240E+01
         5 0.395E-02 0.564E-01 0.193E+00 0.193E+00 0.299E+00 0.812E+00 0.812E+00 0.110E+01
         6 0.838E-01 0.369E+00 0.428E+00 0.428E+00 0.115E+01 0.157E+01 0.157E+01 0.240E+01
         7 0.838E-01 0.369E+00 0.428E+00 0.428E+00 0.115E+01 0.157E+01 0.157E+01 0.240E+01
         8 0.193E+00 0.812E+00 0.199E+01


 Contracted 2-electron integrals neglected if value below      1.0D-12
 AO integral compression algorithm  1   Integral accuracy      1.0D-12

     6.291 MB (compressed) written to integral file ( 66.9%)


 NUMBER OF SORTED TWO-ELECTRON INTEGRALS:     665704.     BUFFER LENGTH:  32768
 NUMBER OF SEGMENTS:   1  SEGMENT LENGTH:     665704      RECORD LENGTH: 524288

 Memory used in sort:       1.22 MW

 SORT1 READ     1222209. AND WROTE      500866. INTEGRALS IN      2 RECORDS. CPU TIME:     0.03 SEC, REAL TIME:     0.04 SEC
 SORT2 READ      500866. AND WROTE      665704. INTEGRALS IN     24 RECORDS. CPU TIME:     0.04 SEC, REAL TIME:     0.10 SEC

 FILE SIZES:   FILE 1:    26.3 MBYTE,  FILE 4:     8.4 MBYTE,   TOTAL:     34.7 MBYTE

 OPERATOR DM      FOR CENTER  0  COORDINATES:    0.000000    0.000000    0.000000
 OPERATOR EKIN    FOR CENTER  0  COORDINATES:    0.000000    0.000000    0.000000
 OPERATOR POT     FOR CENTER  0  COORDINATES:    0.000000    0.000000    0.000000


 **********************************************************************************************************************************
 DATASETS  * FILE   NREC   LENGTH (MB)   RECORD NAMES
              1      20       23.50       500      610      700      900      950      970     1000      129      960     1100   
                                          VAR    BASINP    GEOM    SYMINP    ZMAT    AOBASIS   BASIS     P2S    ABASIS      S 
                                         1400     1410     1420     1200     1210     1080     1600     1650     1300     1700   
                                         EKIN       V       ECP      H0       H01     AOSYM     SMH    MOLCAS    ERIS     OPER   

 PROGRAMS   *        TOTAL       INT
 CPU TIMES  *         2.06      1.96
 REAL TIME  *        11.02 SEC
 DISK USED  *        35.03 MB      
 **********************************************************************************************************************************


 PROGRAM * RHF-SCF (OPEN SHELL)       Authors: W. Meyer, H.-J. Werner


 NUMBER OF ELECTRONS:       4+    2-    SPACE SYMMETRY=7    SPIN SYMMETRY: Triplet 
 CONVERGENCE THRESHOLDS:    1.00E-05 (Density)    1.00E-07 (Energy)
 MAX. NUMBER OF ITERATIONS:       60
 INTERPOLATION TYPE:            DIIS
 INTERPOLATION STEPS:              2 (START)      1 (STEP)
 LEVEL SHIFTS:                 -0.60 (CLOSED) -0.30 (OPEN) 

 Number of closed-shell orbitals:    2 (   1   1   0   0   0   0   0   0 )
 Number of open-shell orbitals:      2 (   0   0   1   0   1   0   0   0 )



   Atom=SE basis=ECP28MDF_GUESS    lmin=0  lmax=1

 Orbital guess generated from atomic densities. Full valence occupancy:    1   1   1   0   1   0   0   0


 Molecular orbital dump at record        2100.2

 ITERATION    DDIFF          GRAD             ENERGY        2-EL.EN.            DIPOLE MOMENTS         DIIS   ORB.
    1      0.000D+00      0.000D+00        -9.14222421     11.374862    0.00000    0.00000    0.00000    0    start
    2      0.000D+00      0.676D-02        -9.14861938     11.538134    0.00000    0.00000    0.00000    1    diag,B
    3      0.927D-02      0.233D-02        -9.14986752     11.611737    0.00000    0.00000    0.00000    2    diag,B
    4      0.347D-02      0.800D-03        -9.15002427     11.630678    0.00000    0.00000    0.00000    3    diag,B
    5      0.168D-02      0.163D-03        -9.15002993     11.631615    0.00000    0.00000    0.00000    4    diag,B
    6      0.435D-03      0.442D-04        -9.15003033     11.631951    0.00000    0.00000    0.00000    5    diag,B
    7      0.126D-03      0.149D-04        -9.15003038     11.631999    0.00000    0.00000    0.00000    6    fixocc
    8      0.510D-04      0.424D-05        -9.15003038     11.632078    0.00000    0.00000    0.00000    7    diag,B
    9      0.857D-05      0.144D-05        -9.15003038     11.632079    0.00000    0.00000    0.00000    0    orth

 Final alpha occupancy:   1   1   1   0   1   0   0   0
 Final beta  occupancy:   1   1   0   0   0   0   0   0

 !RHF STATE 1.7 Energy                 -9.150030381006
 Nuclear energy                         0.00000000
 One-electron energy                  -14.96606998
 Two-electron energy                    5.81603960
 Virial quotient                       -2.78865008
 !RHF STATE 1.7 Dipole moment           0.00000000     0.00000000     0.00000000
 Dipole moment /Debye                   0.00000000     0.00000000     0.00000000
 

 !RHF expec          <1.7|EKIN|1.7>     3.281168346844
 
 !RHF expec           <1.7|POT|1.7>    -3.240887426329

 ELECTRON ORBITALS
 =================


   Orb  Occ    Energy  Couls-En    Coefficients

                                   1 1s      1 1s      1 1s      1 1s      1 1s      1 3d0     1 3d2+    1 3d0     1 3d2+    1 3d0  
                                   1 3d2+    1 3d0     1 3d2+    1 5g0     1 5g4+    1 5g2+    1 5g0     1 5g4+    1 5g2+ 

   1.1   2    -0.8548   -3.7395  0.999769 -0.000431  0.001353 -0.001514  0.000923 -0.000184  0.000319  0.000469 -0.000813 -0.002264
                                 0.003922 -0.001596  0.002764  0.000004  0.000009 -0.000007 -0.000017 -0.000034  0.000026

                                   1 2px     1 2px     1 2px     1 2px     1 2px     1 4f1+    1 4f3+    1 4f1+    1 4f3+    1 4f1+ 
                                   1 4f3+ 

   1.2   2    -0.3663   -2.6495  1.000030 -0.000285  0.001671 -0.002539  0.001159  0.002161 -0.002790  0.004261 -0.005501  0.001962
                                -0.002533

                                   1 2py     1 2py     1 2py     1 2py     1 2py     1 4f1-    1 4f3-    1 4f1-    1 4f3-    1 4f1- 
                                   1 4f3- 

   1.3   +    -0.4458   -2.7610  1.040034 -0.002414  0.021563 -0.063751 -0.015772  0.001713 -0.006634  0.003184 -0.012330  0.001059
                                -0.004103

                                   1 2pz     1 2pz     1 2pz     1 2pz     1 2pz     1 4f0     1 4f2+    1 4f0     1 4f2+    1 4f0  
                                   1 4f2+ 

   1.5   +    -0.4458   -2.7610  1.040034 -0.002414  0.021563 -0.063751 -0.015772  0.004196 -0.005417  0.007798 -0.010067  0.002595
                                -0.003350

 HOMO      1.2    -0.366308 =      -9.9678eV
 LUMO      2.3     0.086233 =       2.3465eV
 LUMO-HOMO         0.452541 =      12.3143eV


 **********************************************************************************************************************************
 DATASETS  * FILE   NREC   LENGTH (MB)   RECORD NAMES
              1      20       23.50       500      610      700      900      950      970     1000      129      960     1100   
                                          VAR    BASINP    GEOM    SYMINP    ZMAT    AOBASIS   BASIS     P2S    ABASIS      S 
                                         1400     1410     1420     1200     1210     1080     1600     1650     1300     1700   
                                         EKIN       V       ECP      H0       H01     AOSYM     SMH    MOLCAS    ERIS     OPER   

              2       4        2.78       700     1000      520     2100   
                                         GEOM     BASIS   MCVARS     RHF  

 PROGRAMS   *        TOTAL        HF       INT
 CPU TIMES  *         2.13      0.07      1.96
 REAL TIME  *        11.26 SEC
 DISK USED  *        35.03 MB      
 **********************************************************************************************************************************
 SETTING SCF(I)         =        -9.15003038  AU                              
 SETTING _CC_NORM_MAX   =         2.00000000                                  


 PROGRAM * CCSD (Restricted open-shell coupled cluster)     Authors: C. Hampel, H.-J. Werner, 1991, M. Deegan, P.J. Knowles, 1992


 Convergence thresholds:  THRVAR = 1.00D-08  THRDEN = 1.00D-06

 CCSD(T)     terms to be evaluated (factor= 1.000)


 Number of closed-shell orbitals:   2 (   1   1   0   0   0   0   0   0 )
 Number of active  orbitals:        2 (   0   0   1   0   1   0   0   0 )
 Number of external orbitals:      75 (  18  10  10   8  10   8   8   3 )

 Memory could be reduced to 0.94 Mwords without degradation in triples

 Number of N-1 electron functions:               6
 Number of N-2 electron functions:              15
 Number of singly external CSFs:                78
 Number of doubly external CSFs:              8819
 Total number of CSFs:                        8897

 Molecular orbitals read from record     2100.2  Type=RHF/CANONICAL (state 1.7)

 Integral transformation finished. Total CPU:   0.01 sec, npass=  1  Memory used:   0.17 MW

 Starting RMP2 calculation

 Wavefunction is spin-projected

 ITER.      SQ.NORM     CORR.ENERGY   TOTAL ENERGY   ENERGY CHANGE        DEN1      VAR(S)    VAR(P)  DIIS     TIME
   1      1.05157420    -0.12240246    -9.27243284    -0.12240246    -0.00060151  0.12D-04  0.29D-03  1  1     0.01
   2      1.05232519    -0.12306107    -9.27309145    -0.00065861    -0.00000095  0.86D-08  0.49D-06  2  2     0.01
   3      1.05234332    -0.12306997    -9.27310035    -0.00000890    -0.00000000  0.28D-10  0.12D-08  3  3     0.01
   4      1.05234357    -0.12307005    -9.27310043    -0.00000008    -0.00000000  0.21D-12  0.44D-11  4  4     0.01

 Norm of t1 vector:      0.04250831      S-energy:    -0.00294808      T1 diagnostic:  0.00057974
 Norm of t2 vector:      0.22480351      P-energy:    -0.12012197
                                         Alpha-Beta:  -0.09500638
                                         Alpha-Alpha: -0.02181280
                                         Beta-Beta:   -0.00330279

 Spin contamination <S**2-Sz**2-Sz>     0.00000000
  Reference energy                     -9.150030381006
  RHF-RMP2 correlation energy          -0.123070047848
 !RHF-RMP2 energy                      -9.273100428855
 (NB above energy spin projected)

 Starting RCCSD calculation

 ITER.      SQ.NORM     CORR.ENERGY   TOTAL ENERGY   ENERGY CHANGE        DEN1      VAR(S)    VAR(P)  DIIS     TIME
   1      1.06212446    -0.13288463    -9.28291501    -0.13288463    -0.00426408  0.23D-03  0.17D-02  1  1     0.02
   2      1.06843684    -0.13768587    -9.28771625    -0.00480124    -0.00012725  0.98D-05  0.52D-04  2  2     0.03
   3      1.06947282    -0.13811624    -9.28814662    -0.00043038    -0.00000610  0.78D-06  0.28D-05  3  3     0.05
   4      1.06970580    -0.13819655    -9.28822693    -0.00008031    -0.00000028  0.56D-07  0.13D-06  4  4     0.07
   5      1.06972975    -0.13819898    -9.28822936    -0.00000243    -0.00000002  0.45D-08  0.96D-08  5  5     0.08
   6      1.06973429    -0.13819972    -9.28823010    -0.00000074    -0.00000000  0.32D-09  0.86D-09  6  6     0.10

 Norm of t1 vector:      0.05132338      S-energy:    -0.00324809      T1 diagnostic:  0.00466027
                                                                       D1 diagnostic:  0.00883067
 Norm of t2 vector:      0.25903706      P-energy:    -0.13495163
                                         Alpha-Beta:  -0.10972868
                                         Alpha-Alpha: -0.02193768
                                         Beta-Beta:   -0.00328528

 Spin contamination <S**2-Sz**2-Sz>     0.00000000

 Memory could be reduced to 0.95 Mwords without degradation in triples
 

 RESULTS
 =======

  Reference energy                     -9.150030381006
  RCCSD singles energy                 -0.003248089129
  RCCSD pair energy                    -0.134951634348
  RCCSD correlation energy             -0.138199723476
  Triples (T) contribution             -0.005124237713
  Total correlation energy             -0.143323961190
 
  RHF-RCCSD energy                     -9.288230104482
  RHF-RCCSD[T] energy                  -9.293276978896
  RHF-RCCSD-T energy                   -9.293353498558
 !RHF-RCCSD(T) energy                  -9.293354342196

 Program statistics:

 Available memory in ccsd:              7999999732
 Min. memory needed in ccsd:                 50442
 Max. memory used in ccsd:                   58484
 Max. memory used in cckext:                 76681 ( 6 integral passes)
 Max. memory used in cckint:                165612 ( 1 integral passes)



 **********************************************************************************************************************************
 DATASETS  * FILE   NREC   LENGTH (MB)   RECORD NAMES
              1      20       23.50       500      610      700      900      950      970     1000      129      960     1100   
                                          VAR    BASINP    GEOM    SYMINP    ZMAT    AOBASIS   BASIS     P2S    ABASIS      S 
                                         1400     1410     1420     1200     1210     1080     1600     1650     1300     1700   
                                         EKIN       V       ECP      H0       H01     AOSYM     SMH    MOLCAS    ERIS     OPER   

              2       4        2.78       700     1000      520     2100   
                                         GEOM     BASIS   MCVARS     RHF  

 PROGRAMS   *        TOTAL  RCCSD(T)        HF       INT
 CPU TIMES  *         2.31      0.18      0.07      1.96
 REAL TIME  *        12.64 SEC
 DISK USED  *        35.03 MB      
 **********************************************************************************************************************************
 SETTING POSTHF(I)      =        -9.29335434  AU                              
                                                                                                                                                                                                                                                                

       SCF           POSTHF       EKIN          POT
    -9.15003038   -9.29335434   3.28116835   -3.24088743
                                                  

 RCCSD(T)/USERDEF energy=     -9.293354342196

        RCCSD(T)        HF-SCF  
     -9.29335434     -9.15003038
 **********************************************************************************************************************************
 Molpro calculation terminated
 Variable memory released
