----- GAMESS execution script 'rungms' -----
This job is running on host c455-054.stampede2.tacc.utexas.edu
under operating system Linux at Thu Sep 20 17:15:40 CDT 2018
Available scratch disk space (Kbyte units) at beginning of the job is
Filesystem               1K-blocks  Used Available Use% Mounted on
/dev/mapper/rootvg01-tmp  33312880 43688  33269192   1% /tmp
GAMESS temporary binary files will be written to /tmp
GAMESS supplementary output files will be written to /work/04843/aannabe/stampede2/docs/totals/Ne_BFD/5z
Copying input file Ne.inp to your run's scratch directory...

 Distributed Data Interface kickoff program.
 Initiating 1 compute processes on 1 nodes to run the following command:
 /work/04843/aannabe/stampede2/codes/gamess-mcb/gamess/gamess.00.x Ne 

          ******************************************************
          *         GAMESS VERSION =  1 MAY 2013 (R1)          *
          *             FROM IOWA STATE UNIVERSITY             *
          * M.W.SCHMIDT, K.K.BALDRIDGE, J.A.BOATZ, S.T.ELBERT, *
          *   M.S.GORDON, J.H.JENSEN, S.KOSEKI, N.MATSUNAGA,   *
          *          K.A.NGUYEN, S.J.SU, T.L.WINDUS,           *
          *       TOGETHER WITH M.DUPUIS, J.A.MONTGOMERY       *
          *         J.COMPUT.CHEM.  14, 1347-1363(1993)        *
          **************** 64 BIT INTEL VERSION ****************

  SINCE 1993, STUDENTS AND POSTDOCS WORKING AT IOWA STATE UNIVERSITY
  AND ALSO IN THEIR VARIOUS JOBS AFTER LEAVING ISU HAVE MADE IMPORTANT
  CONTRIBUTIONS TO THE CODE:
     IVANA ADAMOVIC, CHRISTINE AIKENS, YURI ALEXEEV, POOJA ARORA,
     ANDREY ASADCHEV, ROB BELL, PRADIPTA BANDYOPADHYAY, JONATHAN BENTZ,
     BRETT BODE, GALINA CHABAN, WEI CHEN, CHEOL HO CHOI, PAUL DAY,
     ALBERT DEFUSCO, TIM DUDLEY, DMITRI FEDOROV, GRAHAM FLETCHER,
     MARK FREITAG, KURT GLAESEMANN, DAN KEMP, GRANT MERRILL,
     NORIYUKI MINEZAWA, JONATHAN MULLIN, TAKESHI NAGATA,
     SEAN NEDD, HEATHER NETZLOFF, BOSILJKA NJEGIC, RYAN OLSON, MIKE PAK,
     JIM SHOEMAKER, LYUDMILA SLIPCHENKO, SAROM SOK, JIE SONG,
     TETSUYA TAKETSUGU, SIMON WEBB, SOOHAENG YOO, FEDERICO ZAHARIEV

  ADDITIONAL CODE HAS BEEN PROVIDED BY COLLABORATORS IN OTHER GROUPS:
     IOWA STATE UNIVERSITY:
          JOE IVANIC, LAIMUTIS BYTAUTAS, KLAUS RUEDENBERG
     UNIVERSITY OF TOKYO: KIMIHIKO HIRAO, TAKAHITO NAKAJIMA,
          TAKAO TSUNEDA, MUNEAKI KAMIYA, SUSUMU YANAGISAWA,
          KIYOSHI YAGI, MAHITO CHIBA, SEIKEN TOKURA, NAOAKI KAWAKAMI
     UNIVERSITY OF AARHUS: FRANK JENSEN
     UNIVERSITY OF IOWA: VISVALDAS KAIRYS, HUI LI
     NATIONAL INST. OF STANDARDS AND TECHNOLOGY: WALT STEVENS, DAVID GARMER
     UNIVERSITY OF PISA: BENEDETTA MENNUCCI, JACOPO TOMASI
     UNIVERSITY OF MEMPHIS: HENRY KURTZ, PRAKASHAN KORAMBATH
     UNIVERSITY OF ALBERTA: TOBY ZENG, MARIUSZ KLOBUKOWSKI
     UNIVERSITY OF NEW ENGLAND: MARK SPACKMAN
     MIE UNIVERSITY: HIROAKI UMEDA
     MICHIGAN STATE UNIVERSITY:
          KAROL KOWALSKI, MARTA WLOCH, JEFFREY GOUR, JESSE LUTZ,
          WEI LI, PIOTR PIECUCH
     UNIVERSITY OF SILESIA: MONIKA MUSIAL, STANISLAW KUCHARSKI
     FACULTES UNIVERSITAIRES NOTRE-DAME DE LA PAIX:
          OLIVIER QUINET, BENOIT CHAMPAGNE
     UNIVERSITY OF CALIFORNIA - SANTA BARBARA: BERNARD KIRTMAN
     INSTITUTE FOR MOLECULAR SCIENCE:
          KAZUYA ISHIMURA, MICHIO KATOUDA, AND SHIGERU NAGASE
     UNIVERSITY OF NOTRE DAME: DAN CHIPMAN
     KYUSHU UNIVERSITY:
          HARUYUKI NAKANO,
          FENG LONG GU, JACEK KORCHOWIEC, MARCIN MAKOWSKI, AND YURIKO AOKI,
          HIROTOSHI MORI AND EISAKU MIYOSHI
     PENNSYLVANIA STATE UNIVERSITY:
          TZVETELIN IORDANOV, CHET SWALINA, JONATHAN SKONE,
          SHARON HAMMES-SCHIFFER
     WASEDA UNIVERSITY:
          MASATO KOBAYASHI, TOMOKO AKAMA, TSUGUKI TOUMA,
          TAKESHI YOSHIKAWA, YASUHIRO IKABATA, HIROMI NAKAI
     NANJING UNIVERSITY: SHUHUA LI
     UNIVERSITY OF NEBRASKA:
          PEIFENG SU, DEJUN SI, NANDUN THELLAMUREGE, YALI WANG, HUI LI
     UNIVERSITY OF ZURICH:
          ROBERTO PEVERATI, KIM BALDRIDGE
     N. COPERNICUS UNIVERSITY AND JACKSON STATE UNIVERSITY:
          MARIA BARYSZ

 EXECUTION OF GAMESS BEGUN Thu Sep 20 17:15:41 2018

            ECHO OF THE FIRST FEW INPUT CARDS -
 INPUT CARD> $CONTRL                                                                        
 INPUT CARD>     SCFTYP=ROHF                                                                
 INPUT CARD>     MULT=1                                                                     
 INPUT CARD>     ICHARG=0                                                                   
 INPUT CARD>     RUNTYP=ENERGY                                                              
 INPUT CARD>     MAXIT=150                                                                  
 INPUT CARD>     ECP=READ                                                                   
 INPUT CARD>     ISPHER=1                                                                   
 INPUT CARD> $END                                                                           
 INPUT CARD>                                                                                
 INPUT CARD> $SYSTEM                                                                        
 INPUT CARD>     KDIAG=3                                                                    
 INPUT CARD> $END                                                                           
 INPUT CARD>                                                                                
 INPUT CARD> $GUESS                                                                         
 INPUT CARD>    GUESS=HUCKEL                                                                
 INPUT CARD> $END                                                                           
 INPUT CARD>                                                                                
 INPUT CARD>! Basis Set: unc-bfd-v5z                                                        
 INPUT CARD>                                                                                
 INPUT CARD> $DATA                                                                          
 INPUT CARD>                                                                                
 INPUT CARD>C1                                                                              
 INPUT CARD>Ne 10 0.0 0.0 0.0                                                               
 INPUT CARD>s 1 1.00                                                                        
 INPUT CARD>1 0.205835     1.000                                                            
 INPUT CARD>s 1 1.00                                                                        
 INPUT CARD>1 0.391384     1.000                                                            
 INPUT CARD>s 1 1.00                                                                        
 INPUT CARD>1 0.744196     1.000                                                            
 INPUT CARD>s 1 1.00                                                                        
 INPUT CARD>1 1.415048     1.000                                                            
 INPUT CARD>s 1 1.00                                                                        
 INPUT CARD>1 2.690638     1.000                                                            
 INPUT CARD>s 1 1.00                                                                        
 INPUT CARD>1 5.116103     1.000                                                            
 INPUT CARD>s 1 1.00                                                                        
 INPUT CARD>1 9.727994     1.000                                                            
 INPUT CARD>s 1 1.00                                                                        
 INPUT CARD>1 18.497256    1.000                                                            
 INPUT CARD>s 1 1.00                                                                        
 INPUT CARD>1 35.171534    1.000                                                            
 INPUT CARD>s 1 1.00                                                                        
 INPUT CARD>1 0.318678     1.000000                                                         
 INPUT CARD>s 1 1.00                                                                        
 INPUT CARD>1 0.830178     1.000000                                                         
 INPUT CARD>s 1 1.00                                                                        
 INPUT CARD>1 1.591904     1.000000                                                         
 INPUT CARD>s 1 1.00                                                                        
 INPUT CARD>1 2.744999     1.000000                                                         
    1000000 WORDS OF MEMORY AVAILABLE


     RUN TITLE
     ---------
                                                                                 

 THE POINT GROUP OF THE MOLECULE IS C1      
 THE ORDER OF THE PRINCIPAL AXIS IS     0

 ATOM      ATOMIC                      COORDINATES (BOHR)
           CHARGE         X                   Y                   Z
 NE         10.0     0.0000000000        0.0000000000        0.0000000000

          INTERNUCLEAR DISTANCES (ANGS.)
          ------------------------------

                1 NE    

   1 NE      0.0000000  

  * ... LESS THAN  3.000


     ATOMIC BASIS SET
     ----------------
 THE CONTRACTED PRIMITIVE FUNCTIONS HAVE BEEN UNNORMALIZED
 THE CONTRACTED BASIS FUNCTIONS ARE NOW NORMALIZED TO UNITY

  SHELL TYPE  PRIMITIVE        EXPONENT          CONTRACTION COEFFICIENT(S)

 NE        

      1   S       1             0.2058350    1.000000000000

      2   S       2             0.3913840    1.000000000000

      3   S       3             0.7441960    1.000000000000

      4   S       4             1.4150480    1.000000000000

      5   S       5             2.6906380    1.000000000000

      6   S       6             5.1161030    1.000000000000

      7   S       7             9.7279940    1.000000000000

      8   S       8            18.4972560    1.000000000000

      9   S       9            35.1715340    1.000000000000

     10   S      10             0.3186780    1.000000000000

     11   S      11             0.8301780    1.000000000000

     12   S      12             1.5919040    1.000000000000

     13   S      13             2.7449990    1.000000000000

     14   P      14             0.1217720    1.000000000000

     15   P      15             0.2382480    1.000000000000

     16   P      16             0.4661360    1.000000000000

     17   P      17             0.9120020    1.000000000000

     18   P      18             1.7843440    1.000000000000

     19   P      19             3.4910950    1.000000000000

     20   P      20             6.8303780    1.000000000000

     21   P      21            13.3637320    1.000000000000

     22   P      22            26.1463320    1.000000000000

     23   P      23             0.2182260    1.000000000000

     24   P      24             0.6369210    1.000000000000

     25   P      25             1.8881910    1.000000000000

     26   P      26             3.0201080    1.000000000000

     27   D      27             0.6549240    1.000000000000

     28   D      28             1.9315020    1.000000000000

     29   D      29             5.0275660    1.000000000000

     30   D      30             6.9897000    1.000000000000

     31   F      31             1.3142970    1.000000000000

     32   F      32             4.0659280    1.000000000000

     33   F      33             5.5874870    1.000000000000

     34   G      34             2.0709250    1.000000000000

     35   G      35             6.0731070    1.000000000000

 TOTAL NUMBER OF BASIS SET SHELLS             =   35
 NUMBER OF CARTESIAN GAUSSIAN BASIS FUNCTIONS =  136
 NOTE: THIS RUN WILL RESTRICT THE MO VARIATION SPACE TO SPHERICAL HARMONICS.
 THE NUMBER OF ORBITALS KEPT IN THE VARIATIONAL SPACE WILL BE PRINTED LATER.
 NUMBER OF ELECTRONS                          =   10
 CHARGE OF MOLECULE                           =    0
 SPIN MULTIPLICITY                            =    1
 NUMBER OF OCCUPIED ORBITALS (ALPHA)          =    5
 NUMBER OF OCCUPIED ORBITALS (BETA )          =    5
 TOTAL NUMBER OF ATOMS                        =    1
 THE NUCLEAR REPULSION ENERGY IS        0.0000000000
 NOTE THIS RUN IS USING CORE POTENTIALS, AND THE NUMBER OF ELECTRONS,
 OCCUPIED ORBITALS, AND NUCLEAR REPULSION ENERGY WILL BE ADJUSTED BELOW
 AFTER REMOVAL OF THE CORE CHARGES.

 THIS MOLECULE IS RECOGNIZED AS BEING LINEAR,
 ORBITAL LZ DEGENERACY TOLERANCE ETOLLZ= 1.00E-06

     $CONTRL OPTIONS
     ---------------
 SCFTYP=ROHF         RUNTYP=ENERGY       EXETYP=RUN     
 MPLEVL=       0     CITYP =NONE         CCTYP =NONE         VBTYP =NONE    
 DFTTYP=NONE         TDDFT =NONE    
 MULT  =       1     ICHARG=       0     NZVAR =       0     COORD =UNIQUE  
 PP    =READ         RELWFN=NONE         LOCAL =NONE         NUMGRD=       F
 ISPHER=       1     NOSYM =       0     MAXIT =     150     UNITS =ANGS    
 PLTORB=       F     MOLPLT=       F     AIMPAC=       F     FRIEND=        
 NPRINT=       7     IREST =       0     GEOM  =INPUT   
 NORMF =       0     NORMP =       0     ITOL  =      20     ICUT  =       9
 INTTYP=BEST         GRDTYP=BEST         QMTTOL= 1.0E-06

     $SYSTEM OPTIONS
     ---------------
  REPLICATED MEMORY=     1000000 WORDS (ON EVERY NODE).
 DISTRIBUTED MEMDDI=           0 MILLION WORDS IN AGGREGATE,
 MEMDDI DISTRIBUTED OVER   1 PROCESSORS IS           0 WORDS/PROCESSOR.
 TOTAL MEMORY REQUESTED ON EACH PROCESSOR=     1000000 WORDS.
 TIMLIM=      525600.00 MINUTES, OR     365.0 DAYS.
 PARALL= F  BALTYP=  DLB     KDIAG=    3  COREFL= F
 MXSEQ2=     300 MXSEQ3=     150

          --------------
          ECP POTENTIALS
          --------------

 PARAMETERS FOR "NE-QMC  " ON ATOM    1 WITH ZCORE   2 AND LMAX  1 ARE
 FOR L= 1      COEFF    N           ZETA
    1        8.00000    1       10.74945
    2       85.99562    3       10.19801
    3      -56.79004    2       10.18694
 FOR L= 0      COEFF    N           ZETA
    1       55.11145    2       12.85043

 THE ECP RUN REMOVES    2 CORE ELECTRONS, AND THE SAME NUMBER OF PROTONS.
 NUMBER OF ELECTRONS KEPT IN THE CALCULATION IS =    8
 NUMBER OF OCCUPIED ORBITALS (ALPHA) KEPT IS    =    4
 NUMBER OF OCCUPIED ORBITALS (BETA ) KEPT IS    =    4
 THE ADJUSTED NUCLEAR REPULSION ENERGY=        0.0000000000
          ECP ANGULAR INTS.........     0.07 SECONDS

          ----------------
          PROPERTIES INPUT
          ----------------

     MOMENTS            FIELD           POTENTIAL          DENSITY
 IEMOM =       1   IEFLD =       0   IEPOT =       0   IEDEN =       0
 WHERE =COMASS     WHERE =NUCLEI     WHERE =NUCLEI     WHERE =NUCLEI  
 OUTPUT=BOTH       OUTPUT=BOTH       OUTPUT=BOTH       OUTPUT=BOTH    
 IEMINT=       0   IEFINT=       0                     IEDINT=       0
                                                       MORB  =       0
          EXTRAPOLATION IN EFFECT
          SOSCF IN EFFECT
 ORBITAL PRINTING OPTION: NPREO=     1   136     2     1

     -------------------------------
     INTEGRAL TRANSFORMATION OPTIONS
     -------------------------------
     NWORD  =            0
     CUTOFF = 1.0E-09     MPTRAN =       0
     DIRTRF =       F     AOINTS =DUP     

          ----------------------
          INTEGRAL INPUT OPTIONS
          ----------------------
 NOPK  =       1 NORDER=       0 SCHWRZ=       F

     ------------------------------------------
     THE POINT GROUP IS C1 , NAXIS= 0, ORDER= 1
     ------------------------------------------

 -- VARIATIONAL SPACE WILL BE RESTRICTED TO PURE SPHERICAL HARMONICS ONLY --
 AFTER EXCLUDING CONTAMINANT COMBINATIONS FROM THE CARTESIAN GAUSSIAN BASIS
 SET, THE NUMBER OF SPHERICAL HARMONICS KEPT IN THE VARIATION SPACE IS  111

     DIMENSIONS OF THE SYMMETRY SUBSPACES ARE
 A   =  111

 ..... DONE SETTING UP THE RUN .....
 STEP CPU TIME =     0.21 TOTAL CPU TIME =        0.2 (    0.0 MIN)
 TOTAL WALL CLOCK TIME=        0.5 SECONDS, CPU UTILIZATION IS  42.31%

          ********************
          1 ELECTRON INTEGRALS
          ********************
 TIME TO DO ORDINARY INTEGRALS=      0.00
 TIME TO DO      ECP INTEGRALS=      0.02
 ...... END OF ONE-ELECTRON INTEGRALS ......
 STEP CPU TIME =     0.02 TOTAL CPU TIME =        0.2 (    0.0 MIN)
 TOTAL WALL CLOCK TIME=        0.7 SECONDS, CPU UTILIZATION IS  36.36%

          -------------
          GUESS OPTIONS
          -------------
          GUESS =HUCKEL            NORB  =       0          NORDER=       0
          MIX   =       F          PRTMO =       F          PUNMO =       F
          TOLZ  = 1.0E-08          TOLE  = 1.0E-05
          SYMDEN=       F          PURIFY=       F

 INITIAL GUESS ORBITALS GENERATED BY HUCKEL   ROUTINE.
 HUCKEL GUESS REQUIRES    132807 WORDS.

 STATISTICS FOR GENERATION OF SYMMETRY ORBITAL -Q- MATRIX
 NUMBER OF CARTESIAN ATOMIC ORBITALS=        136
 NUMBER OF SPHERICAL CONTAMINANTS DROPPED=    25
 NUMBER OF LINEARLY DEPENDENT MOS DROPPED=     6
 TOTAL NUMBER OF MOS IN VARIATION SPACE=     105

 ...WARNING (SYMORB.SRC)...
 THE INPUT BASIS SET CONTAINS APPROXIMATE LINEAR DEPENDENCE.
 THE SMALLEST EIGENVALUE OF THE OVERLAP MATRIX IS   3.197528E-10
 THERE ARE    6 EIGENVALUES LESS THAN QMTTOL=  1.00E-06
 EIGENVECTORS BELOW -QMTTOL- ARE DROPPED FROM THE MO SPACE,
 IN ORDER TO ELIMINATE THE APPROXIMATE LINEAR DEPENDENCE.

 THIS WILL MOST LIKELY CHANGE THE ENERGY ON THE ORDER OF TENS OF MICROHARTREES,
 DEPENDING ON THE NUMBER OF ORBITALS REMOVED.  THE VALUE OF QMTTOL CAN BE 
 CHANGED IN $CONTRL: JOBS WITH EIGENVALUES BELOW 1.0E-07 PROBABLY WON'T
 CONVERGE.  EIGENVALUES BETWEEN 1.0E-07 AND 1.0E-06 MAY REQUIRE LOOSENING OF
 THE DENSITY CRITERION (CONV IN $SCF), MORE ACCURATE INTEGRAL EVALUATION
 (ICUT=11 IN $CONTRL), MORE ACCURATE DIRECT SCF FOCK MATRIX
 CONSTRUCTION (FDIFF=.FALSE. IN $SCF), OR CHANGING THE SCF CONVERGER
 (DIIS=.TRUE. IN $SCF).

                    * * * * * WARNING * * * * *
 POSSIBLE LINEAR DEPENDENCE PROBLEMS DETECTED, INPUT QMTTOL= 1.0E-06,
 WITH     6 OVERLAP EIGENVALUES LYING BETWEEN 1.0E-05 AND QMTTOL.
 IF YOU EXPERIENCE SCF CONVERGENCE DIFFICULTIES WITH THE DENSITY ALMOST BUT
 NOT QUITE CONVERGED, YOU MAY NEED TO LOOSEN -QMTTOL- BY A FACTOR 5 TO 10.

 SYMMETRIES FOR INITIAL GUESS ORBITALS FOLLOW.  ALPHA SET(S).
     4 ORBITALS ARE OCCUPIED (    0 CORE ORBITALS).
     1=A        2=A        3=A        4=A        5=A        6=A        7=A   
     8=A        9=A       10=A       11=A       12=A       13=A       14=A   

 SYMMETRIES FOR INITIAL GUESS ORBITALS FOLLOW.   BETA SET(S).
     4 ORBITALS ARE OCCUPIED (    0 CORE ORBITALS).
     1=A        2=A        3=A        4=A        5=A        6=A        7=A   
     8=A        9=A       10=A       11=A       12=A       13=A       14=A   
 ...... END OF INITIAL ORBITAL SELECTION ......
 STEP CPU TIME =     0.07 TOTAL CPU TIME =        0.3 (    0.0 MIN)
 TOTAL WALL CLOCK TIME=        0.8 SECONDS, CPU UTILIZATION IS  37.35%

                    ----------------------
                    AO INTEGRAL TECHNOLOGY
                    ----------------------
     S,P,L SHELL ROTATED AXIS INTEGRALS, REPROGRAMMED BY
        KAZUYA ISHIMURA (IMS) AND JOSE SIERRA (SYNSTAR).
     S,P,D,L SHELL ROTATED AXIS INTEGRALS PROGRAMMED BY
        KAZUYA ISHIMURA (INSTITUTE FOR MOLECULAR SCIENCE).
     S,P,D,F,G SHELL TO TOTAL QUARTET ANGULAR MOMENTUM SUM 5,
        ERIC PROGRAM BY GRAHAM FLETCHER (ELORET AND NASA ADVANCED
        SUPERCOMPUTING DIVISION, AMES RESEARCH CENTER).
     S,P,D,F,G,L SHELL GENERAL RYS QUADRATURE PROGRAMMED BY
        MICHEL DUPUIS (PACIFIC NORTHWEST NATIONAL LABORATORY).

          --------------------
          2 ELECTRON INTEGRALS
          --------------------

 THE -PK- OPTION IS OFF, THE INTEGRALS ARE NOT IN SUPERMATRIX FORM.
 STORING   15000 INTEGRALS/RECORD ON DISK, USING 12 BYTES/INTEGRAL.
 TWO ELECTRON INTEGRAL EVALUATION REQUIRES  140355 WORDS OF MEMORY.
 II,JST,KST,LST =  1  1  1  1 NREC =         1 INTLOC =    1
 II,JST,KST,LST =  2  1  1  1 NREC =         1 INTLOC =    2
 II,JST,KST,LST =  3  1  1  1 NREC =         1 INTLOC =    7
 II,JST,KST,LST =  4  1  1  1 NREC =         1 INTLOC =   22
 II,JST,KST,LST =  5  1  1  1 NREC =         1 INTLOC =   56
 II,JST,KST,LST =  6  1  1  1 NREC =         1 INTLOC =  121
 II,JST,KST,LST =  7  1  1  1 NREC =         1 INTLOC =  232
 II,JST,KST,LST =  8  1  1  1 NREC =         1 INTLOC =  407
 II,JST,KST,LST =  9  1  1  1 NREC =         1 INTLOC =  667
 II,JST,KST,LST = 10  1  1  1 NREC =         1 INTLOC = 1036
 II,JST,KST,LST = 11  1  1  1 NREC =         1 INTLOC = 1541
 II,JST,KST,LST = 12  1  1  1 NREC =         1 INTLOC = 2212
 II,JST,KST,LST = 13  1  1  1 NREC =         1 INTLOC = 3082
 II,JST,KST,LST = 14  1  1  1 NREC =         1 INTLOC = 4187
 II,JST,KST,LST = 15  1  1  1 NREC =         1 INTLOC = 4742
 II,JST,KST,LST = 16  1  1  1 NREC =         1 INTLOC = 6134
 II,JST,KST,LST = 17  1  1  1 NREC =         1 INTLOC = 8471
 II,JST,KST,LST = 18  1  1  1 NREC =         1 INTLOC =11924
 II,JST,KST,LST = 19  1  1  1 NREC =         2 INTLOC = 1727
 II,JST,KST,LST = 20  1  1  1 NREC =         2 INTLOC = 8177
 II,JST,KST,LST = 21  1  1  1 NREC =         3 INTLOC = 1634
 II,JST,KST,LST = 22  1  1  1 NREC =         3 INTLOC =12521
 II,JST,KST,LST = 23  1  1  1 NREC =         4 INTLOC =11324
 II,JST,KST,LST = 24  1  1  1 NREC =         5 INTLOC =13592
 II,JST,KST,LST = 25  1  1  1 NREC =         7 INTLOC = 4937
 II,JST,KST,LST = 26  1  1  1 NREC =         9 INTLOC = 1034
 II,JST,KST,LST = 27  1  1  1 NREC =        11 INTLOC = 2621
 II,JST,KST,LST = 28  1  1  1 NREC =        15 INTLOC =10517
 II,JST,KST,LST = 29  1  1  1 NREC =        22 INTLOC = 1358
 II,JST,KST,LST = 30  1  1  1 NREC =        30 INTLOC = 9104
 II,JST,KST,LST = 31  1  1  1 NREC =        41 INTLOC = 8723
 II,JST,KST,LST = 32  1  1  1 NREC =        65 INTLOC = 7616
 II,JST,KST,LST = 33  1  1  1 NREC =        99 INTLOC = 4238
 II,JST,KST,LST = 34  1  1  1 NREC =       145 INTLOC = 9797
 II,JST,KST,LST = 35  1  1  1 NREC =       240 INTLOC = 9182
 TOTAL NUMBER OF NONZERO TWO-ELECTRON INTEGRALS =             5668807
        378 INTEGRAL RECORDS WERE STORED ON DISK FILE  8.
  ...... END OF TWO-ELECTRON INTEGRALS .....
 STEP CPU TIME =     3.69 TOTAL CPU TIME =        4.0 (    0.1 MIN)
 TOTAL WALL CLOCK TIME=        4.6 SECONDS, CPU UTILIZATION IS  87.72%

          ---------------------------
                 ROHF SCF CALCULATION
          ---------------------------

     NUCLEAR ENERGY =         0.0000000000
     MAXIT =150     NPUNCH=  2     MULT=  1
     EXTRAP=T  DAMP=F  SHIFT=F  RSTRCT=F  DIIS=F  SOSCF=T
     DENSITY MATRIX CONV=  1.00E-05
     ROHF CANONICALIZATION PARAMETERS
             C-C     O-O     V-V
     ALPHA -0.5000  0.5000  1.5000
     BETA   1.5000  0.5000 -0.5000
     SOSCF WILL OPTIMIZE     404 ORBITAL ROTATION ANGLES. SOGTOL= 2.500E-01
     MEMORY REQUIRED FOR UHF/ROHF ITERS=    200928 WORDS.

 ITER EX      TOTAL ENERGY        E CHANGE  DENSITY CHANGE    ORB. GRAD 
   1  0      -34.3746157793   -34.3746157793   0.672042136   0.000000000
          ---------------START SECOND ORDER SCF---------------
   2  1      -34.7067234167    -0.3321076374   0.033396549   0.034320573
   3  2      -34.7089675431    -0.0022441265   0.006497268   0.004190169
   4  3      -34.7090517429    -0.0000841998   0.002396066   0.001470315
   5  4      -34.7090594878    -0.0000077449   0.000321840   0.000142744
   6  5      -34.7090595917    -0.0000001039   0.000086439   0.000012170
   7  6      -34.7090595925    -0.0000000008   0.000016340   0.000002084
   8  7      -34.7090595925    -0.0000000000   0.000000276   0.000000235

          -----------------
          DENSITY CONVERGED
          -----------------
     TIME TO FORM FOCK OPERATORS=       2.2 SECONDS (       0.3 SEC/ITER)
     TIME TO SOLVE SCF EQUATIONS=       0.1 SECONDS (       0.0 SEC/ITER)

 FINAL ROHF ENERGY IS      -34.7090595925 AFTER   8 ITERATIONS

          --------------------
          SPIN SZ   =    0.000
          S-SQUARED =   -0.000
          --------------------

 LZ VALUE ANALYSIS FOR THE MOS
 ----------------------------------------
 MO     1 (    1) HAS LZ(WEIGHT)= 0.00(100.0%) 
 MO     2 (    2) HAS LZ(WEIGHT)= 0.00(100.0%) 
 MO     3 (    2) HAS LZ(WEIGHT)=-1.00( 50.0%)  1.00( 50.0%) 
 MO     4 (    2) HAS LZ(WEIGHT)=-1.00( 50.0%)  1.00( 50.0%) 
 MO     5 (    3) HAS LZ(WEIGHT)=-1.00( 50.0%)  1.00( 50.0%) 
 MO     6 (    3) HAS LZ(WEIGHT)=-1.00( 50.0%)  1.00( 50.0%) 
 MO     7 (    3) HAS LZ(WEIGHT)= 0.00(100.0%) 
 MO     8 (    4) HAS LZ(WEIGHT)= 0.00(100.0%) 
 MO     9 (    5) HAS LZ(WEIGHT)=-1.00( 50.0%)  1.00( 50.0%) 
 MO    10 (    5) HAS LZ(WEIGHT)=-1.00( 50.0%)  1.00( 50.0%) 
 MO    11 (    5) HAS LZ(WEIGHT)= 0.00(100.0%) 
 MO    12 (    6) HAS LZ(WEIGHT)= 0.00(100.0%) 
 MO    13 (    7) HAS LZ(WEIGHT)=-1.00( 50.0%)  1.00( 50.0%) 
 MO    14 (    7) HAS LZ(WEIGHT)=-1.00( 50.0%)  1.00( 50.0%) 
 MO    15 (    7) HAS LZ(WEIGHT)= 0.00(100.0%) 
 MO    16 (    8) HAS LZ(WEIGHT)=-1.00( 50.0%)  1.00( 50.0%) 
 MO    17 (    8) HAS LZ(WEIGHT)=-2.00( 50.0%)  2.00( 50.0%) 
 MO    18 (    8) HAS LZ(WEIGHT)=-1.00( 50.0%)  1.00( 50.0%) 
 MO    19 (    8) HAS LZ(WEIGHT)= 0.00(100.0%) 
 MO    20 (    8) HAS LZ(WEIGHT)=-2.00( 50.0%)  2.00( 50.0%) 
 MO    21 (    9) HAS LZ(WEIGHT)=-1.00( 50.0%)  1.00( 50.0%) 
 MO    22 (    9) HAS LZ(WEIGHT)= 0.00(100.0%) 
 MO    23 (    9) HAS LZ(WEIGHT)=-1.00( 50.0%)  1.00( 50.0%) 
 MO    24 (   10) HAS LZ(WEIGHT)= 0.00(100.0%) 
 MO    25 (   11) HAS LZ(WEIGHT)=-1.00( 50.0%)  1.00( 50.0%) 
 MO    26 (   11) HAS LZ(WEIGHT)= 0.00(100.0%) 
 MO    27 (   11) HAS LZ(WEIGHT)=-1.00( 50.0%)  1.00( 50.0%) 
 MO    28 (   12) HAS LZ(WEIGHT)=-2.00( 50.0%)  2.00( 50.0%) 
 MO    29 (   12) HAS LZ(WEIGHT)=-3.00( 50.0%)  3.00( 50.0%) 
 MO    30 (   12) HAS LZ(WEIGHT)= 0.00(100.0%) 
 MO    31 (   12) HAS LZ(WEIGHT)=-1.00( 50.0%)  1.00( 50.0%) 
 MO    32 (   12) HAS LZ(WEIGHT)=-3.00( 50.0%)  3.00( 50.0%) 
 MO    33 (   12) HAS LZ(WEIGHT)=-1.00( 50.0%)  1.00( 50.0%) 
 MO    34 (   12) HAS LZ(WEIGHT)=-2.00( 50.0%)  2.00( 50.0%) 
 MO    35 (   13) HAS LZ(WEIGHT)=-2.00( 50.0%)  2.00( 50.0%) 
 MO    36 (   13) HAS LZ(WEIGHT)=-1.00( 50.0%)  1.00( 50.0%) 
 MO    37 (   13) HAS LZ(WEIGHT)= 0.00(100.0%) 
 MO    38 (   13) HAS LZ(WEIGHT)=-2.00( 50.0%)  2.00( 50.0%) 
 MO    39 (   13) HAS LZ(WEIGHT)=-1.00( 50.0%)  1.00( 50.0%) 
 MO    40 (   14) HAS LZ(WEIGHT)= 0.00(100.0%) 
 MO    41 (   15) HAS LZ(WEIGHT)=-1.00( 50.0%)  1.00( 50.0%) 
 MO    42 (   15) HAS LZ(WEIGHT)= 0.00(100.0%) 
 MO    43 (   15) HAS LZ(WEIGHT)=-1.00( 50.0%)  1.00( 50.0%) 
 MO    44 (   16) HAS LZ(WEIGHT)=-1.00( 50.0%)  1.00( 50.0%) 
 MO    45 (   16) HAS LZ(WEIGHT)=-4.00( 50.0%)  4.00( 50.0%) 
 MO    46 (   16) HAS LZ(WEIGHT)=-1.00( 50.0%)  1.00( 50.0%) 
 MO    47 (   16) HAS LZ(WEIGHT)=-3.00( 50.0%)  3.00( 50.0%) 
 MO    48 (   16) HAS LZ(WEIGHT)= 0.00(100.0%) 
 MO    49 (   16) HAS LZ(WEIGHT)=-3.00( 50.0%)  3.00( 50.0%) 
 MO    50 (   16) HAS LZ(WEIGHT)=-2.00( 50.0%)  2.00( 50.0%) 
 MO    51 (   16) HAS LZ(WEIGHT)=-2.00( 50.0%)  2.00( 50.0%) 
 MO    52 (   16) HAS LZ(WEIGHT)=-4.00( 50.0%)  4.00( 50.0%) 
 MO    53 (   17) HAS LZ(WEIGHT)= 0.00(100.0%) 
 MO    54 (   18) HAS LZ(WEIGHT)=-1.00( 50.0%)  1.00( 50.0%) 
 MO    55 (   18) HAS LZ(WEIGHT)= 0.00(100.0%) 
 MO    56 (   18) HAS LZ(WEIGHT)=-1.00( 50.0%)  1.00( 50.0%) 
 MO    57 (   19) HAS LZ(WEIGHT)= 0.00(100.0%) 
 MO    58 (   19) HAS LZ(WEIGHT)=-1.00( 50.0%)  1.00( 50.0%) 
 MO    59 (   19) HAS LZ(WEIGHT)=-3.00( 50.0%)  3.00( 50.0%) 
 MO    60 (   19) HAS LZ(WEIGHT)=-3.00( 50.0%)  3.00( 50.0%) 
 MO    61 (   19) HAS LZ(WEIGHT)=-1.00( 50.0%)  1.00( 50.0%) 
 MO    62 (   19) HAS LZ(WEIGHT)=-2.00( 50.0%)  2.00( 50.0%) 
 MO    63 (   19) HAS LZ(WEIGHT)=-2.00( 50.0%)  2.00( 50.0%) 
 MO    64 (   20) HAS LZ(WEIGHT)=-2.00( 50.0%)  2.00( 50.0%) 
 MO    65 (   20) HAS LZ(WEIGHT)= 0.00(100.0%) 
 MO    66 (   20) HAS LZ(WEIGHT)=-1.00( 50.0%)  1.00( 50.0%) 
 MO    67 (   20) HAS LZ(WEIGHT)=-2.00( 50.0%)  2.00( 50.0%) 
 MO    68 (   20) HAS LZ(WEIGHT)=-1.00( 50.0%)  1.00( 50.0%) 
 MO    69 (   21) HAS LZ(WEIGHT)=-1.00( 50.0%)  1.00( 50.0%) 
 MO    70 (   21) HAS LZ(WEIGHT)=-1.00( 50.0%)  1.00( 50.0%) 
 MO    71 (   21) HAS LZ(WEIGHT)= 0.00(100.0%) 
 MO    72 (   22) HAS LZ(WEIGHT)= 0.00(100.0%) 
 MO    73 (   23) HAS LZ(WEIGHT)=-4.00( 50.0%)  4.00( 50.0%) 
 MO    74 (   23) HAS LZ(WEIGHT)=-4.00( 50.0%)  4.00( 50.0%) 
 MO    75 (   23) HAS LZ(WEIGHT)=-1.00( 50.0%)  1.00( 50.0%) 
 MO    76 (   23) HAS LZ(WEIGHT)=-0.00(100.0%) 
 MO    77 (   23) HAS LZ(WEIGHT)=-1.00( 50.0%)  1.00( 50.0%) 
 MO    78 (   23) HAS LZ(WEIGHT)=-3.00( 50.0%)  3.00( 50.0%) 
 MO    79 (   23) HAS LZ(WEIGHT)=-3.00( 50.0%)  3.00( 50.0%) 
 MO    80 (   23) HAS LZ(WEIGHT)=-2.00( 50.0%)  2.00( 50.0%) 
 MO    81 (   23) HAS LZ(WEIGHT)=-2.00( 50.0%)  2.00( 50.0%) 
 MO    82 (   24) HAS LZ(WEIGHT)= 0.00(100.0%) 
 MO    83 (   24) HAS LZ(WEIGHT)=-1.00( 50.0%)  1.00( 50.0%) 
 MO    84 (   24) HAS LZ(WEIGHT)=-2.00( 50.0%)  2.00( 50.0%) 
 MO    85 (   24) HAS LZ(WEIGHT)=-1.00( 50.0%)  1.00( 50.0%) 
 MO    86 (   24) HAS LZ(WEIGHT)=-3.00( 50.0%)  3.00( 50.0%) 
 MO    87 (   24) HAS LZ(WEIGHT)=-3.00( 50.0%)  3.00( 50.0%) 
 MO    88 (   24) HAS LZ(WEIGHT)=-2.00( 50.0%)  2.00( 50.0%) 
 MO    89 (   25) HAS LZ(WEIGHT)=-2.00( 50.0%)  2.00( 50.0%) 
 MO    90 (   25) HAS LZ(WEIGHT)= 0.00(100.0%) 
 MO    91 (   25) HAS LZ(WEIGHT)=-1.00( 50.0%)  1.00( 50.0%) 
 MO    92 (   25) HAS LZ(WEIGHT)=-1.00( 50.0%)  1.00( 50.0%) 
 MO    93 (   25) HAS LZ(WEIGHT)=-2.00( 50.0%)  2.00( 50.0%) 
 MO    94 (   26) HAS LZ(WEIGHT)=-1.00( 50.0%)  1.00( 50.0%) 
 MO    95 (   26) HAS LZ(WEIGHT)=-1.00( 50.0%)  1.00( 50.0%) 
 MO    96 (   26) HAS LZ(WEIGHT)= 0.00(100.0%) 
 MO    97 (   27) HAS LZ(WEIGHT)= 0.00(100.0%) 
 MO    98 (   28) HAS LZ(WEIGHT)=-1.00( 50.0%)  1.00( 50.0%) 
 MO    99 (   28) HAS LZ(WEIGHT)=-1.00( 50.0%)  1.00( 50.0%) 
 MO   100 (   28) HAS LZ(WEIGHT)= 0.00(100.0%) 
 MO   101 (   29) HAS LZ(WEIGHT)= 0.00(100.0%) 
 MO   102 (   30) HAS LZ(WEIGHT)= 0.00(100.0%) 
 MO   103 (   30) HAS LZ(WEIGHT)=-1.00( 50.0%)  1.00( 50.0%) 
 MO   104 (   30) HAS LZ(WEIGHT)=-1.00( 50.0%)  1.00( 50.0%) 
 MO   105 (   31) HAS LZ(WEIGHT)= 0.00(100.0%) 

          ------------
          EIGENVECTORS
          ------------

                      1          2          3          4          5
                   -1.9077    -0.8502    -0.8502    -0.8502     0.1947
                     A          A          A          A          A   
    1  NE 1  S    0.061858   0.000000   0.000000   0.000000   0.000000
    2  NE 1  S    0.250654   0.000000   0.000000   0.000000   0.000000
    3  NE 1  S    0.238200   0.000000   0.000000   0.000000   0.000000
    4  NE 1  S    0.138230   0.000000   0.000000   0.000000   0.000000
    5  NE 1  S    0.076674   0.000000   0.000000   0.000000   0.000000
    6  NE 1  S   -0.035084   0.000000   0.000000   0.000000   0.000000
    7  NE 1  S   -0.087382   0.000000   0.000000   0.000000   0.000000
    8  NE 1  S    0.007269   0.000000   0.000000   0.000000   0.000000
    9  NE 1  S    0.000122   0.000000   0.000000   0.000000   0.000000
   10  NE 1  S   -0.027503   0.000000   0.000000   0.000000   0.000000
   11  NE 1  S    0.162073   0.000000   0.000000   0.000000   0.000000
   12  NE 1  S    0.169760   0.000000   0.000000   0.000000   0.000000
   13  NE 1  S    0.067923   0.000000   0.000000   0.000000   0.000000
   14  NE 1  X    0.000000   0.000000   0.000000   0.032934   5.542426
   15  NE 1  Y    0.000000   0.000000   0.032934   0.000000   0.000000
   16  NE 1  Z    0.000000   0.032934   0.000000   0.000000   0.000000
   17  NE 1  X    0.000000   0.000000   0.000000   0.160301  52.869075
   18  NE 1  Y    0.000000   0.000000   0.160301   0.000000   0.000000
   19  NE 1  Z    0.000000   0.160301   0.000000   0.000000   0.000000
   20  NE 1  X    0.000000   0.000000   0.000000   0.210276 -13.334048
   21  NE 1  Y    0.000000   0.000000   0.210276   0.000000   0.000000
   22  NE 1  Z    0.000000   0.210276   0.000000   0.000000   0.000000
   23  NE 1  X    0.000000   0.000000   0.000000   0.273425  -4.645842
   24  NE 1  Y    0.000000   0.000000   0.273425   0.000000   0.000000
   25  NE 1  Z    0.000000   0.273425   0.000000   0.000000   0.000000
   26  NE 1  X    0.000000   0.000000   0.000000   0.175245  -2.859385
   27  NE 1  Y    0.000000   0.000000   0.175245   0.000000   0.000000
   28  NE 1  Z    0.000000   0.175245   0.000000   0.000000   0.000000
   29  NE 1  X    0.000000   0.000000   0.000000   0.210427   2.404886
   30  NE 1  Y    0.000000   0.000000   0.210427   0.000000   0.000000
   31  NE 1  Z    0.000000   0.210427   0.000000   0.000000   0.000000
   32  NE 1  X    0.000000   0.000000   0.000000   0.110993  -0.167560
   33  NE 1  Y    0.000000   0.000000   0.110993   0.000000   0.000000
   34  NE 1  Z    0.000000   0.110993   0.000000   0.000000   0.000000
   35  NE 1  X    0.000000   0.000000   0.000000   0.063572   0.019364
   36  NE 1  Y    0.000000   0.000000   0.063572   0.000000   0.000000
   37  NE 1  Z    0.000000   0.063572   0.000000   0.000000   0.000000
   38  NE 1  X    0.000000   0.000000   0.000000   0.008011  -0.006421
   39  NE 1  Y    0.000000   0.000000   0.008011   0.000000   0.000000
   40  NE 1  Z    0.000000   0.008011   0.000000   0.000000   0.000000
   41  NE 1  X    0.000000   0.000000   0.000000  -0.044073 -52.237211
   42  NE 1  Y    0.000000   0.000000  -0.044073   0.000000   0.000000
   43  NE 1  Z    0.000000  -0.044073   0.000000   0.000000   0.000000
   44  NE 1  X    0.000000   0.000000   0.000000   0.003091  11.924483
   45  NE 1  Y    0.000000   0.000000   0.003091   0.000000   0.000000
   46  NE 1  Z    0.000000   0.003091   0.000000   0.000000   0.000000
   47  NE 1  X    0.000000   0.000000   0.000000   0.089132   4.673488
   48  NE 1  Y    0.000000   0.000000   0.089132   0.000000   0.000000
   49  NE 1  Z    0.000000   0.089132   0.000000   0.000000   0.000000
   50  NE 1  X    0.000000   0.000000   0.000000  -0.028753  -3.513836
   51  NE 1  Y    0.000000   0.000000  -0.028753   0.000000   0.000000
   52  NE 1  Z    0.000000  -0.028753   0.000000   0.000000   0.000000
   53  NE 1 XX    0.000000   0.000000   0.000000   0.000000   0.000000
   54  NE 1 YY    0.000000   0.000000   0.000000   0.000000   0.000000
   55  NE 1 ZZ    0.000000   0.000000   0.000000   0.000000   0.000000
   56  NE 1 XY    0.000000   0.000000   0.000000   0.000000   0.000000
   57  NE 1 XZ    0.000000   0.000000   0.000000   0.000000   0.000000
   58  NE 1 YZ    0.000000   0.000000   0.000000   0.000000   0.000000
   59  NE 1 XX    0.000000   0.000000   0.000000   0.000000   0.000000
   60  NE 1 YY    0.000000   0.000000   0.000000   0.000000   0.000000
   61  NE 1 ZZ    0.000000   0.000000   0.000000   0.000000   0.000000
   62  NE 1 XY    0.000000   0.000000   0.000000   0.000000   0.000000
   63  NE 1 XZ    0.000000   0.000000   0.000000   0.000000   0.000000
   64  NE 1 YZ    0.000000   0.000000   0.000000   0.000000   0.000000
   65  NE 1 XX    0.000000   0.000000   0.000000   0.000000   0.000000
   66  NE 1 YY    0.000000   0.000000   0.000000   0.000000   0.000000
   67  NE 1 ZZ    0.000000   0.000000   0.000000   0.000000   0.000000
   68  NE 1 XY    0.000000   0.000000   0.000000   0.000000   0.000000
   69  NE 1 XZ    0.000000   0.000000   0.000000   0.000000   0.000000
   70  NE 1 YZ    0.000000   0.000000   0.000000   0.000000   0.000000
   71  NE 1 XX    0.000000   0.000000   0.000000   0.000000   0.000000
   72  NE 1 YY    0.000000   0.000000   0.000000   0.000000   0.000000
   73  NE 1 ZZ    0.000000   0.000000   0.000000   0.000000   0.000000
   74  NE 1 XY    0.000000   0.000000   0.000000   0.000000   0.000000
   75  NE 1 XZ    0.000000   0.000000   0.000000   0.000000   0.000000
   76  NE 1 YZ    0.000000   0.000000   0.000000   0.000000   0.000000
   77  NE 1 XXX   0.000000   0.000000   0.000000   0.000000   0.000000
   78  NE 1 YYY   0.000000   0.000000   0.000000   0.000000   0.000000
   79  NE 1 ZZZ   0.000000   0.000000   0.000000   0.000000   0.000000
   80  NE 1 XXY   0.000000   0.000000   0.000000   0.000000   0.000000
   81  NE 1 XXZ   0.000000   0.000000   0.000000   0.000000   0.000000
   82  NE 1 YYX   0.000000   0.000000   0.000000   0.000000   0.000000
   83  NE 1 YYZ   0.000000   0.000000   0.000000   0.000000   0.000000
   84  NE 1 ZZX   0.000000   0.000000   0.000000   0.000000   0.000000
   85  NE 1 ZZY   0.000000   0.000000   0.000000   0.000000   0.000000
   86  NE 1 XYZ   0.000000   0.000000   0.000000   0.000000   0.000000
   87  NE 1 XXX   0.000000   0.000000   0.000000   0.000000   0.000000
   88  NE 1 YYY   0.000000   0.000000   0.000000   0.000000   0.000000
   89  NE 1 ZZZ   0.000000   0.000000   0.000000   0.000000   0.000000
   90  NE 1 XXY   0.000000   0.000000   0.000000   0.000000   0.000000
   91  NE 1 XXZ   0.000000   0.000000   0.000000   0.000000   0.000000
   92  NE 1 YYX   0.000000   0.000000   0.000000   0.000000  -0.000000
   93  NE 1 YYZ   0.000000   0.000000   0.000000   0.000000   0.000000
   94  NE 1 ZZX   0.000000   0.000000   0.000000   0.000000   0.000000
   95  NE 1 ZZY   0.000000   0.000000   0.000000   0.000000   0.000000
   96  NE 1 XYZ   0.000000   0.000000   0.000000   0.000000   0.000000
   97  NE 1 XXX   0.000000   0.000000   0.000000   0.000000  -0.000000
   98  NE 1 YYY   0.000000   0.000000   0.000000   0.000000   0.000000
   99  NE 1 ZZZ   0.000000   0.000000   0.000000   0.000000   0.000000
  100  NE 1 XXY   0.000000   0.000000   0.000000   0.000000   0.000000
  101  NE 1 XXZ   0.000000   0.000000   0.000000   0.000000   0.000000
  102  NE 1 YYX   0.000000   0.000000   0.000000   0.000000   0.000000
  103  NE 1 YYZ   0.000000   0.000000   0.000000   0.000000   0.000000
  104  NE 1 ZZX   0.000000   0.000000   0.000000   0.000000   0.000000
  105  NE 1 ZZY   0.000000   0.000000   0.000000   0.000000   0.000000
  106  NE 1 XYZ   0.000000   0.000000   0.000000   0.000000   0.000000
  107  NE 1XXXX   0.000000   0.000000   0.000000   0.000000   0.000000
  108  NE 1YYYY   0.000000   0.000000   0.000000   0.000000   0.000000
  109  NE 1ZZZZ   0.000000   0.000000   0.000000   0.000000   0.000000
  110  NE 1XXXY   0.000000   0.000000   0.000000   0.000000   0.000000
  111  NE 1XXXZ   0.000000   0.000000   0.000000   0.000000   0.000000
  112  NE 1YYYX   0.000000   0.000000   0.000000   0.000000   0.000000
  113  NE 1YYYZ   0.000000   0.000000   0.000000   0.000000   0.000000
  114  NE 1ZZZX   0.000000   0.000000   0.000000   0.000000   0.000000
  115  NE 1ZZZY   0.000000   0.000000   0.000000   0.000000   0.000000
  116  NE 1XXYY   0.000000   0.000000   0.000000   0.000000   0.000000
  117  NE 1XXZZ   0.000000   0.000000   0.000000   0.000000   0.000000
  118  NE 1YYZZ   0.000000   0.000000   0.000000   0.000000   0.000000
  119  NE 1XXYZ   0.000000   0.000000   0.000000   0.000000   0.000000
  120  NE 1YYXZ   0.000000   0.000000   0.000000   0.000000   0.000000
  121  NE 1ZZXY   0.000000   0.000000   0.000000   0.000000   0.000000
  122  NE 1XXXX   0.000000   0.000000   0.000000   0.000000   0.000000
  123  NE 1YYYY   0.000000   0.000000   0.000000   0.000000   0.000000
  124  NE 1ZZZZ   0.000000   0.000000   0.000000   0.000000   0.000000
  125  NE 1XXXY   0.000000   0.000000   0.000000   0.000000   0.000000
  126  NE 1XXXZ   0.000000   0.000000   0.000000   0.000000   0.000000
  127  NE 1YYYX   0.000000   0.000000   0.000000   0.000000   0.000000
  128  NE 1YYYZ   0.000000   0.000000   0.000000   0.000000   0.000000
  129  NE 1ZZZX   0.000000   0.000000   0.000000   0.000000   0.000000
  130  NE 1ZZZY   0.000000   0.000000   0.000000   0.000000   0.000000
  131  NE 1XXYY   0.000000   0.000000   0.000000   0.000000   0.000000
  132  NE 1XXZZ   0.000000   0.000000   0.000000   0.000000   0.000000
  133  NE 1YYZZ   0.000000   0.000000   0.000000   0.000000   0.000000
  134  NE 1XXYZ   0.000000   0.000000   0.000000   0.000000   0.000000
  135  NE 1YYXZ   0.000000   0.000000   0.000000   0.000000   0.000000
  136  NE 1ZZXY   0.000000   0.000000   0.000000   0.000000   0.000000

                      6          7          8          9         10
                    0.1947     0.1947     0.2614     0.6382     0.6382
                     A          A          A          A          A   
    1  NE 1  S    0.000000   0.000000  -9.054948   0.000000   0.000000
    2  NE 1  S    0.000000   0.000000 -18.892607   0.000000   0.000000
    3  NE 1  S    0.000000   0.000000  -5.393831   0.000000   0.000000
    4  NE 1  S    0.000000   0.000000   3.013078   0.000000   0.000000
    5  NE 1  S    0.000000   0.000000   0.358780   0.000000   0.000000
    6  NE 1  S    0.000000   0.000000  -0.662142   0.000000   0.000000
    7  NE 1  S    0.000000   0.000000   0.218115   0.000000   0.000000
    8  NE 1  S    0.000000   0.000000  -0.073693   0.000000   0.000000
    9  NE 1  S    0.000000   0.000000   0.014168   0.000000   0.000000
   10  NE 1  S    0.000000   0.000000  25.697039   0.000000   0.000000
   11  NE 1  S    0.000000   0.000000   8.235942   0.000000   0.000000
   12  NE 1  S    0.000000   0.000000  -5.454736   0.000000   0.000000
   13  NE 1  S    0.000000   0.000000   1.468294   0.000000   0.000000
   14  NE 1  X    0.000000   0.000000   0.000000   7.519582   0.000000
   15  NE 1  Y    5.542426   0.000000   0.000000   0.000000   7.519582
   16  NE 1  Z    0.000000   5.542426   0.000000   0.000000   0.000000
   17  NE 1  X    0.000000   0.000000   0.000000 106.417252   0.000000
   18  NE 1  Y   52.869075   0.000000   0.000000   0.000000 106.417252
   19  NE 1  Z    0.000000  52.869075   0.000000   0.000000   0.000000
   20  NE 1  X    0.000000   0.000000   0.000000 -27.504337   0.000000
   21  NE 1  Y  -13.334048   0.000000   0.000000   0.000000 -27.504337
   22  NE 1  Z    0.000000 -13.334048   0.000000   0.000000   0.000000
   23  NE 1  X    0.000000   0.000000   0.000000  -9.392341   0.000000
   24  NE 1  Y   -4.645842   0.000000   0.000000   0.000000  -9.392341
   25  NE 1  Z    0.000000  -4.645842   0.000000   0.000000   0.000000
   26  NE 1  X    0.000000   0.000000   0.000000  -5.629817   0.000000
   27  NE 1  Y   -2.859385   0.000000   0.000000   0.000000  -5.629817
   28  NE 1  Z    0.000000  -2.859385   0.000000   0.000000   0.000000
   29  NE 1  X    0.000000   0.000000   0.000000   5.007389   0.000000
   30  NE 1  Y    2.404886   0.000000   0.000000   0.000000   5.007389
   31  NE 1  Z    0.000000   2.404886   0.000000   0.000000   0.000000
   32  NE 1  X    0.000000   0.000000   0.000000  -0.263157   0.000000
   33  NE 1  Y   -0.167560   0.000000   0.000000   0.000000  -0.263157
   34  NE 1  Z    0.000000  -0.167560   0.000000   0.000000   0.000000
   35  NE 1  X    0.000000   0.000000   0.000000   0.081187   0.000000
   36  NE 1  Y    0.019364   0.000000   0.000000   0.000000   0.081187
   37  NE 1  Z    0.000000   0.019364   0.000000   0.000000   0.000000
   38  NE 1  X    0.000000   0.000000   0.000000  -0.007490   0.000000
   39  NE 1  Y   -0.006421   0.000000   0.000000   0.000000  -0.007490
   40  NE 1  Z    0.000000  -0.006421   0.000000   0.000000   0.000000
   41  NE 1  X    0.000000   0.000000   0.000000-103.294496   0.000000
   42  NE 1  Y  -52.237211   0.000000   0.000000   0.000000-103.294496
   43  NE 1  Z    0.000000 -52.237211   0.000000   0.000000   0.000000
   44  NE 1  X    0.000000   0.000000   0.000000  24.714150   0.000000
   45  NE 1  Y   11.924483   0.000000   0.000000   0.000000  24.714150
   46  NE 1  Z    0.000000  11.924483   0.000000   0.000000   0.000000
   47  NE 1  X    0.000000   0.000000   0.000000   9.503922   0.000000
   48  NE 1  Y    4.673488   0.000000   0.000000   0.000000   9.503922
   49  NE 1  Z    0.000000   4.673488   0.000000   0.000000   0.000000
   50  NE 1  X    0.000000   0.000000   0.000000  -7.131222   0.000000
   51  NE 1  Y   -3.513836   0.000000   0.000000   0.000000  -7.131222
   52  NE 1  Z    0.000000  -3.513836   0.000000   0.000000   0.000000
   53  NE 1 XX    0.000000   0.000000   0.000000   0.000000   0.000000
   54  NE 1 YY    0.000000   0.000000   0.000000   0.000000   0.000000
   55  NE 1 ZZ    0.000000   0.000000   0.000000   0.000000   0.000000
   56  NE 1 XY    0.000000   0.000000   0.000000   0.000000   0.000000
   57  NE 1 XZ    0.000000   0.000000   0.000000   0.000000   0.000000
   58  NE 1 YZ    0.000000   0.000000   0.000000   0.000000   0.000000
   59  NE 1 XX    0.000000   0.000000   0.000000   0.000000   0.000000
   60  NE 1 YY    0.000000   0.000000   0.000000   0.000000   0.000000
   61  NE 1 ZZ    0.000000   0.000000   0.000000   0.000000   0.000000
   62  NE 1 XY    0.000000   0.000000   0.000000   0.000000   0.000000
   63  NE 1 XZ    0.000000   0.000000   0.000000   0.000000   0.000000
   64  NE 1 YZ    0.000000   0.000000   0.000000   0.000000   0.000000
   65  NE 1 XX    0.000000   0.000000   0.000000   0.000000   0.000000
   66  NE 1 YY    0.000000   0.000000   0.000000   0.000000   0.000000
   67  NE 1 ZZ    0.000000   0.000000   0.000000   0.000000   0.000000
   68  NE 1 XY    0.000000   0.000000   0.000000   0.000000   0.000000
   69  NE 1 XZ    0.000000   0.000000   0.000000   0.000000   0.000000
   70  NE 1 YZ    0.000000   0.000000   0.000000   0.000000   0.000000
   71  NE 1 XX    0.000000   0.000000   0.000000   0.000000   0.000000
   72  NE 1 YY    0.000000   0.000000   0.000000   0.000000   0.000000
   73  NE 1 ZZ    0.000000   0.000000   0.000000   0.000000   0.000000
   74  NE 1 XY    0.000000   0.000000   0.000000   0.000000   0.000000
   75  NE 1 XZ    0.000000   0.000000   0.000000   0.000000   0.000000
   76  NE 1 YZ    0.000000   0.000000   0.000000   0.000000   0.000000
   77  NE 1 XXX   0.000000   0.000000   0.000000   0.000000   0.000000
   78  NE 1 YYY   0.000000   0.000000   0.000000   0.000000   0.000000
   79  NE 1 ZZZ   0.000000   0.000000   0.000000   0.000000   0.000000
   80  NE 1 XXY   0.000000   0.000000   0.000000   0.000000   0.000000
   81  NE 1 XXZ   0.000000   0.000000   0.000000   0.000000   0.000000
   82  NE 1 YYX   0.000000   0.000000   0.000000   0.000000   0.000000
   83  NE 1 YYZ   0.000000   0.000000   0.000000   0.000000   0.000000
   84  NE 1 ZZX   0.000000   0.000000   0.000000   0.000000   0.000000
   85  NE 1 ZZY   0.000000   0.000000   0.000000   0.000000   0.000000
   86  NE 1 XYZ   0.000000   0.000000   0.000000   0.000000   0.000000
   87  NE 1 XXX   0.000000   0.000000   0.000000  -0.000000   0.000000
   88  NE 1 YYY   0.000000   0.000000   0.000000   0.000000  -0.000000
   89  NE 1 ZZZ   0.000000   0.000000   0.000000   0.000000   0.000000
   90  NE 1 XXY  -0.000000   0.000000   0.000000   0.000000   0.000000
   91  NE 1 XXZ   0.000000  -0.000000   0.000000   0.000000   0.000000
   92  NE 1 YYX   0.000000   0.000000   0.000000   0.000000   0.000000
   93  NE 1 YYZ   0.000000  -0.000000   0.000000   0.000000   0.000000
   94  NE 1 ZZX   0.000000   0.000000   0.000000   0.000000   0.000000
   95  NE 1 ZZY   0.000000   0.000000   0.000000   0.000000   0.000000
   96  NE 1 XYZ   0.000000   0.000000   0.000000   0.000000   0.000000
   97  NE 1 XXX   0.000000   0.000000   0.000000   0.000000   0.000000
   98  NE 1 YYY  -0.000000   0.000000   0.000000   0.000000   0.000000
   99  NE 1 ZZZ   0.000000  -0.000000   0.000000   0.000000   0.000000
  100  NE 1 XXY   0.000000   0.000000   0.000000   0.000000  -0.000000
  101  NE 1 XXZ   0.000000   0.000000   0.000000   0.000000   0.000000
  102  NE 1 YYX   0.000000   0.000000   0.000000  -0.000000   0.000000
  103  NE 1 YYZ   0.000000   0.000000   0.000000   0.000000   0.000000
  104  NE 1 ZZX   0.000000   0.000000   0.000000  -0.000000   0.000000
  105  NE 1 ZZY   0.000000   0.000000   0.000000   0.000000  -0.000000
  106  NE 1 XYZ   0.000000   0.000000   0.000000   0.000000   0.000000
  107  NE 1XXXX   0.000000   0.000000   0.000000   0.000000   0.000000
  108  NE 1YYYY   0.000000   0.000000   0.000000   0.000000   0.000000
  109  NE 1ZZZZ   0.000000   0.000000   0.000000   0.000000   0.000000
  110  NE 1XXXY   0.000000   0.000000   0.000000   0.000000   0.000000
  111  NE 1XXXZ   0.000000   0.000000   0.000000   0.000000   0.000000
  112  NE 1YYYX   0.000000   0.000000   0.000000   0.000000   0.000000
  113  NE 1YYYZ   0.000000   0.000000   0.000000   0.000000   0.000000
  114  NE 1ZZZX   0.000000   0.000000   0.000000   0.000000   0.000000
  115  NE 1ZZZY   0.000000   0.000000   0.000000   0.000000   0.000000
  116  NE 1XXYY   0.000000   0.000000   0.000000   0.000000   0.000000
  117  NE 1XXZZ   0.000000   0.000000   0.000000   0.000000   0.000000
  118  NE 1YYZZ   0.000000   0.000000   0.000000   0.000000   0.000000
  119  NE 1XXYZ   0.000000   0.000000   0.000000   0.000000   0.000000
  120  NE 1YYXZ   0.000000   0.000000   0.000000   0.000000   0.000000
  121  NE 1ZZXY   0.000000   0.000000   0.000000   0.000000   0.000000
  122  NE 1XXXX   0.000000   0.000000   0.000000   0.000000   0.000000
  123  NE 1YYYY   0.000000   0.000000   0.000000   0.000000   0.000000
  124  NE 1ZZZZ   0.000000   0.000000   0.000000   0.000000   0.000000
  125  NE 1XXXY   0.000000   0.000000   0.000000   0.000000   0.000000
  126  NE 1XXXZ   0.000000   0.000000   0.000000   0.000000   0.000000
  127  NE 1YYYX   0.000000   0.000000   0.000000   0.000000   0.000000
  128  NE 1YYYZ   0.000000   0.000000   0.000000   0.000000   0.000000
  129  NE 1ZZZX   0.000000   0.000000   0.000000   0.000000   0.000000
  130  NE 1ZZZY   0.000000   0.000000   0.000000   0.000000   0.000000
  131  NE 1XXYY   0.000000   0.000000   0.000000   0.000000   0.000000
  132  NE 1XXZZ   0.000000   0.000000   0.000000   0.000000   0.000000
  133  NE 1YYZZ   0.000000   0.000000   0.000000   0.000000   0.000000
  134  NE 1XXYZ   0.000000   0.000000   0.000000   0.000000   0.000000
  135  NE 1YYXZ   0.000000   0.000000   0.000000   0.000000   0.000000
  136  NE 1ZZXY   0.000000   0.000000   0.000000   0.000000   0.000000

                     11         12         13         14         15
                    0.6382     1.1145     1.4078     1.4078     1.4078
                     A          A          A          A          A   
    1  NE 1  S    0.000000 -13.899640   0.000000   0.000000   0.000000
    2  NE 1  S    0.000000 -44.820983   0.000000   0.000000   0.000000
    3  NE 1  S    0.000000 -12.017899   0.000000   0.000000   0.000000
    4  NE 1  S    0.000000   6.427641   0.000000   0.000000   0.000000
    5  NE 1  S    0.000000   0.760657   0.000000   0.000000   0.000000
    6  NE 1  S    0.000000  -1.484557   0.000000   0.000000   0.000000
    7  NE 1  S    0.000000   0.590550   0.000000   0.000000   0.000000
    8  NE 1  S    0.000000  -0.173021   0.000000   0.000000   0.000000
    9  NE 1  S    0.000000   0.031632   0.000000   0.000000   0.000000
   10  NE 1  S    0.000000  55.192599   0.000000   0.000000   0.000000
   11  NE 1  S    0.000000  18.559210   0.000000   0.000000   0.000000
   12  NE 1  S    0.000000 -12.545799   0.000000   0.000000   0.000000
   13  NE 1  S    0.000000   3.253644   0.000000   0.000000   0.000000
   14  NE 1  X    0.000000   0.000000   7.553699   0.000000   0.000000
   15  NE 1  Y    0.000000   0.000000   0.000000   7.553699   0.000000
   16  NE 1  Z    7.519582   0.000000   0.000000   0.000000   7.553699
   17  NE 1  X    0.000000   0.000000 160.085862   0.000000   0.000000
   18  NE 1  Y    0.000000   0.000000   0.000000 160.085862   0.000000
   19  NE 1  Z  106.417252   0.000000   0.000000   0.000000 160.085862
   20  NE 1  X    0.000000   0.000000 -48.980222   0.000000   0.000000
   21  NE 1  Y    0.000000   0.000000   0.000000 -48.980222   0.000000
   22  NE 1  Z  -27.504337   0.000000   0.000000   0.000000 -48.980222
   23  NE 1  X    0.000000   0.000000 -17.122278   0.000000   0.000000
   24  NE 1  Y    0.000000   0.000000   0.000000 -17.122278   0.000000
   25  NE 1  Z   -9.392341   0.000000   0.000000   0.000000 -17.122278
   26  NE 1  X    0.000000   0.000000  -8.562321   0.000000   0.000000
   27  NE 1  Y    0.000000   0.000000   0.000000  -8.562321   0.000000
   28  NE 1  Z   -5.629817   0.000000   0.000000   0.000000  -8.562321
   29  NE 1  X    0.000000   0.000000   8.172462   0.000000   0.000000
   30  NE 1  Y    0.000000   0.000000   0.000000   8.172462   0.000000
   31  NE 1  Z    5.007389   0.000000   0.000000   0.000000   8.172462
   32  NE 1  X    0.000000   0.000000  -0.559642   0.000000   0.000000
   33  NE 1  Y    0.000000   0.000000   0.000000  -0.559642   0.000000
   34  NE 1  Z   -0.263157   0.000000   0.000000   0.000000  -0.559642
   35  NE 1  X    0.000000   0.000000   0.068990   0.000000   0.000000
   36  NE 1  Y    0.000000   0.000000   0.000000   0.068990   0.000000
   37  NE 1  Z    0.081187   0.000000   0.000000   0.000000   0.068990
   38  NE 1  X    0.000000   0.000000  -0.021112   0.000000   0.000000
   39  NE 1  Y    0.000000   0.000000   0.000000  -0.021112   0.000000
   40  NE 1  Z   -0.007490   0.000000   0.000000   0.000000  -0.021112
   41  NE 1  X    0.000000   0.000000-147.627624   0.000000   0.000000
   42  NE 1  Y    0.000000   0.000000   0.000000-147.627624   0.000000
   43  NE 1  Z -103.294496   0.000000   0.000000   0.000000-147.627624
   44  NE 1  X    0.000000   0.000000  44.031003   0.000000   0.000000
   45  NE 1  Y    0.000000   0.000000   0.000000  44.031003   0.000000
   46  NE 1  Z   24.714150   0.000000   0.000000   0.000000  44.031003
   47  NE 1  X    0.000000   0.000000  14.930444   0.000000   0.000000
   48  NE 1  Y    0.000000   0.000000   0.000000  14.930444   0.000000
   49  NE 1  Z    9.503922   0.000000   0.000000   0.000000  14.930444
   50  NE 1  X    0.000000   0.000000 -11.920674   0.000000   0.000000
   51  NE 1  Y    0.000000   0.000000   0.000000 -11.920674   0.000000
   52  NE 1  Z   -7.131222   0.000000   0.000000   0.000000 -11.920674
   53  NE 1 XX    0.000000   0.000000   0.000000   0.000000   0.000000
   54  NE 1 YY    0.000000   0.000000   0.000000   0.000000   0.000000
   55  NE 1 ZZ    0.000000   0.000000   0.000000   0.000000   0.000000
   56  NE 1 XY    0.000000   0.000000   0.000000   0.000000   0.000000
   57  NE 1 XZ    0.000000   0.000000   0.000000   0.000000   0.000000
   58  NE 1 YZ    0.000000   0.000000   0.000000   0.000000   0.000000
   59  NE 1 XX    0.000000   0.000000   0.000000   0.000000   0.000000
   60  NE 1 YY    0.000000   0.000000   0.000000   0.000000   0.000000
   61  NE 1 ZZ    0.000000   0.000000   0.000000   0.000000   0.000000
   62  NE 1 XY    0.000000   0.000000   0.000000   0.000000   0.000000
   63  NE 1 XZ    0.000000   0.000000   0.000000   0.000000   0.000000
   64  NE 1 YZ    0.000000   0.000000   0.000000   0.000000   0.000000
   65  NE 1 XX    0.000000   0.000000   0.000000   0.000000   0.000000
   66  NE 1 YY    0.000000   0.000000   0.000000   0.000000   0.000000
   67  NE 1 ZZ    0.000000   0.000000   0.000000   0.000000   0.000000
   68  NE 1 XY    0.000000   0.000000   0.000000   0.000000   0.000000
   69  NE 1 XZ    0.000000   0.000000   0.000000   0.000000   0.000000
   70  NE 1 YZ    0.000000   0.000000   0.000000   0.000000   0.000000
   71  NE 1 XX    0.000000   0.000000   0.000000   0.000000   0.000000
   72  NE 1 YY    0.000000   0.000000   0.000000   0.000000   0.000000
   73  NE 1 ZZ    0.000000   0.000000   0.000000   0.000000   0.000000
   74  NE 1 XY    0.000000   0.000000   0.000000   0.000000   0.000000
   75  NE 1 XZ    0.000000   0.000000   0.000000   0.000000   0.000000
   76  NE 1 YZ    0.000000   0.000000   0.000000   0.000000   0.000000
   77  NE 1 XXX   0.000000   0.000000   0.000000   0.000000   0.000000
   78  NE 1 YYY   0.000000   0.000000   0.000000   0.000000   0.000000
   79  NE 1 ZZZ   0.000000   0.000000   0.000000   0.000000   0.000000
   80  NE 1 XXY   0.000000   0.000000   0.000000   0.000000   0.000000
   81  NE 1 XXZ   0.000000   0.000000   0.000000   0.000000   0.000000
   82  NE 1 YYX   0.000000   0.000000   0.000000   0.000000   0.000000
   83  NE 1 YYZ   0.000000   0.000000   0.000000   0.000000   0.000000
   84  NE 1 ZZX   0.000000   0.000000   0.000000   0.000000   0.000000
   85  NE 1 ZZY   0.000000   0.000000   0.000000   0.000000   0.000000
   86  NE 1 XYZ   0.000000   0.000000   0.000000   0.000000   0.000000
   87  NE 1 XXX   0.000000   0.000000   0.000000   0.000000   0.000000
   88  NE 1 YYY   0.000000   0.000000   0.000000   0.000000   0.000000
   89  NE 1 ZZZ  -0.000000   0.000000   0.000000   0.000000   0.000000
   90  NE 1 XXY   0.000000   0.000000   0.000000   0.000000   0.000000
   91  NE 1 XXZ   0.000000   0.000000   0.000000   0.000000   0.000000
   92  NE 1 YYX   0.000000   0.000000   0.000000   0.000000   0.000000
   93  NE 1 YYZ   0.000000   0.000000   0.000000   0.000000   0.000000
   94  NE 1 ZZX   0.000000   0.000000   0.000000   0.000000   0.000000
   95  NE 1 ZZY   0.000000   0.000000   0.000000   0.000000   0.000000
   96  NE 1 XYZ   0.000000   0.000000   0.000000   0.000000   0.000000
   97  NE 1 XXX   0.000000   0.000000   0.000000   0.000000   0.000000
   98  NE 1 YYY   0.000000   0.000000   0.000000   0.000000   0.000000
   99  NE 1 ZZZ   0.000000   0.000000   0.000000   0.000000   0.000000
  100  NE 1 XXY   0.000000   0.000000   0.000000   0.000000   0.000000
  101  NE 1 XXZ  -0.000000   0.000000   0.000000   0.000000   0.000000
  102  NE 1 YYX   0.000000   0.000000   0.000000   0.000000   0.000000
  103  NE 1 YYZ  -0.000000   0.000000   0.000000   0.000000   0.000000
  104  NE 1 ZZX   0.000000   0.000000   0.000000   0.000000   0.000000
  105  NE 1 ZZY   0.000000   0.000000   0.000000   0.000000   0.000000
  106  NE 1 XYZ   0.000000   0.000000   0.000000   0.000000   0.000000
  107  NE 1XXXX   0.000000   0.000000   0.000000   0.000000   0.000000
  108  NE 1YYYY   0.000000   0.000000   0.000000   0.000000   0.000000
  109  NE 1ZZZZ   0.000000   0.000000   0.000000   0.000000   0.000000
  110  NE 1XXXY   0.000000   0.000000   0.000000   0.000000   0.000000
  111  NE 1XXXZ   0.000000   0.000000   0.000000   0.000000   0.000000
  112  NE 1YYYX   0.000000   0.000000   0.000000   0.000000   0.000000
  113  NE 1YYYZ   0.000000   0.000000   0.000000   0.000000   0.000000
  114  NE 1ZZZX   0.000000   0.000000   0.000000   0.000000   0.000000
  115  NE 1ZZZY   0.000000   0.000000   0.000000   0.000000   0.000000
  116  NE 1XXYY   0.000000   0.000000   0.000000   0.000000   0.000000
  117  NE 1XXZZ   0.000000   0.000000   0.000000   0.000000   0.000000
  118  NE 1YYZZ   0.000000   0.000000   0.000000   0.000000   0.000000
  119  NE 1XXYZ   0.000000   0.000000   0.000000   0.000000   0.000000
  120  NE 1YYXZ   0.000000   0.000000   0.000000   0.000000   0.000000
  121  NE 1ZZXY   0.000000   0.000000   0.000000   0.000000   0.000000
  122  NE 1XXXX   0.000000   0.000000   0.000000   0.000000   0.000000
  123  NE 1YYYY   0.000000   0.000000   0.000000   0.000000   0.000000
  124  NE 1ZZZZ   0.000000   0.000000   0.000000   0.000000   0.000000
  125  NE 1XXXY   0.000000   0.000000   0.000000   0.000000   0.000000
  126  NE 1XXXZ   0.000000   0.000000   0.000000   0.000000   0.000000
  127  NE 1YYYX   0.000000   0.000000   0.000000   0.000000   0.000000
  128  NE 1YYYZ   0.000000   0.000000   0.000000   0.000000   0.000000
  129  NE 1ZZZX   0.000000   0.000000   0.000000   0.000000   0.000000
  130  NE 1ZZZY   0.000000   0.000000   0.000000   0.000000   0.000000
  131  NE 1XXYY   0.000000   0.000000   0.000000   0.000000   0.000000
  132  NE 1XXZZ   0.000000   0.000000   0.000000   0.000000   0.000000
  133  NE 1YYZZ   0.000000   0.000000   0.000000   0.000000   0.000000
  134  NE 1XXYZ   0.000000   0.000000   0.000000   0.000000   0.000000
  135  NE 1YYXZ   0.000000   0.000000   0.000000   0.000000   0.000000
  136  NE 1ZZXY   0.000000   0.000000   0.000000   0.000000   0.000000

                     16         17         18         19         20
                    1.7713     1.7713     1.7713     1.7713     1.7713
                     A          A          A          A          A   
    1  NE 1  S    0.000000   0.000000   0.000000   0.000000   0.000000
    2  NE 1  S    0.000000   0.000000   0.000000   0.000000   0.000000
    3  NE 1  S    0.000000   0.000000   0.000000   0.000000   0.000000
    4  NE 1  S    0.000000   0.000000   0.000000   0.000000   0.000000
    5  NE 1  S    0.000000   0.000000   0.000000   0.000000   0.000000
    6  NE 1  S    0.000000   0.000000   0.000000   0.000000   0.000000
    7  NE 1  S    0.000000   0.000000   0.000000   0.000000   0.000000
    8  NE 1  S    0.000000   0.000000   0.000000   0.000000   0.000000
    9  NE 1  S    0.000000   0.000000   0.000000   0.000000   0.000000
   10  NE 1  S    0.000000   0.000000   0.000000   0.000000   0.000000
   11  NE 1  S    0.000000   0.000000   0.000000   0.000000   0.000000
   12  NE 1  S    0.000000   0.000000   0.000000   0.000000   0.000000
   13  NE 1  S    0.000000   0.000000   0.000000   0.000000   0.000000
   14  NE 1  X    0.000000   0.000000   0.000000   0.000000   0.000000
   15  NE 1  Y    0.000000   0.000000   0.000000   0.000000   0.000000
   16  NE 1  Z    0.000000   0.000000   0.000000   0.000000   0.000000
   17  NE 1  X    0.000000   0.000000   0.000000   0.000000   0.000000
   18  NE 1  Y    0.000000   0.000000   0.000000   0.000000   0.000000
   19  NE 1  Z    0.000000   0.000000   0.000000   0.000000   0.000000
   20  NE 1  X    0.000000   0.000000   0.000000   0.000000   0.000000
   21  NE 1  Y    0.000000   0.000000   0.000000   0.000000   0.000000
   22  NE 1  Z    0.000000   0.000000   0.000000   0.000000   0.000000
   23  NE 1  X    0.000000   0.000000   0.000000   0.000000   0.000000
   24  NE 1  Y    0.000000   0.000000   0.000000   0.000000   0.000000
   25  NE 1  Z    0.000000   0.000000   0.000000   0.000000   0.000000
   26  NE 1  X    0.000000   0.000000   0.000000   0.000000   0.000000
   27  NE 1  Y    0.000000   0.000000   0.000000   0.000000   0.000000
   28  NE 1  Z    0.000000   0.000000   0.000000   0.000000   0.000000
   29  NE 1  X    0.000000   0.000000   0.000000   0.000000   0.000000
   30  NE 1  Y    0.000000   0.000000   0.000000   0.000000   0.000000
   31  NE 1  Z    0.000000   0.000000   0.000000   0.000000   0.000000
   32  NE 1  X    0.000000   0.000000   0.000000   0.000000   0.000000
   33  NE 1  Y    0.000000   0.000000   0.000000   0.000000   0.000000
   34  NE 1  Z    0.000000   0.000000   0.000000   0.000000   0.000000
   35  NE 1  X    0.000000   0.000000   0.000000   0.000000   0.000000
   36  NE 1  Y    0.000000   0.000000   0.000000   0.000000   0.000000
   37  NE 1  Z    0.000000   0.000000   0.000000   0.000000   0.000000
   38  NE 1  X    0.000000   0.000000   0.000000   0.000000   0.000000
   39  NE 1  Y    0.000000   0.000000   0.000000   0.000000   0.000000
   40  NE 1  Z    0.000000   0.000000   0.000000   0.000000   0.000000
   41  NE 1  X    0.000000   0.000000   0.000000   0.000000   0.000000
   42  NE 1  Y    0.000000   0.000000   0.000000   0.000000   0.000000
   43  NE 1  Z    0.000000   0.000000   0.000000   0.000000   0.000000
   44  NE 1  X    0.000000   0.000000   0.000000   0.000000   0.000000
   45  NE 1  Y    0.000000   0.000000   0.000000   0.000000   0.000000
   46  NE 1  Z    0.000000   0.000000   0.000000   0.000000   0.000000
   47  NE 1  X    0.000000   0.000000   0.000000   0.000000   0.000000
   48  NE 1  Y    0.000000   0.000000   0.000000   0.000000   0.000000
   49  NE 1  Z    0.000000   0.000000   0.000000   0.000000   0.000000
   50  NE 1  X    0.000000   0.000000   0.000000   0.000000   0.000000
   51  NE 1  Y    0.000000   0.000000   0.000000   0.000000   0.000000
   52  NE 1  Z    0.000000   0.000000   0.000000   0.000000   0.000000
   53  NE 1 XX    0.000000   0.000000   0.000000  -0.542159   0.939047
   54  NE 1 YY    0.000000   0.000000   0.000000  -0.542159  -0.939047
   55  NE 1 ZZ    0.000000   0.000000   0.000000   1.084318   0.000000
   56  NE 1 XY    0.000000   1.084318   0.000000   0.000000   0.000000
   57  NE 1 XZ    1.084318   0.000000   0.000000   0.000000   0.000000
   58  NE 1 YZ    0.000000   0.000000   1.084318   0.000000   0.000000
   59  NE 1 XX    0.000000   0.000000   0.000000   0.093143  -0.161328
   60  NE 1 YY    0.000000   0.000000   0.000000   0.093143   0.161328
   61  NE 1 ZZ    0.000000   0.000000   0.000000  -0.186285   0.000000
   62  NE 1 XY    0.000000  -0.186285   0.000000   0.000000   0.000000
   63  NE 1 XZ   -0.186285   0.000000   0.000000   0.000000   0.000000
   64  NE 1 YZ    0.000000   0.000000  -0.186285   0.000000   0.000000
   65  NE 1 XX    0.000000   0.000000   0.000000  -0.090228   0.156280
   66  NE 1 YY    0.000000   0.000000   0.000000  -0.090228  -0.156280
   67  NE 1 ZZ    0.000000   0.000000   0.000000   0.180456   0.000000
   68  NE 1 XY    0.000000   0.180456   0.000000   0.000000   0.000000
   69  NE 1 XZ    0.180456   0.000000   0.000000   0.000000   0.000000
   70  NE 1 YZ    0.000000   0.000000   0.180456   0.000000   0.000000
   71  NE 1 XX    0.000000   0.000000   0.000000   0.043957  -0.076136
   72  NE 1 YY    0.000000   0.000000   0.000000   0.043957   0.076136
   73  NE 1 ZZ    0.000000   0.000000   0.000000  -0.087914   0.000000
   74  NE 1 XY    0.000000  -0.087914   0.000000   0.000000   0.000000
   75  NE 1 XZ   -0.087914   0.000000   0.000000   0.000000   0.000000
   76  NE 1 YZ    0.000000   0.000000  -0.087914   0.000000   0.000000
   77  NE 1 XXX   0.000000   0.000000   0.000000   0.000000   0.000000
   78  NE 1 YYY   0.000000   0.000000   0.000000   0.000000   0.000000
   79  NE 1 ZZZ   0.000000   0.000000   0.000000   0.000000   0.000000
   80  NE 1 XXY   0.000000   0.000000   0.000000   0.000000   0.000000
   81  NE 1 XXZ   0.000000   0.000000   0.000000   0.000000   0.000000
   82  NE 1 YYX   0.000000   0.000000   0.000000   0.000000   0.000000
   83  NE 1 YYZ   0.000000   0.000000   0.000000   0.000000   0.000000
   84  NE 1 ZZX   0.000000   0.000000   0.000000   0.000000   0.000000
   85  NE 1 ZZY   0.000000   0.000000   0.000000   0.000000   0.000000
   86  NE 1 XYZ   0.000000   0.000000   0.000000   0.000000   0.000000
   87  NE 1 XXX   0.000000   0.000000   0.000000   0.000000   0.000000
   88  NE 1 YYY   0.000000   0.000000   0.000000   0.000000   0.000000
   89  NE 1 ZZZ   0.000000   0.000000   0.000000   0.000000   0.000000
   90  NE 1 XXY   0.000000   0.000000   0.000000   0.000000   0.000000
   91  NE 1 XXZ   0.000000   0.000000   0.000000   0.000000   0.000000
   92  NE 1 YYX   0.000000   0.000000   0.000000   0.000000   0.000000
   93  NE 1 YYZ   0.000000   0.000000   0.000000   0.000000   0.000000
   94  NE 1 ZZX   0.000000   0.000000   0.000000   0.000000   0.000000
   95  NE 1 ZZY   0.000000   0.000000   0.000000   0.000000   0.000000
   96  NE 1 XYZ   0.000000   0.000000   0.000000   0.000000   0.000000
   97  NE 1 XXX   0.000000   0.000000   0.000000   0.000000   0.000000
   98  NE 1 YYY   0.000000   0.000000   0.000000   0.000000   0.000000
   99  NE 1 ZZZ   0.000000   0.000000   0.000000   0.000000   0.000000
  100  NE 1 XXY   0.000000   0.000000   0.000000   0.000000   0.000000
  101  NE 1 XXZ   0.000000   0.000000   0.000000   0.000000   0.000000
  102  NE 1 YYX   0.000000   0.000000   0.000000   0.000000   0.000000
  103  NE 1 YYZ   0.000000   0.000000   0.000000   0.000000   0.000000
  104  NE 1 ZZX   0.000000   0.000000   0.000000   0.000000   0.000000
  105  NE 1 ZZY   0.000000   0.000000   0.000000   0.000000   0.000000
  106  NE 1 XYZ   0.000000   0.000000   0.000000   0.000000   0.000000
  107  NE 1XXXX   0.000000   0.000000   0.000000   0.000000   0.000000
  108  NE 1YYYY   0.000000   0.000000   0.000000   0.000000   0.000000
  109  NE 1ZZZZ   0.000000   0.000000   0.000000   0.000000   0.000000
  110  NE 1XXXY   0.000000   0.000000   0.000000   0.000000   0.000000
  111  NE 1XXXZ   0.000000   0.000000   0.000000   0.000000   0.000000
  112  NE 1YYYX   0.000000   0.000000   0.000000   0.000000   0.000000
  113  NE 1YYYZ   0.000000   0.000000   0.000000   0.000000   0.000000
  114  NE 1ZZZX   0.000000   0.000000   0.000000   0.000000   0.000000
  115  NE 1ZZZY   0.000000   0.000000   0.000000   0.000000   0.000000
  116  NE 1XXYY   0.000000   0.000000   0.000000   0.000000   0.000000
  117  NE 1XXZZ   0.000000   0.000000   0.000000   0.000000   0.000000
  118  NE 1YYZZ   0.000000   0.000000   0.000000   0.000000   0.000000
  119  NE 1XXYZ   0.000000   0.000000   0.000000   0.000000   0.000000
  120  NE 1YYXZ   0.000000   0.000000   0.000000   0.000000   0.000000
  121  NE 1ZZXY   0.000000   0.000000   0.000000   0.000000   0.000000
  122  NE 1XXXX   0.000000   0.000000   0.000000   0.000000   0.000000
  123  NE 1YYYY   0.000000   0.000000   0.000000   0.000000   0.000000
  124  NE 1ZZZZ   0.000000   0.000000   0.000000   0.000000   0.000000
  125  NE 1XXXY   0.000000   0.000000   0.000000   0.000000   0.000000
  126  NE 1XXXZ   0.000000   0.000000   0.000000   0.000000   0.000000
  127  NE 1YYYX   0.000000   0.000000   0.000000   0.000000   0.000000
  128  NE 1YYYZ   0.000000   0.000000   0.000000   0.000000   0.000000
  129  NE 1ZZZX   0.000000   0.000000   0.000000   0.000000   0.000000
  130  NE 1ZZZY   0.000000   0.000000   0.000000   0.000000   0.000000
  131  NE 1XXYY   0.000000   0.000000   0.000000   0.000000   0.000000
  132  NE 1XXZZ   0.000000   0.000000   0.000000   0.000000   0.000000
  133  NE 1YYZZ   0.000000   0.000000   0.000000   0.000000   0.000000
  134  NE 1XXYZ   0.000000   0.000000   0.000000   0.000000   0.000000
  135  NE 1YYXZ   0.000000   0.000000   0.000000   0.000000   0.000000
  136  NE 1ZZXY   0.000000   0.000000   0.000000   0.000000   0.000000

                     21         22         23         24         25
                    2.6439     2.6439     2.6439     2.7728     4.6015
                     A          A          A          A          A   
    1  NE 1  S    0.000000   0.000000   0.000000 -14.186030   0.000000
    2  NE 1  S    0.000000   0.000000   0.000000 -73.240354   0.000000
    3  NE 1  S    0.000000   0.000000   0.000000 -14.009901   0.000000
    4  NE 1  S    0.000000   0.000000   0.000000   8.672948   0.000000
    5  NE 1  S    0.000000   0.000000   0.000000   1.891175   0.000000
    6  NE 1  S    0.000000   0.000000   0.000000  -2.744110   0.000000
    7  NE 1  S    0.000000   0.000000   0.000000   0.929410   0.000000
    8  NE 1  S    0.000000   0.000000   0.000000  -0.305679   0.000000
    9  NE 1  S    0.000000   0.000000   0.000000   0.057892   0.000000
   10  NE 1  S    0.000000   0.000000   0.000000  75.746463   0.000000
   11  NE 1  S    0.000000   0.000000   0.000000  31.824416   0.000000
   12  NE 1  S    0.000000   0.000000   0.000000 -20.312201   0.000000
   13  NE 1  S    0.000000   0.000000   0.000000   5.728624   0.000000
   14  NE 1  X    6.554220   0.000000   0.000000   0.000000   5.278438
   15  NE 1  Y    0.000000   0.000000   6.554220   0.000000   0.000000
   16  NE 1  Z    0.000000   6.554220   0.000000   0.000000   0.000000
   17  NE 1  X  186.118014   0.000000   0.000000   0.000000 178.570665
   18  NE 1  Y    0.000000   0.000000 186.118014   0.000000   0.000000
   19  NE 1  Z    0.000000 186.118014   0.000000   0.000000   0.000000
   20  NE 1  X  -80.817149   0.000000   0.000000   0.000000-108.445667
   21  NE 1  Y    0.000000   0.000000 -80.817149   0.000000   0.000000
   22  NE 1  Z    0.000000 -80.817149   0.000000   0.000000   0.000000
   23  NE 1  X  -30.108268   0.000000   0.000000   0.000000 -54.051006
   24  NE 1  Y    0.000000   0.000000 -30.108268   0.000000   0.000000
   25  NE 1  Z    0.000000 -30.108268   0.000000   0.000000   0.000000
   26  NE 1  X   -9.528342   0.000000   0.000000   0.000000  -7.821719
   27  NE 1  Y    0.000000   0.000000  -9.528342   0.000000   0.000000
   28  NE 1  Z    0.000000  -9.528342   0.000000   0.000000   0.000000
   29  NE 1  X   13.495192   0.000000   0.000000   0.000000  21.208683
   30  NE 1  Y    0.000000   0.000000  13.495192   0.000000   0.000000
   31  NE 1  Z    0.000000  13.495192   0.000000   0.000000   0.000000
   32  NE 1  X   -0.737911   0.000000   0.000000   0.000000  -1.414838
   33  NE 1  Y    0.000000   0.000000  -0.737911   0.000000   0.000000
   34  NE 1  Z    0.000000  -0.737911   0.000000   0.000000   0.000000
   35  NE 1  X    0.204062   0.000000   0.000000   0.000000   0.201314
   36  NE 1  Y    0.000000   0.000000   0.204062   0.000000   0.000000
   37  NE 1  Z    0.000000   0.204062   0.000000   0.000000   0.000000
   38  NE 1  X   -0.021762   0.000000   0.000000   0.000000  -0.051442
   39  NE 1  Y    0.000000   0.000000  -0.021762   0.000000   0.000000
   40  NE 1  Z    0.000000  -0.021762   0.000000   0.000000   0.000000
   41  NE 1  X -163.694919   0.000000   0.000000   0.000000-152.104917
   42  NE 1  Y    0.000000   0.000000-163.694919   0.000000   0.000000
   43  NE 1  Z    0.000000-163.694919   0.000000   0.000000   0.000000
   44  NE 1  X   77.174734   0.000000   0.000000   0.000000 122.905476
   45  NE 1  Y    0.000000   0.000000  77.174734   0.000000   0.000000
   46  NE 1  Z    0.000000  77.174734   0.000000   0.000000   0.000000
   47  NE 1  X   20.698242   0.000000   0.000000   0.000000  26.150290
   48  NE 1  Y    0.000000   0.000000  20.698242   0.000000   0.000000
   49  NE 1  Z    0.000000  20.698242   0.000000   0.000000   0.000000
   50  NE 1  X  -19.151442   0.000000   0.000000   0.000000 -30.551020
   51  NE 1  Y    0.000000   0.000000 -19.151442   0.000000   0.000000
   52  NE 1  Z    0.000000 -19.151442   0.000000   0.000000   0.000000
   53  NE 1 XX    0.000000   0.000000   0.000000   0.000000   0.000000
   54  NE 1 YY    0.000000   0.000000   0.000000   0.000000   0.000000
   55  NE 1 ZZ    0.000000   0.000000   0.000000   0.000000   0.000000
   56  NE 1 XY    0.000000   0.000000   0.000000   0.000000   0.000000
   57  NE 1 XZ    0.000000   0.000000   0.000000   0.000000   0.000000
   58  NE 1 YZ    0.000000   0.000000   0.000000   0.000000   0.000000
   59  NE 1 XX    0.000000   0.000000   0.000000   0.000000   0.000000
   60  NE 1 YY    0.000000   0.000000   0.000000   0.000000   0.000000
   61  NE 1 ZZ    0.000000   0.000000   0.000000   0.000000   0.000000
   62  NE 1 XY    0.000000   0.000000   0.000000   0.000000   0.000000
   63  NE 1 XZ    0.000000   0.000000   0.000000   0.000000   0.000000
   64  NE 1 YZ    0.000000   0.000000   0.000000   0.000000   0.000000
   65  NE 1 XX    0.000000   0.000000   0.000000   0.000000   0.000000
   66  NE 1 YY    0.000000   0.000000   0.000000   0.000000   0.000000
   67  NE 1 ZZ    0.000000   0.000000   0.000000   0.000000   0.000000
   68  NE 1 XY    0.000000   0.000000   0.000000   0.000000   0.000000
   69  NE 1 XZ    0.000000   0.000000   0.000000   0.000000   0.000000
   70  NE 1 YZ    0.000000   0.000000   0.000000   0.000000   0.000000
   71  NE 1 XX    0.000000   0.000000   0.000000   0.000000   0.000000
   72  NE 1 YY    0.000000   0.000000   0.000000   0.000000   0.000000
   73  NE 1 ZZ    0.000000   0.000000   0.000000   0.000000   0.000000
   74  NE 1 XY    0.000000   0.000000   0.000000   0.000000   0.000000
   75  NE 1 XZ    0.000000   0.000000   0.000000   0.000000   0.000000
   76  NE 1 YZ    0.000000   0.000000   0.000000   0.000000   0.000000
   77  NE 1 XXX   0.000000   0.000000   0.000000   0.000000  -0.000000
   78  NE 1 YYY   0.000000   0.000000   0.000000   0.000000   0.000000
   79  NE 1 ZZZ   0.000000   0.000000   0.000000   0.000000   0.000000
   80  NE 1 XXY   0.000000   0.000000   0.000000   0.000000   0.000000
   81  NE 1 XXZ   0.000000   0.000000   0.000000   0.000000   0.000000
   82  NE 1 YYX   0.000000   0.000000   0.000000   0.000000   0.000000
   83  NE 1 YYZ   0.000000   0.000000   0.000000   0.000000   0.000000
   84  NE 1 ZZX   0.000000   0.000000   0.000000   0.000000   0.000000
   85  NE 1 ZZY   0.000000   0.000000   0.000000   0.000000   0.000000
   86  NE 1 XYZ   0.000000   0.000000   0.000000   0.000000   0.000000
   87  NE 1 XXX   0.000000   0.000000   0.000000   0.000000   0.000000
   88  NE 1 YYY   0.000000   0.000000   0.000000   0.000000   0.000000
   89  NE 1 ZZZ   0.000000   0.000000   0.000000   0.000000   0.000000
   90  NE 1 XXY   0.000000   0.000000   0.000000   0.000000   0.000000
   91  NE 1 XXZ   0.000000   0.000000   0.000000   0.000000   0.000000
   92  NE 1 YYX   0.000000   0.000000   0.000000   0.000000   0.000000
   93  NE 1 YYZ   0.000000   0.000000   0.000000   0.000000   0.000000
   94  NE 1 ZZX   0.000000   0.000000   0.000000   0.000000   0.000000
   95  NE 1 ZZY   0.000000   0.000000   0.000000   0.000000   0.000000
   96  NE 1 XYZ   0.000000   0.000000   0.000000   0.000000   0.000000
   97  NE 1 XXX   0.000000   0.000000   0.000000   0.000000   0.000000
   98  NE 1 YYY   0.000000   0.000000   0.000000   0.000000   0.000000
   99  NE 1 ZZZ   0.000000   0.000000   0.000000   0.000000   0.000000
  100  NE 1 XXY   0.000000   0.000000   0.000000   0.000000   0.000000
  101  NE 1 XXZ   0.000000   0.000000   0.000000   0.000000   0.000000
  102  NE 1 YYX   0.000000   0.000000   0.000000   0.000000   0.000000
  103  NE 1 YYZ   0.000000   0.000000   0.000000   0.000000   0.000000
  104  NE 1 ZZX   0.000000   0.000000   0.000000   0.000000   0.000000
  105  NE 1 ZZY   0.000000   0.000000   0.000000   0.000000   0.000000
  106  NE 1 XYZ   0.000000   0.000000   0.000000   0.000000   0.000000
  107  NE 1XXXX   0.000000   0.000000   0.000000   0.000000   0.000000
  108  NE 1YYYY   0.000000   0.000000   0.000000   0.000000   0.000000
  109  NE 1ZZZZ   0.000000   0.000000   0.000000   0.000000   0.000000
  110  NE 1XXXY   0.000000   0.000000   0.000000   0.000000   0.000000
  111  NE 1XXXZ   0.000000   0.000000   0.000000   0.000000   0.000000
  112  NE 1YYYX   0.000000   0.000000   0.000000   0.000000   0.000000
  113  NE 1YYYZ   0.000000   0.000000   0.000000   0.000000   0.000000
  114  NE 1ZZZX   0.000000   0.000000   0.000000   0.000000   0.000000
  115  NE 1ZZZY   0.000000   0.000000   0.000000   0.000000   0.000000
  116  NE 1XXYY   0.000000   0.000000   0.000000   0.000000   0.000000
  117  NE 1XXZZ   0.000000   0.000000   0.000000   0.000000   0.000000
  118  NE 1YYZZ   0.000000   0.000000   0.000000   0.000000   0.000000
  119  NE 1XXYZ   0.000000   0.000000   0.000000   0.000000   0.000000
  120  NE 1YYXZ   0.000000   0.000000   0.000000   0.000000   0.000000
  121  NE 1ZZXY   0.000000   0.000000   0.000000   0.000000   0.000000
  122  NE 1XXXX   0.000000   0.000000   0.000000   0.000000   0.000000
  123  NE 1YYYY   0.000000   0.000000   0.000000   0.000000   0.000000
  124  NE 1ZZZZ   0.000000   0.000000   0.000000   0.000000   0.000000
  125  NE 1XXXY   0.000000   0.000000   0.000000   0.000000   0.000000
  126  NE 1XXXZ   0.000000   0.000000   0.000000   0.000000   0.000000
  127  NE 1YYYX   0.000000   0.000000   0.000000   0.000000   0.000000
  128  NE 1YYYZ   0.000000   0.000000   0.000000   0.000000   0.000000
  129  NE 1ZZZX   0.000000   0.000000   0.000000   0.000000   0.000000
  130  NE 1ZZZY   0.000000   0.000000   0.000000   0.000000   0.000000
  131  NE 1XXYY   0.000000   0.000000   0.000000   0.000000   0.000000
  132  NE 1XXZZ   0.000000   0.000000   0.000000   0.000000   0.000000
  133  NE 1YYZZ   0.000000   0.000000   0.000000   0.000000   0.000000
  134  NE 1XXYZ   0.000000   0.000000   0.000000   0.000000   0.000000
  135  NE 1YYXZ   0.000000   0.000000   0.000000   0.000000   0.000000
  136  NE 1ZZXY   0.000000   0.000000   0.000000   0.000000   0.000000

                     26         27         28         29         30
[...]
   21  NE 1  Y    0.000000   0.000000   0.000000  28.226664   0.000000
   22  NE 1  Z    0.000000  28.226664   0.000000   0.000000   0.000000
   23  NE 1  X    0.000000   0.000000  35.108071   0.000000   0.000000
   24  NE 1  Y    0.000000   0.000000   0.000000  35.108071   0.000000
   25  NE 1  Z    0.000000  35.108071   0.000000   0.000000   0.000000
   26  NE 1  X    0.000000   0.000000 -37.917822   0.000000   0.000000
   27  NE 1  Y    0.000000   0.000000   0.000000 -37.917822   0.000000
   28  NE 1  Z    0.000000 -37.917822   0.000000   0.000000   0.000000
   29  NE 1  X    0.000000   0.000000-110.750457   0.000000   0.000000
   30  NE 1  Y    0.000000   0.000000   0.000000-110.750457   0.000000
   31  NE 1  Z    0.000000-110.750457   0.000000   0.000000   0.000000
   32  NE 1  X    0.000000   0.000000  21.678223   0.000000   0.000000
   33  NE 1  Y    0.000000   0.000000   0.000000  21.678223   0.000000
   34  NE 1  Z    0.000000  21.678223   0.000000   0.000000   0.000000
   35  NE 1  X    0.000000   0.000000 -11.702618   0.000000   0.000000
   36  NE 1  Y    0.000000   0.000000   0.000000 -11.702618   0.000000
   37  NE 1  Z    0.000000 -11.702618   0.000000   0.000000   0.000000
   38  NE 1  X    0.000000   0.000000   4.501442   0.000000   0.000000
   39  NE 1  Y    0.000000   0.000000   0.000000   4.501442   0.000000
   40  NE 1  Z    0.000000   4.501442   0.000000   0.000000   0.000000
   41  NE 1  X    0.000000   0.000000  26.255648   0.000000   0.000000
   42  NE 1  Y    0.000000   0.000000   0.000000  26.255648   0.000000
   43  NE 1  Z    0.000000  26.255648   0.000000   0.000000   0.000000
   44  NE 1  X    0.000000   0.000000 -45.311138   0.000000   0.000000
   45  NE 1  Y    0.000000   0.000000   0.000000 -45.311138   0.000000
   46  NE 1  Z    0.000000 -45.311138   0.000000   0.000000   0.000000
   47  NE 1  X    0.000000   0.000000   3.886335   0.000000   0.000000
   48  NE 1  Y    0.000000   0.000000   0.000000   3.886335   0.000000
   49  NE 1  Z    0.000000   3.886335   0.000000   0.000000   0.000000
   50  NE 1  X    0.000000   0.000000 118.905699   0.000000   0.000000
   51  NE 1  Y    0.000000   0.000000   0.000000 118.905699   0.000000
   52  NE 1  Z    0.000000 118.905699   0.000000   0.000000   0.000000
   53  NE 1 XX    0.000000   0.000000   0.000000   0.000000   0.000000
   54  NE 1 YY    0.000000   0.000000   0.000000   0.000000   0.000000
   55  NE 1 ZZ    0.000000   0.000000   0.000000   0.000000   0.000000
   56  NE 1 XY    0.000000   0.000000   0.000000   0.000000   0.000000
   57  NE 1 XZ    0.000000   0.000000   0.000000   0.000000   0.000000
   58  NE 1 YZ    0.000000   0.000000   0.000000   0.000000   0.000000
   59  NE 1 XX    0.000000   0.000000   0.000000   0.000000   0.000000
   60  NE 1 YY    0.000000   0.000000   0.000000   0.000000   0.000000
   61  NE 1 ZZ    0.000000   0.000000   0.000000   0.000000   0.000000
   62  NE 1 XY    0.000000   0.000000   0.000000   0.000000   0.000000
   63  NE 1 XZ    0.000000   0.000000   0.000000   0.000000   0.000000
   64  NE 1 YZ    0.000000   0.000000   0.000000   0.000000   0.000000
   65  NE 1 XX    0.000000   0.000000   0.000000   0.000000   0.000000
   66  NE 1 YY    0.000000   0.000000   0.000000   0.000000   0.000000
   67  NE 1 ZZ    0.000000   0.000000   0.000000   0.000000   0.000000
   68  NE 1 XY    0.000000   0.000000   0.000000   0.000000   0.000000
   69  NE 1 XZ    0.000000   0.000000   0.000000   0.000000   0.000000
   70  NE 1 YZ    0.000000   0.000000   0.000000   0.000000   0.000000
   71  NE 1 XX    0.000000   0.000000   0.000000   0.000000   0.000000
   72  NE 1 YY    0.000000   0.000000   0.000000   0.000000   0.000000
   73  NE 1 ZZ    0.000000   0.000000   0.000000   0.000000   0.000000
   74  NE 1 XY    0.000000   0.000000   0.000000   0.000000   0.000000
   75  NE 1 XZ    0.000000   0.000000   0.000000   0.000000   0.000000
   76  NE 1 YZ    0.000000   0.000000   0.000000   0.000000   0.000000
   77  NE 1 XXX   0.000000   0.000000   0.000000   0.000000   0.000000
   78  NE 1 YYY   0.000000   0.000000   0.000000   0.000000   0.000000
   79  NE 1 ZZZ   0.000000   0.000000   0.000000   0.000000   0.000000
   80  NE 1 XXY   0.000000   0.000000   0.000000   0.000000   0.000000
   81  NE 1 XXZ   0.000000   0.000000   0.000000   0.000000   0.000000
   82  NE 1 YYX   0.000000   0.000000   0.000000   0.000000   0.000000
   83  NE 1 YYZ   0.000000   0.000000   0.000000   0.000000   0.000000
   84  NE 1 ZZX   0.000000   0.000000   0.000000   0.000000   0.000000
   85  NE 1 ZZY   0.000000   0.000000   0.000000   0.000000   0.000000
   86  NE 1 XYZ   0.000000   0.000000   0.000000   0.000000   0.000000
   87  NE 1 XXX   0.000000   0.000000   0.000000   0.000000   0.000000
   88  NE 1 YYY   0.000000   0.000000   0.000000   0.000000   0.000000
   89  NE 1 ZZZ   0.000000   0.000000   0.000000   0.000000   0.000000
   90  NE 1 XXY   0.000000   0.000000   0.000000   0.000000   0.000000
   91  NE 1 XXZ   0.000000   0.000000   0.000000   0.000000   0.000000
   92  NE 1 YYX   0.000000   0.000000   0.000000   0.000000   0.000000
   93  NE 1 YYZ   0.000000   0.000000   0.000000   0.000000   0.000000
   94  NE 1 ZZX   0.000000   0.000000   0.000000   0.000000   0.000000
   95  NE 1 ZZY   0.000000   0.000000   0.000000   0.000000   0.000000
   96  NE 1 XYZ   0.000000   0.000000   0.000000   0.000000   0.000000
   97  NE 1 XXX   0.000000   0.000000  -0.000000   0.000000   0.000000
   98  NE 1 YYY   0.000000   0.000000   0.000000   0.000000   0.000000
   99  NE 1 ZZZ   0.000000   0.000000   0.000000   0.000000   0.000000
  100  NE 1 XXY   0.000000   0.000000   0.000000   0.000000   0.000000
  101  NE 1 XXZ   0.000000   0.000000   0.000000   0.000000   0.000000
  102  NE 1 YYX   0.000000   0.000000   0.000000   0.000000   0.000000
  103  NE 1 YYZ   0.000000   0.000000   0.000000   0.000000   0.000000
  104  NE 1 ZZX   0.000000   0.000000   0.000000   0.000000   0.000000
  105  NE 1 ZZY   0.000000   0.000000   0.000000   0.000000   0.000000
  106  NE 1 XYZ   0.000000   0.000000   0.000000   0.000000   0.000000
  107  NE 1XXXX   0.000000   0.000000   0.000000   0.000000   0.000000
  108  NE 1YYYY   0.000000   0.000000   0.000000   0.000000   0.000000
  109  NE 1ZZZZ   0.000000   0.000000   0.000000   0.000000   0.000000
  110  NE 1XXXY   0.000000   0.000000   0.000000   0.000000   0.000000
  111  NE 1XXXZ   0.000000   0.000000   0.000000   0.000000   0.000000
  112  NE 1YYYX   0.000000   0.000000   0.000000   0.000000   0.000000
  113  NE 1YYYZ   0.000000   0.000000   0.000000   0.000000   0.000000
  114  NE 1ZZZX   0.000000   0.000000   0.000000   0.000000   0.000000
  115  NE 1ZZZY   0.000000   0.000000   0.000000   0.000000   0.000000
  116  NE 1XXYY   0.000000   0.000000   0.000000   0.000000   0.000000
  117  NE 1XXZZ   0.000000   0.000000   0.000000   0.000000   0.000000
  118  NE 1YYZZ   0.000000   0.000000   0.000000   0.000000   0.000000
  119  NE 1XXYZ   0.000000   0.000000   0.000000   0.000000   0.000000
  120  NE 1YYXZ   0.000000   0.000000   0.000000   0.000000   0.000000
  121  NE 1ZZXY   0.000000   0.000000   0.000000   0.000000   0.000000
  122  NE 1XXXX   0.000000   0.000000   0.000000   0.000000   0.000000
  123  NE 1YYYY   0.000000   0.000000   0.000000   0.000000   0.000000
  124  NE 1ZZZZ   0.000000   0.000000   0.000000   0.000000   0.000000
  125  NE 1XXXY   0.000000   0.000000   0.000000   0.000000   0.000000
  126  NE 1XXXZ   0.000000   0.000000   0.000000   0.000000   0.000000
  127  NE 1YYYX   0.000000   0.000000   0.000000   0.000000   0.000000
  128  NE 1YYYZ   0.000000   0.000000   0.000000   0.000000   0.000000
  129  NE 1ZZZX   0.000000   0.000000   0.000000   0.000000   0.000000
  130  NE 1ZZZY   0.000000   0.000000   0.000000   0.000000   0.000000
  131  NE 1XXYY   0.000000   0.000000   0.000000   0.000000   0.000000
  132  NE 1XXZZ   0.000000   0.000000   0.000000   0.000000   0.000000
  133  NE 1YYZZ   0.000000   0.000000   0.000000   0.000000   0.000000
  134  NE 1XXYZ   0.000000   0.000000   0.000000   0.000000   0.000000
  135  NE 1YYXZ   0.000000   0.000000   0.000000   0.000000   0.000000
  136  NE 1ZZXY   0.000000   0.000000   0.000000   0.000000   0.000000
 ...... END OF ROHF CALCULATION ......
 STEP CPU TIME =     2.77 TOTAL CPU TIME =        6.8 (    0.1 MIN)
 TOTAL WALL CLOCK TIME=        7.6 SECONDS, CPU UTILIZATION IS  89.20%

     ----------------------------------------------------------------
     PROPERTY VALUES FOR THE ROHF  SELF-CONSISTENT FIELD WAVEFUNCTION
     ----------------------------------------------------------------

          -----------------
          ENERGY COMPONENTS
          -----------------

         WAVEFUNCTION NORMALIZATION =       1.0000000000

                ONE ELECTRON ENERGY =     -60.5012605358
                TWO ELECTRON ENERGY =      25.7922009433
           NUCLEAR REPULSION ENERGY =       0.0000000000
                                      ------------------
                       TOTAL ENERGY =     -34.7090595925

 ELECTRON-ELECTRON POTENTIAL ENERGY =      25.7922009433
  NUCLEUS-ELECTRON POTENTIAL ENERGY =     -88.2408201354
   NUCLEUS-NUCLEUS POTENTIAL ENERGY =       0.0000000000
                                      ------------------
             TOTAL POTENTIAL ENERGY =     -62.4486191921
               TOTAL KINETIC ENERGY =      27.7395595996
                 VIRIAL RATIO (V/T) =       2.2512476800

          ---------------------------------------
          MULLIKEN AND LOWDIN POPULATION ANALYSES
          ---------------------------------------

     ATOMIC MULLIKEN POPULATION IN EACH MOLECULAR ORBITAL

                      1          2          3          4

                  2.000000   2.000000   2.000000   2.000000

    1             2.000000   2.000000   2.000000   2.000000

          MULLIKEN SPHERICAL HARMONIC POPULATIONS
       ATOM           S       P       D      F      G      H      I    TOTAL
    1 NE            1.00    3.00    0.00   0.00   0.00   0.00   0.00    4.00

          MULLIKEN SPHERICAL HARMONIC POPULATIONS
       ATOM           S       P       D      F      G      H      I    TOTAL
    1 NE            1.00    3.00    0.00   0.00   0.00   0.00   0.00    4.00

     ATOMIC SPIN POPULATION (ALPHA MINUS BETA)
       ATOM         MULL.POP.                    LOW.POP.
    1 NE            0.000000                     0.000000

               ----- POPULATIONS IN EACH AO -----
                             MULLIKEN      LOWDIN
              1  NE 1  S      0.09336     0.08396
              2  NE 1  S      0.45966     0.12359
              3  NE 1  S      0.47323     0.14067
              4  NE 1  S      0.26182     0.11635
              5  NE 1  S      0.12126     0.07112
              6  NE 1  S     -0.04081     0.03182
              7  NE 1  S     -0.06720     0.01216
              8  NE 1  S      0.00344     0.00337
              9  NE 1  S      0.00003     0.00082
             10  NE 1  S     -0.04795     0.11137
             11  NE 1  S      0.32236     0.13914
             12  NE 1  S      0.31419     0.10896
             13  NE 1  S      0.10660     0.06964
             14  NE 1  X      0.02714     0.03174
             15  NE 1  Y      0.02714     0.03174
             16  NE 1  Z      0.02714     0.03174
             17  NE 1  X      0.19860     0.08925
             18  NE 1  Y      0.19860     0.08925
             19  NE 1  Z      0.19860     0.08925
             20  NE 1  X      0.34097     0.15515
             21  NE 1  Y      0.34097     0.15515
             22  NE 1  Z      0.34097     0.15515
             23  NE 1  X      0.50489     0.17482
             24  NE 1  Y      0.50489     0.17482
             25  NE 1  Z      0.50489     0.17482
             26  NE 1  X      0.32231     0.15953
             27  NE 1  Y      0.32231     0.15953
             28  NE 1  Z      0.32231     0.15953
             29  NE 1  X      0.33952     0.11857
             30  NE 1  Y      0.33952     0.11857
             31  NE 1  Z      0.33952     0.11857
             32  NE 1  X      0.13923     0.09620
             33  NE 1  Y      0.13923     0.09620
             34  NE 1  Z      0.13923     0.09620
             35  NE 1  X      0.05513     0.05669
             36  NE 1  Y      0.05513     0.05669
             37  NE 1  Z      0.05513     0.05669
             38  NE 1  X      0.00428     0.01691
             39  NE 1  Y      0.00428     0.01691
             40  NE 1  Z      0.00428     0.01691
             41  NE 1  X     -0.05217     0.07890
             42  NE 1  Y     -0.05217     0.07890
             43  NE 1  Z     -0.05217     0.07890
             44  NE 1  X      0.00542     0.16839
             45  NE 1  Y      0.00542     0.16839
             46  NE 1  Z      0.00542     0.16839
             47  NE 1  X      0.16291     0.15623
             48  NE 1  Y      0.16291     0.15623
             49  NE 1  Z      0.16291     0.15623
             50  NE 1  X     -0.04822     0.12611
             51  NE 1  Y     -0.04822     0.12611
             52  NE 1  Z     -0.04822     0.12611
             53  NE 1 XX      0.00000     0.04391
             54  NE 1 YY      0.00000     0.04391
             55  NE 1 ZZ      0.00000     0.04391
             56  NE 1 XY      0.00000     0.00000
             57  NE 1 XZ      0.00000     0.00000
             58  NE 1 YZ      0.00000     0.00000
             59  NE 1 XX      0.00000     0.07169
             60  NE 1 YY      0.00000     0.07169
             61  NE 1 ZZ      0.00000     0.07169
             62  NE 1 XY      0.00000     0.00000
             63  NE 1 XZ      0.00000     0.00000
             64  NE 1 YZ      0.00000     0.00000
             65  NE 1 XX      0.00000     0.03975
             66  NE 1 YY      0.00000     0.03975
             67  NE 1 ZZ      0.00000     0.03975
             68  NE 1 XY      0.00000     0.00000
             69  NE 1 XZ      0.00000     0.00000
             70  NE 1 YZ      0.00000     0.00000
             71  NE 1 XX      0.00000     0.02667
             72  NE 1 YY      0.00000     0.02667
             73  NE 1 ZZ      0.00000     0.02667
             74  NE 1 XY      0.00000     0.00000
             75  NE 1 XZ      0.00000     0.00000
             76  NE 1 YZ      0.00000     0.00000
             77  NE 1 XXX     0.00000     0.12580
             78  NE 1 YYY     0.00000     0.12580
             79  NE 1 ZZZ     0.00000     0.12580
             80  NE 1 XXY     0.00000     0.05602
             81  NE 1 XXZ     0.00000     0.05602
             82  NE 1 YYX     0.00000     0.05602
             83  NE 1 YYZ     0.00000     0.05602
             84  NE 1 ZZX     0.00000     0.05602
             85  NE 1 ZZY     0.00000     0.05602
             86  NE 1 XYZ     0.00000     0.00000
             87  NE 1 XXX     0.00000     0.09390
             88  NE 1 YYY     0.00000     0.09390
             89  NE 1 ZZZ     0.00000     0.09390
             90  NE 1 XXY     0.00000     0.04161
             91  NE 1 XXZ     0.00000     0.04161
             92  NE 1 YYX     0.00000     0.04161
             93  NE 1 YYZ     0.00000     0.04161
             94  NE 1 ZZX     0.00000     0.04161
             95  NE 1 ZZY     0.00000     0.04161
             96  NE 1 XYZ     0.00000     0.00000
             97  NE 1 XXX     0.00000     0.08225
             98  NE 1 YYY     0.00000     0.08225
             99  NE 1 ZZZ     0.00000     0.08225
            100  NE 1 XXY     0.00000     0.03717
            101  NE 1 XXZ     0.00000     0.03717
            102  NE 1 YYX     0.00000     0.03717
            103  NE 1 YYZ     0.00000     0.03717
            104  NE 1 ZZX     0.00000     0.03717
            105  NE 1 ZZY     0.00000     0.03717
            106  NE 1 XYZ     0.00000     0.00000
            107  NE 1XXXX     0.00000     0.03994
            108  NE 1YYYY     0.00000     0.03994
            109  NE 1ZZZZ     0.00000     0.03994
            110  NE 1XXXY     0.00000     0.00000
            111  NE 1XXXZ     0.00000     0.00000
            112  NE 1YYYX     0.00000     0.00000
            113  NE 1YYYZ     0.00000     0.00000
            114  NE 1ZZZX     0.00000     0.00000
            115  NE 1ZZZY     0.00000     0.00000
            116  NE 1XXYY     0.00000     0.04284
            117  NE 1XXZZ     0.00000     0.04284
            118  NE 1YYZZ     0.00000     0.04284
            119  NE 1XXYZ     0.00000     0.00000
            120  NE 1YYXZ     0.00000     0.00000
            121  NE 1ZZXY     0.00000     0.00000
            122  NE 1XXXX     0.00000     0.03090
            123  NE 1YYYY     0.00000     0.03090
            124  NE 1ZZZZ     0.00000     0.03090
            125  NE 1XXXY     0.00000     0.00000
            126  NE 1XXXZ     0.00000     0.00000
            127  NE 1YYYX     0.00000     0.00000
            128  NE 1YYYZ     0.00000     0.00000
            129  NE 1ZZZX     0.00000     0.00000
            130  NE 1ZZZY     0.00000     0.00000
            131  NE 1XXYY     0.00000     0.03329
            132  NE 1XXZZ     0.00000     0.03329
            133  NE 1YYZZ     0.00000     0.03329
            134  NE 1XXYZ     0.00000     0.00000
            135  NE 1YYXZ     0.00000     0.00000
            136  NE 1ZZXY     0.00000     0.00000

          ----- MULLIKEN ATOMIC OVERLAP POPULATIONS -----
          (OFF-DIAGONAL ELEMENTS NEED TO BE MULTIPLIED BY 2)

             1

    1    8.0000000

          TOTAL MULLIKEN AND LOWDIN ATOMIC POPULATIONS
       ATOM         MULL.POP.    CHARGE          LOW.POP.     CHARGE
    1 NE            8.000000    0.000000         8.000000    0.000000

          MULLIKEN SPHERICAL HARMONIC POPULATIONS
       ATOM           S       P       D      F      G      H      I    TOTAL
    1 NE            2.00    6.00    0.00   0.00   0.00   0.00   0.00    8.00

          -------------------------------
          BOND ORDER AND VALENCE ANALYSIS     BOND ORDER THRESHOLD=0.050
          -------------------------------

                   BOND                       BOND                       BOND
  ATOM PAIR DIST  ORDER      ATOM PAIR DIST  ORDER      ATOM PAIR DIST  ORDER

                       TOTAL       BONDED        FREE
      ATOM            VALENCE     VALENCE     VALENCE
    1 NE               -0.000       0.000      -0.000

          -----------------------------------------
          ATOMIC SPIN DENSITY AT THE NUCLEUS (A.U.)
          -----------------------------------------
                            SPIN DENS    ALPHA DENS     BETA DENS
    1  NE           8.0     0.0000000       0.21783       0.21783

          ---------------------
          ELECTROSTATIC MOMENTS
          ---------------------

 POINT   1           X           Y           Z (BOHR)    CHARGE
                 0.000000    0.000000    0.000000       -0.00 (A.U.)
         DX          DY          DZ         /D/  (DEBYE)
     0.000000    0.000000    0.000000    0.000000
 ...... END OF PROPERTY EVALUATION ......
 STEP CPU TIME =     0.31 TOTAL CPU TIME =        7.1 (    0.1 MIN)
 TOTAL WALL CLOCK TIME=        8.0 SECONDS, CPU UTILIZATION IS  88.50%
                809237  WORDS OF DYNAMIC MEMORY USED
 EXECUTION OF GAMESS TERMINATED NORMALLY Thu Sep 20 17:15:49 2018
 DDI: 263624 bytes (0.3 MB / 0 MWords) used by master data server.

 ----------------------------------------
 CPU timing information for all processes
 ========================================
 0: 6.206 + 0.924 = 7.131
 ----------------------------------------
 ddikick.x: exited gracefully.
----- accounting info -----
Files used on the master node c455-054.stampede2.tacc.utexas.edu were:
-rw------- 1 aannabe G-801537     1500 Sep 20 17:15 /tmp/Ne.F05
-rw------- 1 aannabe G-801537 68046048 Sep 20 17:15 /tmp/Ne.F08
-rw------- 1 aannabe G-801537  9292480 Sep 20 17:15 /tmp/Ne.F10
Thu Sep 20 17:15:52 CDT 2018
1.140u 0.760s 0:13.26 14.3%	0+0k 6512+40io 33pf+0w
