
 Primary working directories    : /global/cscratch1/sd/aannabe
 Secondary working directories  : /global/cscratch1/sd/aannabe
 Wavefunction directory         : /global/homes/a/aannabe/wfu/
 Main file repository           : /global/cscratch1/sd/aannabe/

 SHA1      : 19cd028119e0e09f93f0674bd8af7968d9b3eff6
 NAME      : 2015.1.36
 ARCHNAME  : linux/x86_64
 FC        : /opt/cray/pe/craype/2.5.14/bin/ftn
 BLASLIB   : -L/opt/intel/compilers_and_libraries_2018.1.163/linux/mkl/lib/intel64 -Wl,-_start-group -lmkl_intel_ilp64 -lmkl_intel_thread -lmkl_core -Wl,-_end-group -liomp5
 id        : lbl

 Nodes     nprocs
 nid00462     1

 Using customized tuning parameters: mindgm=7; mindgv=16; mindgc=1; mindgr=1; noblas=0; minvec=7
 default implementation of scratch files=df  

 ***,K
 memory,8,g
 gthresh,twoint=1.e-12
 
 gprint,basis,orbitals
 gexpec,ekin,pot
 
 angstrom
 geometry={
 1                                                                               ! Number of atoms
 K 0.0 0.0 0.0
 }
 
 basis={
 
 Including file /global/homes/a/aannabe/repos/pseudopotentiallibrary/recipes/K/ccECP/K.ccECP.molpro
 
                                     !include,/global/homes/a/aannabe/repos/pseudopotentiallibrary/recipes/K/ccECP/K.cc-pV6Z.molpro
 Including file /global/homes/a/aannabe/repos/pseudopotentiallibrary/recipes/K/ccECP/K.cc-pCV6Z.molpro
                                 !include,/global/homes/a/aannabe/repos/pseudopotentiallibrary/recipes/K/ccECP/K.aug-cc-pV6Z.molpro
 
 
 }
 
 {hf
 wf,9,1,1
 occ,2,1,1,0,1,0,0,0
 closed,1,1,1,0,1,0,0,0
 }
 scf(i)=energy
 
 _CC_NORM_MAX=2.0
 {rccsd(t)
 maxit,100
 core
 }
 posthf(i)=energy
 
 table,scf,posthf,ekin,pot
 save,6.csv,new
 
 

 Variables initialized (889), CPU time= 0.01 sec
 Commands  initialized (702), CPU time= 0.00 sec, 572 directives.
 Default parameters read. Elapsed time= 0.12 sec

 Checking input...
 Passed
1


                                         ***  PROGRAM SYSTEM MOLPRO  ***
                                       Copyright, TTI GmbH Stuttgart, 2015
                                    Version 2015.1 linked Dec 29 2018 15:55:43


 **********************************************************************************************************************************
 LABEL *   K                                                                             
  64 bit serial version                                                                  DATE: 25-Jun-19          TIME: 11:56:34  
 **********************************************************************************************************************************

 SHA1:             19cd028119e0e09f93f0674bd8af7968d9b3eff6
 **********************************************************************************************************************************

 THRESHOLDS:

 ZERO    =  1.00D-12  ONEINT  =  1.00D-12  TWOINT  =  1.00D-12  PREFAC  =  1.00D-14  LOCALI  =  1.00D-09  EORDER  =  1.00D-04
 ENERGY  =  0.00D+00  ETEST   =  0.00D+00  EDENS   =  0.00D+00  THRDEDEF=  1.00D-06  GRADIENT=  1.00D-02  STEP    =  1.00D-03
 ORBITAL =  1.00D-05  CIVEC   =  1.00D-05  COEFF   =  1.00D-04  PRINTCI =  5.00D-02  PUNCHCI =  9.90D+01  OPTGRAD =  3.00D-04
 OPTENERG=  1.00D-06  OPTSTEP =  3.00D-04  THRGRAD =  1.00D-10  COMPRESS=  1.00D-11  VARMIN  =  1.00D-07  VARMAX  =  1.00D-03
 THRDOUB =  0.00D+00  THRDIV  =  1.00D-05  THRRED  =  1.00D-07  THRPSP  =  1.00D+00  THRDC   =  1.00D-10  THRCS   =  1.00D-10
 THRNRM  =  1.00D-08  THREQ   =  0.00D+00  THRDE   =  1.00D+00  THRREF  =  1.00D-05  SPARFAC =  1.00D+00  THRDLP  =  1.00D-07
 THRDIA  =  1.00D-10  THRDLS  =  1.00D-07  THRGPS  =  0.00D+00  THRKEX  =  0.00D+00  THRDIS  =  2.00D-01  THRVAR  =  1.00D-10
 THRLOC  =  1.00D-06  THRGAP  =  1.00D-06  THRLOCT = -1.00D+00  THRGAPT = -1.00D+00  THRORB  =  1.00D-06  THRMLTP =  0.00D+00
 THRCPQCI=  1.00D-10  KEXTA   =  0.00D+00  THRCOARS=  0.00D+00  SYMTOL  =  1.00D-06  GRADTOL =  1.00D-06  THROVL  =  1.00D-08
 THRORTH =  1.00D-08  GRID    =  1.00D-06  GRIDMAX =  1.00D-03  DTMAX   =  0.00D+00  THROCCDE=  1.00D-01  THROCCDE=  1.00D-01



 ZUNIT=ANG
 

Geometry recognized as XYZ


 Variable memory set to 8000000000 words,  buffer space   230000 words

 SETTING BASIS          =    USERDEF


 Recomputing integrals since basis changed


 Using spherical harmonics



 PROGRAM * SEWARD (Integral evaluation for generally contracted gaussian basis sets)     Author: Roland Lindh, 1990

 Geometry written to block  1 of record 700

 Orientation using atomic masses  
 Molecule type: Atom
 Symmetry elements: X,Y,Z
 Rotational constants:       0.0000000      0.0000000      0.0000000 GHz  (calculated with average atomic masses)

 Point group  D2h 



 ATOMIC COORDINATES

 NR  ATOM    CHARGE       X              Y              Z

   1  K       9.00    0.000000000    0.000000000    0.000000000


          K   CORE POTENTIAL

          d POTENTIAL

 POWERS             1              3              2              2
 EXPONENTIALS   7.273863       11.17298       7.706175       5.624917    
 COEFFICIENTS   9.000000       65.46477      -10.84434      -15.96316    

          s - d POTENTIAL

 POWERS             2              2
 EXPONENTIALS   11.44251       6.537124    
 COEFFICIENTS   11.86687       90.07677    

          p - d POTENTIAL

 POWERS             2              2
 EXPONENTIALS   9.631219       4.508811    
 COEFFICIENTS   11.53420       27.72024    


 BASIS DATA

   Nr Sym  Nuc  Type         Exponents   Contraction coefficients

    1.1 Ag    1  1s          33.190598     0.000935   -0.000135
    2.1 Ag                   17.266513    -0.017461    0.003276
                              8.982438     0.152998   -0.031275
                              4.672871    -0.340507    0.073045
                              2.430935    -0.228634    0.049052
                              1.264628     0.226730   -0.053203
                              0.657889     0.549104   -0.136782
                              0.342249     0.423104   -0.166300
                              0.178046     0.091041   -0.154697
                              0.092623     0.003455    0.001790
                              0.048185    -0.000284    0.408870
                              0.025067     0.000555    0.567152
                              0.013040     0.000003    0.184208
    3.1 Ag    1  1s           7.446812     1.000000
    4.1 Ag    1  1s           4.886206     1.000000
    5.1 Ag    1  1s           3.206071     1.000000
    6.1 Ag    1  1s           2.103655     1.000000
    7.1 Ag    1  1s           1.380307     1.000000
    8.1 Ag    1  1s           0.905685     1.000000
    9.1 Ag    1  1s           0.366133     1.000000
   10.1 Ag    1  1s           0.178073     1.000000
   11.1 Ag    1  1s           0.086608     1.000000
   12.1 Ag    1  1s           0.042123     1.000000
   13.1 Ag    1  1s           0.020487     1.000000
   14.1 Ag    1  1s           0.009964     1.000000
   15.1 Ag    1  3d0         25.002828     0.000029
                             10.959775    -0.000302
                              4.804124     0.004830
                              2.105846     0.014022
                              0.923080     0.025891
                              0.404624     0.036054
                              0.177364     0.048627
                              0.077746     0.102430
                              0.034079     0.281140
                              0.014938     0.512389
                              0.006548     0.252656
   16.1 Ag    1  3d2+        25.002828     0.000029
                             10.959775    -0.000302
                              4.804124     0.004830
                              2.105846     0.014022
                              0.923080     0.025891
                              0.404624     0.036054
                              0.177364     0.048627
                              0.077746     0.102430
                              0.034079     0.281140
                              0.014938     0.512389
                              0.006548     0.252656
   17.1 Ag    1  3d0          4.037464     1.000000
   18.1 Ag    1  3d2+         4.037464     1.000000
   19.1 Ag    1  3d0          2.439714     1.000000
   20.1 Ag    1  3d2+         2.439714     1.000000
   21.1 Ag    1  3d0          1.474244     1.000000
   22.1 Ag    1  3d2+         1.474244     1.000000
   23.1 Ag    1  3d0          0.890840     1.000000
   24.1 Ag    1  3d2+         0.890840     1.000000
   25.1 Ag    1  3d0          0.538307     1.000000
   26.1 Ag    1  3d2+         0.538307     1.000000
   27.1 Ag    1  3d0          0.216125     1.000000
   28.1 Ag    1  3d2+         0.216125     1.000000
   29.1 Ag    1  3d0          0.091274     1.000000
   30.1 Ag    1  3d2+         0.091274     1.000000
   31.1 Ag    1  3d0          0.038547     1.000000
   32.1 Ag    1  3d2+         0.038547     1.000000
   33.1 Ag    1  3d0          0.016279     1.000000
   34.1 Ag    1  3d2+         0.016279     1.000000
   35.1 Ag    1  3d0          0.006875     1.000000
   36.1 Ag    1  3d2+         0.006875     1.000000
   37.1 Ag    1  5g0          2.778268     1.000000
   38.1 Ag    1  5g4+         2.778268     1.000000
   39.1 Ag    1  5g2+         2.778268     1.000000
   40.1 Ag    1  5g0          1.557924     1.000000
   41.1 Ag    1  5g4+         1.557924     1.000000
   42.1 Ag    1  5g2+         1.557924     1.000000
   43.1 Ag    1  5g0          0.873611     1.000000
   44.1 Ag    1  5g4+         0.873611     1.000000
   45.1 Ag    1  5g2+         0.873611     1.000000
   46.1 Ag    1  5g0          0.240282     1.000000
   47.1 Ag    1  5g4+         0.240282     1.000000
   48.1 Ag    1  5g2+         0.240282     1.000000
   49.1 Ag    1  5g0          0.134073     1.000000
   50.1 Ag    1  5g4+         0.134073     1.000000
   51.1 Ag    1  5g2+         0.134073     1.000000
   52.1 Ag    1  5g0          0.074810     1.000000
   53.1 Ag    1  5g4+         0.074810     1.000000
   54.1 Ag    1  5g2+         0.074810     1.000000
   55.1 Ag    1  7i6+         1.932866     1.000000
   56.1 Ag    1  7i4+         1.932866     1.000000
   57.1 Ag    1  7i2+         1.932866     1.000000
   58.1 Ag    1  7i0          1.932866     1.000000
   59.1 Ag    1  7i6+         0.169962     1.000000
   60.1 Ag    1  7i4+         0.169962     1.000000
   61.1 Ag    1  7i2+         0.169962     1.000000
   62.1 Ag    1  7i0          0.169962     1.000000
    1.2 B3u   1  2px         25.955983     0.000053   -0.000011
    2.2 B3u                  12.863527     0.003597   -0.000501
                              6.375036    -0.040586    0.006011
                              3.159405    -0.042208    0.005705
                              1.565770     0.209658   -0.032890
                              0.775980     0.395095   -0.059125
                              0.384568     0.375044   -0.067980
                              0.190588     0.156825   -0.048525
                              0.094453     0.019669    0.021828
                              0.046810     0.001254    0.278276
                              0.023199     0.000291    0.486404
                              0.011497    -0.000010    0.318327
    3.2 B3u   1  2px         12.032913     1.000000
    4.2 B3u   1  2px          6.810434     1.000000
    5.2 B3u   1  2px          3.854595     1.000000
    6.2 B3u   1  2px          2.181639     1.000000
    7.2 B3u   1  2px          1.234772     1.000000
    8.2 B3u   1  2px          0.698861     1.000000
    9.2 B3u   1  2px          0.405586     1.000000
   10.2 B3u   1  2px          0.193981     1.000000
   11.2 B3u   1  2px          0.092776     1.000000
   12.2 B3u   1  2px          0.044372     1.000000
   13.2 B3u   1  2px          0.021222     1.000000
   14.2 B3u   1  2px          0.010150     1.000000
   15.2 B3u   1  4f1+         4.334260     1.000000
   16.2 B3u   1  4f3+         4.334260     1.000000
   17.2 B3u   1  4f1+         2.654612     1.000000
   18.2 B3u   1  4f3+         2.654612     1.000000
   19.2 B3u   1  4f1+         1.625875     1.000000
   20.2 B3u   1  4f3+         1.625875     1.000000
   21.2 B3u   1  4f1+         0.995803     1.000000
   22.2 B3u   1  4f3+         0.995803     1.000000
   23.2 B3u   1  4f1+         0.439386     1.000000
   24.2 B3u   1  4f3+         0.439386     1.000000
   25.2 B3u   1  4f1+         0.219135     1.000000
   26.2 B3u   1  4f3+         0.219135     1.000000
   27.2 B3u   1  4f1+         0.109289     1.000000
   28.2 B3u   1  4f3+         0.109289     1.000000
   29.2 B3u   1  4f1+         0.054506     1.000000
   30.2 B3u   1  4f3+         0.054506     1.000000
   31.2 B3u   1  6h1+         2.422674     1.000000
   32.2 B3u   1  6h3+         2.422674     1.000000
   33.2 B3u   1  6h5+         2.422674     1.000000
   34.2 B3u   1  6h1+         1.229513     1.000000
   35.2 B3u   1  6h3+         1.229513     1.000000
   36.2 B3u   1  6h5+         1.229513     1.000000
   37.2 B3u   1  6h1+         0.258411     1.000000
   38.2 B3u   1  6h3+         0.258411     1.000000
   39.2 B3u   1  6h5+         0.258411     1.000000
   40.2 B3u   1  6h1+         0.129746     1.000000
   41.2 B3u   1  6h3+         0.129746     1.000000
   42.2 B3u   1  6h5+         0.129746     1.000000
    1.3 B2u   1  2py         25.955983     0.000053   -0.000011
    2.3 B2u                  12.863527     0.003597   -0.000501
                              6.375036    -0.040586    0.006011
                              3.159405    -0.042208    0.005705
                              1.565770     0.209658   -0.032890
                              0.775980     0.395095   -0.059125
                              0.384568     0.375044   -0.067980
                              0.190588     0.156825   -0.048525
                              0.094453     0.019669    0.021828
                              0.046810     0.001254    0.278276
                              0.023199     0.000291    0.486404
                              0.011497    -0.000010    0.318327
    3.3 B2u   1  2py         12.032913     1.000000
    4.3 B2u   1  2py          6.810434     1.000000
    5.3 B2u   1  2py          3.854595     1.000000
    6.3 B2u   1  2py          2.181639     1.000000
    7.3 B2u   1  2py          1.234772     1.000000
    8.3 B2u   1  2py          0.698861     1.000000
    9.3 B2u   1  2py          0.405586     1.000000
   10.3 B2u   1  2py          0.193981     1.000000
   11.3 B2u   1  2py          0.092776     1.000000
   12.3 B2u   1  2py          0.044372     1.000000
   13.3 B2u   1  2py          0.021222     1.000000
   14.3 B2u   1  2py          0.010150     1.000000
   15.3 B2u   1  4f1-         4.334260     1.000000
   16.3 B2u   1  4f3-         4.334260     1.000000
   17.3 B2u   1  4f1-         2.654612     1.000000
   18.3 B2u   1  4f3-         2.654612     1.000000
   19.3 B2u   1  4f1-         1.625875     1.000000
   20.3 B2u   1  4f3-         1.625875     1.000000
   21.3 B2u   1  4f1-         0.995803     1.000000
   22.3 B2u   1  4f3-         0.995803     1.000000
   23.3 B2u   1  4f1-         0.439386     1.000000
   24.3 B2u   1  4f3-         0.439386     1.000000
   25.3 B2u   1  4f1-         0.219135     1.000000
   26.3 B2u   1  4f3-         0.219135     1.000000
   27.3 B2u   1  4f1-         0.109289     1.000000
   28.3 B2u   1  4f3-         0.109289     1.000000
   29.3 B2u   1  4f1-         0.054506     1.000000
   30.3 B2u   1  4f3-         0.054506     1.000000
   31.3 B2u   1  6h1-         2.422674     1.000000
   32.3 B2u   1  6h3-         2.422674     1.000000
   33.3 B2u   1  6h5-         2.422674     1.000000
   34.3 B2u   1  6h1-         1.229513     1.000000
   35.3 B2u   1  6h3-         1.229513     1.000000
   36.3 B2u   1  6h5-         1.229513     1.000000
   37.3 B2u   1  6h1-         0.258411     1.000000
   38.3 B2u   1  6h3-         0.258411     1.000000
   39.3 B2u   1  6h5-         0.258411     1.000000
   40.3 B2u   1  6h1-         0.129746     1.000000
   41.3 B2u   1  6h3-         0.129746     1.000000
   42.3 B2u   1  6h5-         0.129746     1.000000
    1.4 B1g   1  3d2-        25.002828     0.000029
                             10.959775    -0.000302
                              4.804124     0.004830
                              2.105846     0.014022
                              0.923080     0.025891
                              0.404624     0.036054
                              0.177364     0.048627
                              0.077746     0.102430
                              0.034079     0.281140
                              0.014938     0.512389
                              0.006548     0.252656
    2.4 B1g   1  3d2-         4.037464     1.000000
    3.4 B1g   1  3d2-         2.439714     1.000000
    4.4 B1g   1  3d2-         1.474244     1.000000
    5.4 B1g   1  3d2-         0.890840     1.000000
    6.4 B1g   1  3d2-         0.538307     1.000000
    7.4 B1g   1  3d2-         0.216125     1.000000
    8.4 B1g   1  3d2-         0.091274     1.000000
    9.4 B1g   1  3d2-         0.038547     1.000000
   10.4 B1g   1  3d2-         0.016279     1.000000
   11.4 B1g   1  3d2-         0.006875     1.000000
   12.4 B1g   1  5g2-         2.778268     1.000000
   13.4 B1g   1  5g4-         2.778268     1.000000
   14.4 B1g   1  5g2-         1.557924     1.000000
   15.4 B1g   1  5g4-         1.557924     1.000000
   16.4 B1g   1  5g2-         0.873611     1.000000
   17.4 B1g   1  5g4-         0.873611     1.000000
   18.4 B1g   1  5g2-         0.240282     1.000000
   19.4 B1g   1  5g4-         0.240282     1.000000
   20.4 B1g   1  5g2-         0.134073     1.000000
   21.4 B1g   1  5g4-         0.134073     1.000000
   22.4 B1g   1  5g2-         0.074810     1.000000
   23.4 B1g   1  5g4-         0.074810     1.000000
   24.4 B1g   1  7i2-         1.932866     1.000000
   25.4 B1g   1  7i6-         1.932866     1.000000
   26.4 B1g   1  7i4-         1.932866     1.000000
   27.4 B1g   1  7i2-         0.169962     1.000000
   28.4 B1g   1  7i6-         0.169962     1.000000
   29.4 B1g   1  7i4-         0.169962     1.000000
    1.5 B1u   1  2pz         25.955983     0.000053   -0.000011
    2.5 B1u                  12.863527     0.003597   -0.000501
                              6.375036    -0.040586    0.006011
                              3.159405    -0.042208    0.005705
                              1.565770     0.209658   -0.032890
                              0.775980     0.395095   -0.059125
                              0.384568     0.375044   -0.067980
                              0.190588     0.156825   -0.048525
                              0.094453     0.019669    0.021828
                              0.046810     0.001254    0.278276
                              0.023199     0.000291    0.486404
                              0.011497    -0.000010    0.318327
    3.5 B1u   1  2pz         12.032913     1.000000
    4.5 B1u   1  2pz          6.810434     1.000000
    5.5 B1u   1  2pz          3.854595     1.000000
    6.5 B1u   1  2pz          2.181639     1.000000
    7.5 B1u   1  2pz          1.234772     1.000000
    8.5 B1u   1  2pz          0.698861     1.000000
    9.5 B1u   1  2pz          0.405586     1.000000
   10.5 B1u   1  2pz          0.193981     1.000000
   11.5 B1u   1  2pz          0.092776     1.000000
   12.5 B1u   1  2pz          0.044372     1.000000
   13.5 B1u   1  2pz          0.021222     1.000000
   14.5 B1u   1  2pz          0.010150     1.000000
   15.5 B1u   1  4f0          4.334260     1.000000
   16.5 B1u   1  4f2+         4.334260     1.000000
   17.5 B1u   1  4f0          2.654612     1.000000
   18.5 B1u   1  4f2+         2.654612     1.000000
   19.5 B1u   1  4f0          1.625875     1.000000
   20.5 B1u   1  4f2+         1.625875     1.000000
   21.5 B1u   1  4f0          0.995803     1.000000
   22.5 B1u   1  4f2+         0.995803     1.000000
   23.5 B1u   1  4f0          0.439386     1.000000
   24.5 B1u   1  4f2+         0.439386     1.000000
   25.5 B1u   1  4f0          0.219135     1.000000
   26.5 B1u   1  4f2+         0.219135     1.000000
   27.5 B1u   1  4f0          0.109289     1.000000
   28.5 B1u   1  4f2+         0.109289     1.000000
   29.5 B1u   1  4f0          0.054506     1.000000
   30.5 B1u   1  4f2+         0.054506     1.000000
   31.5 B1u   1  6h2+         2.422674     1.000000
   32.5 B1u   1  6h4+         2.422674     1.000000
   33.5 B1u   1  6h0          2.422674     1.000000
   34.5 B1u   1  6h2+         1.229513     1.000000
   35.5 B1u   1  6h4+         1.229513     1.000000
   36.5 B1u   1  6h0          1.229513     1.000000
   37.5 B1u   1  6h2+         0.258411     1.000000
   38.5 B1u   1  6h4+         0.258411     1.000000
   39.5 B1u   1  6h0          0.258411     1.000000
   40.5 B1u   1  6h2+         0.129746     1.000000
   41.5 B1u   1  6h4+         0.129746     1.000000
   42.5 B1u   1  6h0          0.129746     1.000000
    1.6 B2g   1  3d1+        25.002828     0.000029
                             10.959775    -0.000302
                              4.804124     0.004830
                              2.105846     0.014022
                              0.923080     0.025891
                              0.404624     0.036054
                              0.177364     0.048627
                              0.077746     0.102430
                              0.034079     0.281140
                              0.014938     0.512389
                              0.006548     0.252656
    2.6 B2g   1  3d1+         4.037464     1.000000
    3.6 B2g   1  3d1+         2.439714     1.000000
    4.6 B2g   1  3d1+         1.474244     1.000000
    5.6 B2g   1  3d1+         0.890840     1.000000
    6.6 B2g   1  3d1+         0.538307     1.000000
    7.6 B2g   1  3d1+         0.216125     1.000000
    8.6 B2g   1  3d1+         0.091274     1.000000
    9.6 B2g   1  3d1+         0.038547     1.000000
   10.6 B2g   1  3d1+         0.016279     1.000000
   11.6 B2g   1  3d1+         0.006875     1.000000
   12.6 B2g   1  5g1+         2.778268     1.000000
   13.6 B2g   1  5g3+         2.778268     1.000000
   14.6 B2g   1  5g1+         1.557924     1.000000
   15.6 B2g   1  5g3+         1.557924     1.000000
   16.6 B2g   1  5g1+         0.873611     1.000000
   17.6 B2g   1  5g3+         0.873611     1.000000
   18.6 B2g   1  5g1+         0.240282     1.000000
   19.6 B2g   1  5g3+         0.240282     1.000000
   20.6 B2g   1  5g1+         0.134073     1.000000
   21.6 B2g   1  5g3+         0.134073     1.000000
   22.6 B2g   1  5g1+         0.074810     1.000000
   23.6 B2g   1  5g3+         0.074810     1.000000
   24.6 B2g   1  7i5+         1.932866     1.000000
   25.6 B2g   1  7i3+         1.932866     1.000000
   26.6 B2g   1  7i1+         1.932866     1.000000
   27.6 B2g   1  7i5+         0.169962     1.000000
   28.6 B2g   1  7i3+         0.169962     1.000000
   29.6 B2g   1  7i1+         0.169962     1.000000
    1.7 B3g   1  3d1-        25.002828     0.000029
                             10.959775    -0.000302
                              4.804124     0.004830
                              2.105846     0.014022
                              0.923080     0.025891
                              0.404624     0.036054
                              0.177364     0.048627
                              0.077746     0.102430
                              0.034079     0.281140
                              0.014938     0.512389
                              0.006548     0.252656
    2.7 B3g   1  3d1-         4.037464     1.000000
    3.7 B3g   1  3d1-         2.439714     1.000000
    4.7 B3g   1  3d1-         1.474244     1.000000
    5.7 B3g   1  3d1-         0.890840     1.000000
    6.7 B3g   1  3d1-         0.538307     1.000000
    7.7 B3g   1  3d1-         0.216125     1.000000
    8.7 B3g   1  3d1-         0.091274     1.000000
    9.7 B3g   1  3d1-         0.038547     1.000000
   10.7 B3g   1  3d1-         0.016279     1.000000
   11.7 B3g   1  3d1-         0.006875     1.000000
   12.7 B3g   1  5g1-         2.778268     1.000000
   13.7 B3g   1  5g3-         2.778268     1.000000
   14.7 B3g   1  5g1-         1.557924     1.000000
   15.7 B3g   1  5g3-         1.557924     1.000000
   16.7 B3g   1  5g1-         0.873611     1.000000
   17.7 B3g   1  5g3-         0.873611     1.000000
   18.7 B3g   1  5g1-         0.240282     1.000000
   19.7 B3g   1  5g3-         0.240282     1.000000
   20.7 B3g   1  5g1-         0.134073     1.000000
   21.7 B3g   1  5g3-         0.134073     1.000000
   22.7 B3g   1  5g1-         0.074810     1.000000
   23.7 B3g   1  5g3-         0.074810     1.000000
   24.7 B3g   1  7i5-         1.932866     1.000000
   25.7 B3g   1  7i3-         1.932866     1.000000
   26.7 B3g   1  7i1-         1.932866     1.000000
   27.7 B3g   1  7i5-         0.169962     1.000000
   28.7 B3g   1  7i3-         0.169962     1.000000
   29.7 B3g   1  7i1-         0.169962     1.000000
    1.8 Au    1  4f2-         4.334260     1.000000
    2.8 Au    1  4f2-         2.654612     1.000000
    3.8 Au    1  4f2-         1.625875     1.000000
    4.8 Au    1  4f2-         0.995803     1.000000
    5.8 Au    1  4f2-         0.439386     1.000000
    6.8 Au    1  4f2-         0.219135     1.000000
    7.8 Au    1  4f2-         0.109289     1.000000
    8.8 Au    1  4f2-         0.054506     1.000000
    9.8 Au    1  6h4-         2.422674     1.000000
   10.8 Au    1  6h2-         2.422674     1.000000
   11.8 Au    1  6h4-         1.229513     1.000000
   12.8 Au    1  6h2-         1.229513     1.000000
   13.8 Au    1  6h4-         0.258411     1.000000
   14.8 Au    1  6h2-         0.258411     1.000000
   15.8 Au    1  6h4-         0.129746     1.000000
   16.8 Au    1  6h2-         0.129746     1.000000

 NUCLEAR CHARGE:                    9
 NUMBER OF PRIMITIVE AOS:         533
 NUMBER OF SYMMETRY AOS:          382
 NUMBER OF CONTRACTIONS:          291   (  62Ag  +  42B3u +  42B2u +  29B1g +  42B1u +  29B2g +  29B3g +  16Au  )
 NUMBER OF CORE ORBITALS:           4   (   1Ag  +   1B3u +   1B2u +   0B1g +   1B1u +   0B2g +   0B3g +   0Au  )
 NUMBER OF VALENCE ORBITALS:        1   (   1Ag  +   0B3u +   0B2u +   0B1g +   0B1u +   0B2g +   0B3g +   0Au  )


 NUCLEAR REPULSION ENERGY    0.00000000

 EXTRA SYMMETRY OF AOS IN SYMMETRY 1:   1 1 1 1 1 1 1 1 1 1   1 1 1 1 2 3 2 3 2 3   2 3 2 3 2 3 2 3 2 3   2 3 2 3 2 3 4 5 6 4
                                        5 6 4 5 6 4 5 6 4 5   6 4 5 6 7 8 910 7 8   910
 EXTRA SYMMETRY OF AOS IN SYMMETRY 2:   1 1 1 1 1 1 1 1 1 1   1 1 1 1 2 3 2 3 2 3   2 3 2 3 2 3 2 3 2 3   4 5 6 4 5 6 4 5 6 4
                                        5 6
 EXTRA SYMMETRY OF AOS IN SYMMETRY 3:   1 1 1 1 1 1 1 1 1 1   1 1 1 1 2 3 2 3 2 3   2 3 2 3 2 3 2 3 2 3   4 5 6 4 5 6 4 5 6 4
                                        5 6
 EXTRA SYMMETRY OF AOS IN SYMMETRY 4:   1 1 1 1 1 1 1 1 1 1   1 2 3 2 3 2 3 2 3 2   3 2 3 4 5 6 4 5 6
 EXTRA SYMMETRY OF AOS IN SYMMETRY 5:   1 1 1 1 1 1 1 1 1 1   1 1 1 1 2 3 2 3 2 3   2 3 2 3 2 3 2 3 2 3   4 5 6 4 5 6 4 5 6 4
                                        5 6
 EXTRA SYMMETRY OF AOS IN SYMMETRY 6:   1 1 1 1 1 1 1 1 1 1   1 2 3 2 3 2 3 2 3 2   3 2 3 4 5 6 4 5 6
 EXTRA SYMMETRY OF AOS IN SYMMETRY 7:   1 1 1 1 1 1 1 1 1 1   1 2 3 2 3 2 3 2 3 2   3 2 3 4 5 6 4 5 6
 EXTRA SYMMETRY OF AOS IN SYMMETRY 8:   1 1 1 1 1 1 1 1 2 3   2 3 2 3 2 3

 Eigenvalues of metric

         1 0.230E-06 0.501E-06 0.346E-05 0.346E-05 0.605E-05 0.111E-03 0.615E-03 0.952E-03
         2 0.191E-06 0.103E-04 0.202E-03 0.127E-02 0.316E-02 0.316E-02 0.433E-02 0.119E-01
         3 0.191E-06 0.103E-04 0.202E-03 0.127E-02 0.316E-02 0.316E-02 0.433E-02 0.119E-01
         4 0.346E-05 0.952E-03 0.113E-01 0.358E-01 0.387E-01 0.387E-01 0.738E-01 0.738E-01
         5 0.191E-06 0.103E-04 0.202E-03 0.127E-02 0.316E-02 0.316E-02 0.433E-02 0.119E-01
         6 0.346E-05 0.952E-03 0.113E-01 0.358E-01 0.387E-01 0.387E-01 0.738E-01 0.738E-01
         7 0.346E-05 0.952E-03 0.113E-01 0.358E-01 0.387E-01 0.387E-01 0.738E-01 0.738E-01
         8 0.316E-02 0.223E-01 0.672E-01 0.211E+00 0.253E+00 0.253E+00 0.359E+00 0.359E+00


 Contracted 2-electron integrals neglected if value below      1.0D-13
 AO integral compression algorithm  1   Integral accuracy      1.0D-13

     715.129 MB (compressed) written to integral file ( 50.3%)


 NUMBER OF SORTED TWO-ELECTRON INTEGRALS:  114976372.     BUFFER LENGTH:  32768
 NUMBER OF SEGMENTS:   8  SEGMENT LENGTH:   15999984      RECORD LENGTH: 524288

 Memory used in sort:      16.56 MW

 SORT1 READ   177787227. AND WROTE    76029686. INTEGRALS IN    223 RECORDS. CPU TIME:     4.53 SEC, REAL TIME:     6.22 SEC
 SORT2 READ    76029686. AND WROTE   114976372. INTEGRALS IN   2728 RECORDS. CPU TIME:     2.19 SEC, REAL TIME:     3.68 SEC

 FILE SIZES:   FILE 1:   736.9 MBYTE,  FILE 4:   935.4 MBYTE,   TOTAL:   1672.3 MBYTE

 OPERATOR DM      FOR CENTER  0  COORDINATES:    0.000000    0.000000    0.000000
 OPERATOR EKIN    FOR CENTER  0  COORDINATES:    0.000000    0.000000    0.000000
 OPERATOR POT     FOR CENTER  0  COORDINATES:    0.000000    0.000000    0.000000


 **********************************************************************************************************************************
 DATASETS  * FILE   NREC   LENGTH (MB)   RECORD NAMES
              1      20      476.54       500      610      700      900      950      970     1000      129      960     1100   
                                          VAR    BASINP    GEOM    SYMINP    ZMAT    AOBASIS   BASIS     P2S    ABASIS      S 
                                         1400     1410     1420     1200     1210     1080     1600     1650     1300     1700   
                                         EKIN       V       ECP      H0       H01     AOSYM     SMH    MOLCAS    ERIS     OPER   

 PROGRAMS   *        TOTAL       INT
 CPU TIMES  *        61.33     61.23
 REAL TIME  *        92.55 SEC
 DISK USED  *         1.67 GB      
 **********************************************************************************************************************************


 PROGRAM * RHF-SCF (OPEN SHELL)       Authors: W. Meyer, H.-J. Werner


 NUMBER OF ELECTRONS:       5+    4-    SPACE SYMMETRY=1    SPIN SYMMETRY: Doublet 
 CONVERGENCE THRESHOLDS:    1.00E-05 (Density)    1.00E-07 (Energy)
 MAX. NUMBER OF ITERATIONS:       60
 INTERPOLATION TYPE:            DIIS
 INTERPOLATION STEPS:              2 (START)      1 (STEP)
 LEVEL SHIFTS:                 -0.60 (CLOSED) -0.30 (OPEN) 

 Number of closed-shell orbitals:    4 (   1   1   1   0   1   0   0   0 )
 Number of open-shell orbitals:      1 (   1   0   0   0   0   0   0   0 )



   Atom=K  basis=ECP10MDF_GUESS    lmin=0  lmax=1

 Orbital guess generated from atomic densities. Full valence occupancy:    2   1   1   0   1   0   0   0


 Molecular orbital dump at record        2100.2

 ITERATION    DDIFF          GRAD             ENERGY        2-EL.EN.            DIPOLE MOMENTS         DIIS   ORB.
    1      0.000D+00      0.000D+00       -27.93297260     36.651261    0.00000    0.00000    0.00000    0    start
    2      0.000D+00      0.260D-02       -27.93373133     36.776680    0.00000    0.00000    0.00000    1    diag,B
    3      0.224D-01      0.364D-03       -27.93405801     36.829802    0.00000    0.00000    0.00000    2    diag,B
    4      0.132D-01      0.238D-03       -27.93437916     36.888103    0.00000    0.00000    0.00000    3    diag,B
    5      0.108D-01      0.156D-03       -27.93460500     36.957979    0.00000    0.00000    0.00000    4    diag,B
    6      0.671D-02      0.504D-04       -27.93462403     36.977318    0.00000    0.00000    0.00000    5    diag,B
    7      0.121D-02      0.136D-04       -27.93462498     36.977977    0.00000    0.00000    0.00000    6    fixocc
    8      0.407D-03      0.671D-05       -27.93462528     36.977971    0.00000    0.00000    0.00000    7    diag,B
    9      0.124D-02      0.180D-05       -27.93462530     36.977951    0.00000    0.00000    0.00000    8    diag,B
   10      0.101D-02      0.313D-06       -27.93462530     36.977953    0.00000    0.00000    0.00000    9    orth
   11      0.406D-03      0.920D-07       -27.93462530     36.977953    0.00000    0.00000    0.00000    9    diag,B
   12      0.178D-03      0.299D-07       -27.93462530     36.977953    0.00000    0.00000    0.00000    9    diag,B
   13      0.723D-04      0.540D-08       -27.93462530     36.977953    0.00000    0.00000    0.00000    9    diag,B
   14      0.108D-04      0.614D-09       -27.93462530     36.977953    0.00000    0.00000    0.00000    9    diag,B
   15      0.531D-06      0.181D-09       -27.93462530     36.977953    0.00000    0.00000    0.00000    0    orth

 Final alpha occupancy:   2   1   1   0   1   0   0   0
 Final beta  occupancy:   1   1   1   0   1   0   0   0

 !RHF STATE 1.1 Energy                -27.934625299748
 Nuclear energy                         0.00000000
 One-electron energy                  -46.42360160
 Two-electron energy                   18.48897630
 Virial quotient                       -2.66765590
 !RHF STATE 1.1 Dipole moment           0.00000000     0.00000000     0.00000000
 Dipole moment /Debye                   0.00000000     0.00000000     0.00000000
 

 !RHF expec          <1.1|EKIN|1.1>    10.471599897575
 
 !RHF expec           <1.1|POT|1.1>    -6.839118128329

 ELECTRON ORBITALS
 =================


   Orb  Occ    Energy  Couls-En    Coefficients

                                   1 1s      1 1s      1 1s      1 1s      1 1s      1 1s      1 1s      1 1s      1 1s      1 1s   
                                   1 1s      1 1s      1 1s      1 1s      1 3d0     1 3d2+    1 3d0     1 3d2+    1 3d0     1 3d2+ 
                                   1 3d0     1 3d2+    1 3d0     1 3d2+    1 3d0     1 3d2+    1 3d0     1 3d2+    1 3d0     1 3d2+ 
                                   1 3d0     1 3d2+    1 3d0     1 3d2+    1 3d0     1 3d2+    1 5g0     1 5g4+    1 5g2+    1 5g0  
                                   1 5g4+    1 5g2+    1 5g0     1 5g4+    1 5g2+    1 5g0     1 5g4+    1 5g2+    1 5g0     1 5g4+ 
                                   1 5g2+    1 5g0     1 5g4+    1 5g2+    1 7i6+    1 7i4+    1 7i2+    1 7i0     1 7i6+    1 7i4+ 
                                   1 7i2+    1 7i0  

   1.1   2    -1.7842   -7.9979  0.996533 -0.026645 -0.000544  0.001409 -0.000880  0.001506 -0.000658 -0.001620 -0.003436 -0.004065
                                 0.000945  0.014389  0.014084  0.001710  0.000000 -0.000000 -0.000000  0.000000 -0.000000  0.000000
                                -0.000000  0.000000 -0.000000  0.000000 -0.000000  0.000000 -0.000000  0.000000 -0.000000  0.000000
                                -0.000000  0.000000 -0.000000  0.000000 -0.000000  0.000000  0.000000 -0.000000  0.000000 -0.000000
                                 0.000000 -0.000000 -0.000000 -0.000000  0.000000  0.000000 -0.000000 -0.000000 -0.000000  0.000000
                                 0.000000  0.000000 -0.000000 -0.000000  0.000000  0.000000 -0.000000 -0.000000  0.000000  0.000000
                                 0.000000  0.000000

   2.1   +    -0.1476   -2.0608 -0.080700  0.608586 -0.000894  0.004024 -0.004739  0.005775 -0.003590 -0.006410 -0.033440 -0.056516
                                 0.012989  0.212655  0.205707  0.025676 -0.000000  0.000000  0.000000 -0.000000  0.000000 -0.000000
                                 0.000000 -0.000000  0.000000 -0.000000  0.000000 -0.000000  0.000000 -0.000000  0.000000 -0.000000
                                 0.000000 -0.000000  0.000000 -0.000000  0.000000 -0.000000  0.000000 -0.000000 -0.000000 -0.000000
                                 0.000000  0.000000  0.000000 -0.000000 -0.000000  0.000000 -0.000000  0.000000 -0.000000  0.000000
                                -0.000000  0.000000 -0.000000  0.000000 -0.000000 -0.000000  0.000000  0.000000  0.000000  0.000000
                                -0.000000 -0.000000

                                   1 2px     1 2px     1 2px     1 2px     1 2px     1 2px     1 2px     1 2px     1 2px     1 2px  
                                   1 2px     1 2px     1 2px     1 2px     1 4f1+    1 4f3+    1 4f1+    1 4f3+    1 4f1+    1 4f3+ 
                                   1 4f1+    1 4f3+    1 4f1+    1 4f3+    1 4f1+    1 4f3+    1 4f1+    1 4f3+    1 4f1+    1 4f3+ 
                                   1 6h1+    1 6h3+    1 6h5+    1 6h1+    1 6h3+    1 6h5+    1 6h1+    1 6h3+    1 6h5+    1 6h1+ 
                                   1 6h3+    1 6h5+ 

   1.2   2    -0.9549   -6.3021  0.958610  0.014403 -0.000115  0.000024 -0.005337  0.007480  0.004375  0.019743  0.010423  0.011480
                                -0.002043 -0.002811 -0.008543 -0.003114  0.000000 -0.000000 -0.000000  0.000000  0.000000 -0.000000
                                -0.000000  0.000000  0.000000 -0.000000 -0.000000  0.000000  0.000000  0.000000 -0.000000 -0.000000
                                 0.000000  0.000000 -0.000000 -0.000000 -0.000000  0.000000  0.000000  0.000000 -0.000000 -0.000000
                                -0.000000  0.000000

                                   1 2py     1 2py     1 2py     1 2py     1 2py     1 2py     1 2py     1 2py     1 2py     1 2py  
                                   1 2py     1 2py     1 2py     1 2py     1 4f1-    1 4f3-    1 4f1-    1 4f3-    1 4f1-    1 4f3- 
                                   1 4f1-    1 4f3-    1 4f1-    1 4f3-    1 4f1-    1 4f3-    1 4f1-    1 4f3-    1 4f1-    1 4f3- 
                                   1 6h1-    1 6h3-    1 6h5-    1 6h1-    1 6h3-    1 6h5-    1 6h1-    1 6h3-    1 6h5-    1 6h1- 
                                   1 6h3-    1 6h5- 

   1.3   2    -0.9549   -6.3021  0.958610  0.014403 -0.000115  0.000024 -0.005337  0.007480  0.004375  0.019743  0.010423  0.011480
                                -0.002043 -0.002811 -0.008543 -0.003114  0.000000  0.000000 -0.000000 -0.000000  0.000000  0.000000
                                -0.000000 -0.000000  0.000000  0.000000 -0.000000 -0.000000  0.000000 -0.000000 -0.000000  0.000000
                                 0.000000  0.000000 -0.000000 -0.000000 -0.000000  0.000000  0.000000 -0.000000 -0.000000 -0.000000
                                 0.000000  0.000000

                                   1 2pz     1 2pz     1 2pz     1 2pz     1 2pz     1 2pz     1 2pz     1 2pz     1 2pz     1 2pz  
                                   1 2pz     1 2pz     1 2pz     1 2pz     1 4f0     1 4f2+    1 4f0     1 4f2+    1 4f0     1 4f2+ 
                                   1 4f0     1 4f2+    1 4f0     1 4f2+    1 4f0     1 4f2+    1 4f0     1 4f2+    1 4f0     1 4f2+ 
                                   1 6h2+    1 6h4+    1 6h0     1 6h2+    1 6h4+    1 6h0     1 6h2+    1 6h4+    1 6h0     1 6h2+ 
                                   1 6h4+    1 6h0  

   1.5   2    -0.9549   -6.3021  0.958610  0.014403 -0.000115  0.000024 -0.005337  0.007480  0.004375  0.019743  0.010423  0.011480
                                -0.002043 -0.002811 -0.008543 -0.003114  0.000000  0.000000 -0.000000 -0.000000  0.000000  0.000000
                                -0.000000 -0.000000  0.000000  0.000000  0.000000  0.000000 -0.000000 -0.000000  0.000000 -0.000000
                                -0.000000  0.000000  0.000000  0.000000  0.000000 -0.000000  0.000000 -0.000000  0.000000 -0.000000
                                 0.000000 -0.000000

 HOMO      2.1    -0.147630 =      -4.0172eV
 LUMO      2.2     0.007560 =       0.2057eV
 LUMO-HOMO         0.155189 =       4.2229eV


 **********************************************************************************************************************************
 DATASETS  * FILE   NREC   LENGTH (MB)   RECORD NAMES
              1      20      476.54       500      610      700      900      950      970     1000      129      960     1100   
                                          VAR    BASINP    GEOM    SYMINP    ZMAT    AOBASIS   BASIS     P2S    ABASIS      S 
                                         1400     1410     1420     1200     1210     1080     1600     1650     1300     1700   
                                         EKIN       V       ECP      H0       H01     AOSYM     SMH    MOLCAS    ERIS     OPER   

              2       4        3.15       700     1000      520     2100   
                                         GEOM     BASIS   MCVARS     RHF  

 PROGRAMS   *        TOTAL        HF       INT
 CPU TIMES  *        65.97      4.64     61.23
 REAL TIME  *        97.82 SEC
 DISK USED  *         1.67 GB      
 **********************************************************************************************************************************
 SETTING SCF(I)         =       -27.93462530  AU                              
 SETTING _CC_NORM_MAX   =         2.00000000                                  


 PROGRAM * CCSD (Restricted open-shell coupled cluster)     Authors: C. Hampel, H.-J. Werner, 1991, M. Deegan, P.J. Knowles, 1992


 Convergence thresholds:  THRVAR = 1.00D-08  THRDEN = 1.00D-06

 CCSD(T)     terms to be evaluated (factor= 1.000)


 Number of closed-shell orbitals:   4 (   1   1   1   0   1   0   0   0 )
 Number of active  orbitals:        1 (   1   0   0   0   0   0   0   0 )
 Number of external orbitals:     286 (  60  41  41  29  41  29  29  16 )

 Memory could be reduced to 34.81 Mwords without degradation in triples

 Number of N-1 electron functions:               9
 Number of N-2 electron functions:              36
 Number of singly external CSFs:               429
 Number of doubly external CSFs:            296650
 Total number of CSFs:                      297079

 Molecular orbitals read from record     2100.2  Type=RHF/CANONICAL (state 1.1)

 Integral transformation finished. Total CPU:   1.31 sec, npass=  1  Memory used:   5.34 MW

 Starting RMP2 calculation

 Wavefunction is spin-projected

 ITER.      SQ.NORM     CORR.ENERGY   TOTAL ENERGY   ENERGY CHANGE        DEN1      VAR(S)    VAR(P)  DIIS     TIME
   1      1.06791884    -0.28620157   -28.22082687    -0.28620157    -0.00068244  0.50D-06  0.22D-03  1  1     1.33
   2      1.06841844    -0.28692507   -28.22155037    -0.00072350    -0.00000042  0.21D-08  0.19D-06  2  2     1.34
   3      1.06842727    -0.28693135   -28.22155665    -0.00000628    -0.00000000  0.58D-11  0.40D-09  3  3     1.36
   4      1.06842740    -0.28693136   -28.22155666    -0.00000001    -0.00000000  0.89D-14  0.29D-12  4  4     1.38

 Norm of t1 vector:      0.00647997      S-energy:    -0.00005413      T1 diagnostic:  0.00002750
 Norm of t2 vector:      0.26150605      P-energy:    -0.28687723
                                         Alpha-Beta:  -0.21994235
                                         Alpha-Alpha: -0.03593488
                                         Beta-Beta:   -0.03100001

 Spin contamination <S**2-Sz**2-Sz>     0.00000000
  Reference energy                    -27.934625299748
  RHF-RMP2 correlation energy          -0.286931359212
 !RHF-RMP2 energy                     -28.221556658960
 (NB above energy spin projected)

 Starting RCCSD calculation

 ITER.      SQ.NORM     CORR.ENERGY   TOTAL ENERGY   ENERGY CHANGE        DEN1      VAR(S)    VAR(P)  DIIS     TIME
   1      1.07352231    -0.29504699   -28.22967229    -0.29504699    -0.00521190  0.69D-03  0.93D-03  1  1     3.42
   2      1.07823569    -0.30049005   -28.23511535    -0.00544307    -0.00022920  0.19D-03  0.36D-04  2  2     5.43
   3      1.08001468    -0.30115132   -28.23577662    -0.00066127    -0.00004530  0.87D-04  0.28D-05  3  3     7.48
   4      1.08137770    -0.30134562   -28.23597092    -0.00019430    -0.00001212  0.28D-04  0.47D-06  4  4     9.49
   5      1.08263672    -0.30145227   -28.23607757    -0.00010665    -0.00000153  0.37D-05  0.63D-07  5  5    11.51
   6      1.08319174    -0.30148166   -28.23610696    -0.00002939    -0.00000009  0.25D-06  0.29D-08  6  6    13.53
   7      1.08327158    -0.30148499   -28.23611029    -0.00000334    -0.00000002  0.47D-07  0.26D-09  6  1    15.57
   8      1.08329828    -0.30148610   -28.23611140    -0.00000110    -0.00000000  0.67D-08  0.53D-10  6  2    17.62
   9      1.08330865    -0.30148650   -28.23611180    -0.00000041    -0.00000000  0.26D-09  0.60D-11  6  3    19.63

 Norm of t1 vector:      0.07685366      S-energy:    -0.00006863      T1 diagnostic:  0.01800834
                                                                       D1 diagnostic:  0.05334102
 Norm of t2 vector:      0.27821245      P-energy:    -0.30141787
                                         Alpha-Beta:  -0.23673975
                                         Alpha-Alpha: -0.03499097
                                         Beta-Beta:   -0.02968715

 Spin contamination <S**2-Sz**2-Sz>     0.00000000

 Memory could be reduced to 35.33 Mwords without degradation in triples
 

  Correlated core orbitals:             1.1       1.2       1.3       1.5
  Orbital energies:                    -1.7869   -0.9565   -0.9565   -0.9565
 
  RCCSD core-core energy               -0.288399842208
  RCCSD core-valence energy            -0.013086661288
  RCCSD valence correlation energy     -0.000000000126
 

 RESULTS
 =======

  Reference energy                    -27.934625299748
  RCCSD singles energy                 -0.000068629490
  RCCSD pair energy                    -0.301417874133
  RCCSD correlation energy             -0.301486503623
  Triples (T) contribution             -0.010985780394
  Total correlation energy             -0.312472284017
 
  RHF-RCCSD energy                    -28.236111803371
  RHF-RCCSD[T] energy                 -28.247244827368
  RHF-RCCSD-T energy                  -28.247074460822
 !RHF-RCCSD(T) energy                 -28.247097583765

 Program statistics:

 Available memory in ccsd:              7999999650
 Min. memory needed in ccsd:               1120955
 Max. memory used in ccsd:                 1443944
 Max. memory used in cckext:               1216914 ( 9 integral passes)
 Max. memory used in cckint:               5337401 ( 1 integral passes)



 **********************************************************************************************************************************
 DATASETS  * FILE   NREC   LENGTH (MB)   RECORD NAMES
              1      20      476.54       500      610      700      900      950      970     1000      129      960     1100   
                                          VAR    BASINP    GEOM    SYMINP    ZMAT    AOBASIS   BASIS     P2S    ABASIS      S 
                                         1400     1410     1420     1200     1210     1080     1600     1650     1300     1700   
                                         EKIN       V       ECP      H0       H01     AOSYM     SMH    MOLCAS    ERIS     OPER   

              2       4        3.15       700     1000      520     2100   
                                         GEOM     BASIS   MCVARS     RHF  

 PROGRAMS   *        TOTAL  RCCSD(T)        HF       INT
 CPU TIMES  *        95.33     29.35      4.64     61.23
 REAL TIME  *       136.05 SEC
 DISK USED  *         1.67 GB      
 **********************************************************************************************************************************
 SETTING POSTHF(I)      =       -28.24709758  AU                              
                                                                                                                                                                                                                                                                

        SCF            POSTHF        EKIN          POT
    -27.93462530   -28.24709758   10.47159990   -6.83911813
                                                  

 RCCSD(T)/USERDEF energy=    -28.247097583765

        RCCSD(T)        HF-SCF  
    -28.24709758    -27.93462530
 **********************************************************************************************************************************
 Molpro calculation terminated
 Variable memory released
