nohup: ignoring input
----- GAMESS execution script 'rungms' -----
This job is running on host gwang18-OptiPlex-3040
under operating system Linux at 2018年 08月 08日 星期三 15:26:54 EDT
Available scratch disk space (Kbyte units) at beginning of the job is
Filesystem     1K-blocks      Used Available Use% Mounted on
/dev/sda6      216112148 110346752  94764412  54% /
GAMESS temporary binary files will be written to /home/gwang18/research/gamess/ecpcorrelation/fe/augccpwcvxzbasis_stu/hf
GAMESS supplementary output files will be written to /home/gwang18/research/gamess/ecpcorrelation/fe/augccpwcvxzbasis_stu/hf
Copying input file fe.inp to your run's scratch directory...
cp fe.inp /home/gwang18/research/gamess/ecpcorrelation/fe/augccpwcvxzbasis_stu/hf/fe.F05
unset echo
/home/gwang18/software/gamess/ddikick.x /home/gwang18/software/gamess/gamess.00.x fe -ddi 1 1 gwang18-OptiPlex-3040 -scr /home/gwang18/research/gamess/ecpcorrelation/fe/augccpwcvxzbasis_stu/hf

 Distributed Data Interface kickoff program.
 Initiating 1 compute processes on 1 nodes to run the following command:
 /home/gwang18/software/gamess/gamess.00.x fe 

          ******************************************************
          *         GAMESS VERSION =  5 DEC 2014 (R1)          *
          *             FROM IOWA STATE UNIVERSITY             *
          * M.W.SCHMIDT, K.K.BALDRIDGE, J.A.BOATZ, S.T.ELBERT, *
          *   M.S.GORDON, J.H.JENSEN, S.KOSEKI, N.MATSUNAGA,   *
          *          K.A.NGUYEN, S.J.SU, T.L.WINDUS,           *
          *       TOGETHER WITH M.DUPUIS, J.A.MONTGOMERY       *
          *         J.COMPUT.CHEM.  14, 1347-1363(1993)        *
          **************** 64 BIT LINUX VERSION ****************

  SINCE 1993, STUDENTS AND POSTDOCS WORKING AT IOWA STATE UNIVERSITY
  AND ALSO IN THEIR VARIOUS JOBS AFTER LEAVING ISU HAVE MADE IMPORTANT
  CONTRIBUTIONS TO THE CODE:
     IVANA ADAMOVIC, CHRISTINE AIKENS, YURI ALEXEEV, POOJA ARORA,
     ANDREY ASADCHEV, ROB BELL, PRADIPTA BANDYOPADHYAY, JONATHAN BENTZ,
     BRETT BODE, KURT BRORSEN, CALEB CARLIN, GALINA CHABAN, WEI CHEN,
     CHEOL HO CHOI, PAUL DAY, ALBERT DEFUSCO, NUWAN DESILVA, TIM DUDLEY,
     DMITRI FEDOROV, GRAHAM FLETCHER, MARK FREITAG, KURT GLAESEMANN,
     DAN KEMP, GRANT MERRILL, NORIYUKI MINEZAWA, JONATHAN MULLIN,
     TAKESHI NAGATA, SEAN NEDD, HEATHER NETZLOFF, BOSILJKA NJEGIC, RYAN OLSON,
     MIKE PAK, SPENCER PRUITT, LUKE ROSKOP, JIM SHOEMAKER, LYUDMILA SLIPCHENKO,
     TONY SMITH, SAROM SOK, JIE SONG, TETSUYA TAKETSUGU, SIMON WEBB,
     PENG XU, SOOHAENG YOO, FEDERICO ZAHARIEV

  ADDITIONAL CODE HAS BEEN PROVIDED BY COLLABORATORS IN OTHER GROUPS:
     IOWA STATE UNIVERSITY:
          JOE IVANIC, AARON WEST, LAIMUTIS BYTAUTAS, KLAUS RUEDENBERG
     UNIVERSITY OF TOKYO: KIMIHIKO HIRAO, TAKAHITO NAKAJIMA,
          TAKAO TSUNEDA, MUNEAKI KAMIYA, SUSUMU YANAGISAWA,
          KIYOSHI YAGI, MAHITO CHIBA, SEIKEN TOKURA, NAOAKI KAWAKAMI
     UNIVERSITY OF AARHUS: FRANK JENSEN
     UNIVERSITY OF IOWA: VISVALDAS KAIRYS, HUI LI
     NATIONAL INST. OF STANDARDS AND TECHNOLOGY: WALT STEVENS, DAVID GARMER
     UNIVERSITY OF PISA: BENEDETTA MENNUCCI, JACOPO TOMASI
     UNIVERSITY OF MEMPHIS: HENRY KURTZ, PRAKASHAN KORAMBATH
     UNIVERSITY OF ALBERTA: TOBY ZENG, MARIUSZ KLOBUKOWSKI
     UNIVERSITY OF NEW ENGLAND: MARK SPACKMAN
     MIE UNIVERSITY: HIROAKI UMEDA
     NAT. INST. OF ADVANCED INDUSTRIAL SCIENCE AND TECHNOLOGY: KAZUO KITAURA
     MICHIGAN STATE UNIVERSITY:
          KAROL KOWALSKI, MARTA WLOCH, JEFFREY GOUR, JESSE LUTZ,
          WEI LI, PIOTR PIECUCH
     UNIVERSITY OF SILESIA: MONIKA MUSIAL, STANISLAW KUCHARSKI
     FACULTES UNIVERSITAIRES NOTRE-DAME DE LA PAIX:
          OLIVIER QUINET, BENOIT CHAMPAGNE
     UNIVERSITY OF CALIFORNIA - SANTA BARBARA: BERNARD KIRTMAN
     INSTITUTE FOR MOLECULAR SCIENCE:
          KAZUYA ISHIMURA, MICHIO KATOUDA, AND SHIGERU NAGASE
     UNIVERSITY OF NOTRE DAME: ANNA POMOGAEVA, DAN CHIPMAN
     KYUSHU UNIVERSITY:
          HARUYUKI NAKANO,
          FENG LONG GU, JACEK KORCHOWIEC, MARCIN MAKOWSKI, AND YURIKO AOKI,
          HIROTOSHI MORI AND EISAKU MIYOSHI
     PENNSYLVANIA STATE UNIVERSITY:
          TZVETELIN IORDANOV, CHET SWALINA, JONATHAN SKONE,
          SHARON HAMMES-SCHIFFER
     WASEDA UNIVERSITY:
          MASATO KOBAYASHI, TOMOKO AKAMA, TSUGUKI TOUMA,
          TAKESHI YOSHIKAWA, YASUHIRO IKABATA, HIROMI NAKAI
     NANJING UNIVERSITY: SHUHUA LI
     UNIVERSITY OF NEBRASKA:
          PEIFENG SU, DEJUN SI, NANDUN THELLAMUREGE, YALI WANG, HUI LI
     UNIVERSITY OF ZURICH: ROBERTO PEVERATI, KIM BALDRIDGE
     N. COPERNICUS UNIVERSITY AND JACKSON STATE UNIVERSITY:
          MARIA BARYSZ
     UNIVERSITY OF COPENHAGEN: CASPER STEINMANN
     TOKYO INSTITUTE OF TECHNOLOGY: HIROYA NAKATA
     NAGOYA UNIVERSITY: YOSHIO NISHIMOTO, STEPHAN IRLE

 EXECUTION OF GAMESS BEGUN Wed Aug  8 15:26:54 2018

            ECHO OF THE FIRST FEW INPUT CARDS -
 INPUT CARD> $CONTRL                                                                        
 INPUT CARD>     SCFTYP=ROHF                                                                
 INPUT CARD>     MULT=5                                                                     
 INPUT CARD>     ICHARG=0                                                                   
 INPUT CARD>     RUNTYP=ENERGY                                                              
 INPUT CARD>     MAXIT=150                                                                  
 INPUT CARD>     PP=READ                                                                    
 INPUT CARD> $END                                                                           
 INPUT CARD>                                                                                
 INPUT CARD> $CONTRL                                                                        
 INPUT CARD>     ISPHER=1                                                                   
 INPUT CARD> $END                                                                           
 INPUT CARD>                                                                                
 INPUT CARD> $SYSTEM                                                                        
 INPUT CARD>     KDIAG=3                                                                    
 INPUT CARD>     mwords=125                                                                 
 INPUT CARD> $END                                                                           
 INPUT CARD>                                                                                
 INPUT CARD> $GUESS                                                                         
 INPUT CARD>    GUESS=MOREAD                                                                
 INPUT CARD>    NORB=225                                                                    
 INPUT CARD>    NORDER=1                                                                    
 INPUT CARD>    IORDER(5)=10,5,6,7,8,9                                                      
 INPUT CARD> $END                                                                           
 INPUT CARD>                                                                                
 INPUT CARD> $DATA                                                                          
 INPUT CARD>                                                                                
 INPUT CARD>C1                                                                              
 INPUT CARD>Fe 26 0. 0. 0.                                                                  
 INPUT CARD>S   1                                                                           
 INPUT CARD>  1      0.1327714E+08          1.0000000                                       
 INPUT CARD>S   1                                                                           
 INPUT CARD>  1 1987888.0000000             1.0000000                                       
 INPUT CARD>S   1                                                                           
 INPUT CARD>  1 452387.1000000              1.0000000                                       
 INPUT CARD>S   1                                                                           
 INPUT CARD>  1 128143.7000000              1.0000000                                       
 INPUT CARD>S   1                                                                           
 INPUT CARD>  1  41809.1700000              1.0000000                                       
 INPUT CARD>S   1                                                                           
 INPUT CARD>  1  15095.3300000              1.0000000                                       
 INPUT CARD>S   1                                                                           
 INPUT CARD>  1   5888.4380000              1.0000000                                       
 INPUT CARD>S   1                                                                           
 INPUT CARD>  1   2442.8760000              1.0000000                                       
 INPUT CARD>S   1                                                                           
 INPUT CARD>  1   1065.8570000              1.0000000                                       
 INPUT CARD>S   1                                                                           
 INPUT CARD>  1    484.9096000              1.0000000                                       
 INPUT CARD>S   1                                                                           
  125000000 WORDS OF MEMORY AVAILABLE


     RUN TITLE
     ---------
                                                                                 

 THE POINT GROUP OF THE MOLECULE IS C1      
 THE ORDER OF THE PRINCIPAL AXIS IS     0

 ATOM      ATOMIC                      COORDINATES (BOHR)
           CHARGE         X                   Y                   Z
 FE         26.0     0.0000000000        0.0000000000        0.0000000000

          INTERNUCLEAR DISTANCES (ANGS.)
          ------------------------------

                1 FE    

   1 FE      0.0000000  

  * ... LESS THAN  3.000


     ATOMIC BASIS SET
     ----------------
 THE CONTRACTED PRIMITIVE FUNCTIONS HAVE BEEN UNNORMALIZED
 THE CONTRACTED BASIS FUNCTIONS ARE NOW NORMALIZED TO UNITY

  SHELL TYPE  PRIMITIVE        EXPONENT          CONTRACTION COEFFICIENT(S)

 FE        

      1   S       1      13277140.0000000    1.000000000000

      2   S       2       1987888.0000000    1.000000000000

      3   S       3        452387.1000000    1.000000000000

      4   S       4        128143.7000000    1.000000000000

      5   S       5         41809.1700000    1.000000000000

      6   S       6         15095.3300000    1.000000000000

      7   S       7          5888.4380000    1.000000000000

      8   S       8          2442.8760000    1.000000000000

      9   S       9          1065.8570000    1.000000000000

     10   S      10           484.9096000    1.000000000000

     11   S      11           228.4585000    1.000000000000

     12   S      12           110.7453000    1.000000000000

     13   S      13            54.4311600    1.000000000000

     14   S      14            25.0109600    1.000000000000

     15   S      15            12.5926200    1.000000000000

     16   S      16             6.3232020    1.000000000000

     17   S      17             2.8833840    1.000000000000

     18   S      18             1.3828680    1.000000000000

     19   S      19             0.6322010    1.000000000000

     20   S      20             0.1492380    1.000000000000

     21   S      21             0.0684940    1.000000000000

     22   S      22             0.0303810    1.000000000000

     23   S      23             5.7900000    1.000000000000

     24   S      24             1.7335000    1.000000000000

     25   S      25             0.0134800    1.000000000000

     26   P      26         38282.0500000    1.000000000000

     27   P      27          9061.5560000    1.000000000000

     28   P      28          2944.4500000    1.000000000000

     29   P      29          1128.1580000    1.000000000000

     30   P      30           480.3380000    1.000000000000

     31   P      31           220.1368000    1.000000000000

     32   P      32           106.5482000    1.000000000000

     33   P      33            53.7426200    1.000000000000

     34   P      34            27.8631800    1.000000000000

     35   P      35            14.7438200    1.000000000000

     36   P      36             7.8933510    1.000000000000

     37   P      37             4.1794970    1.000000000000

     38   P      38             2.1656690    1.000000000000

     39   P      39             1.0972400    1.000000000000

     40   P      40             0.5360850    1.000000000000

     41   P      41             0.2024530    1.000000000000

     42   P      42             0.0816950    1.000000000000

     43   P      43             0.0326140    1.000000000000

     44   P      44             8.3687000    1.000000000000

     45   P      45             2.2601000    1.000000000000

     46   P      46             0.0130200    1.000000000000

     47   D      47           350.9950000    1.000000000000

     48   D      48           103.6670000    1.000000000000

     49   D      49            39.7043000    1.000000000000

     50   D      50            17.0310000    1.000000000000

     51   D      51             7.7890200    1.000000000000

     52   D      52             3.6995500    1.000000000000

     53   D      53             1.7553200    1.000000000000

     54   D      54             0.8128450    1.000000000000

     55   D      55             0.3614410    1.000000000000

     56   D      56             0.1513460    1.000000000000

     57   D      57             0.0575130    1.000000000000

     58   D      58             5.4967000    1.000000000000

     59   D      59             2.8925000    1.000000000000

     60   D      60             0.0218600    1.000000000000

     61   F      61             7.7828000    1.000000000000

     62   F      62             3.2584000    1.000000000000

     63   F      63             1.3641000    1.000000000000

     64   F      64             0.4564000    1.000000000000

     65   F      65             0.1527000    1.000000000000

     66   G      66             6.3816000    1.000000000000

     67   G      67             2.7717000    1.000000000000

     68   G      68             1.0505000    1.000000000000

     69   G      69             0.3981500    1.000000000000

 TOTAL NUMBER OF BASIS SET SHELLS             =   69
 NUMBER OF CARTESIAN GAUSSIAN BASIS FUNCTIONS =  282
 NOTE: THIS RUN WILL RESTRICT THE MO VARIATION SPACE TO SPHERICAL HARMONICS.
 THE NUMBER OF ORBITALS KEPT IN THE VARIATIONAL SPACE WILL BE PRINTED LATER.
 NUMBER OF ELECTRONS                          =   26
 CHARGE OF MOLECULE                           =    0
 SPIN MULTIPLICITY                            =    5
 NUMBER OF OCCUPIED ORBITALS (ALPHA)          =   15
 NUMBER OF OCCUPIED ORBITALS (BETA )          =   11
 TOTAL NUMBER OF ATOMS                        =    1
 THE NUCLEAR REPULSION ENERGY IS        0.0000000000
 NOTE THIS RUN IS USING CORE POTENTIALS, AND THE NUMBER OF ELECTRONS,
 OCCUPIED ORBITALS, AND NUCLEAR REPULSION ENERGY WILL BE ADJUSTED BELOW
 AFTER REMOVAL OF THE CORE CHARGES.

 THIS MOLECULE IS RECOGNIZED AS BEING LINEAR,
 ORBITAL LZ DEGENERACY TOLERANCE ETOLLZ= 1.00E-06

     $CONTRL OPTIONS
     ---------------
 SCFTYP=ROHF         RUNTYP=ENERGY       EXETYP=RUN     
 MPLEVL=       0     CITYP =NONE         CCTYP =NONE         VBTYP =NONE    
 DFTTYP=NONE         TDDFT =NONE    
 MULT  =       5     ICHARG=       0     NZVAR =       0     COORD =UNIQUE  
 PP    =READ         RELWFN=NONE         LOCAL =NONE         NUMGRD=       F
 ISPHER=       1     NOSYM =       0     MAXIT =     150     UNITS =ANGS    
 PLTORB=       F     MOLPLT=       F     AIMPAC=       F     FRIEND=        
 NPRINT=       7     IREST =       0     GEOM  =INPUT   
 NORMF =       0     NORMP =       0     ITOL  =      20     ICUT  =       9
 INTTYP=BEST         GRDTYP=BEST         QMTTOL= 1.0E-06

     $SYSTEM OPTIONS
     ---------------
  REPLICATED MEMORY=   125000000 WORDS (ON EVERY NODE).
 DISTRIBUTED MEMDDI=           0 MILLION WORDS IN AGGREGATE,
 MEMDDI DISTRIBUTED OVER   1 PROCESSORS IS           0 WORDS/PROCESSOR.
 TOTAL MEMORY REQUESTED ON EACH PROCESSOR=   125000000 WORDS.
 TIMLIM=      525600.00 MINUTES, OR     365.0 DAYS.
 PARALL= F  BALTYP=  DLB     KDIAG=    3  COREFL= F
 MXSEQ2=     300 MXSEQ3=     150  mem10=         0

          --------------
          ECP POTENTIALS
          --------------

 PARAMETERS FOR "FE-STU  " ON ATOM    1 WITH ZCORE  10 AND LMAX  3 ARE
 FOR L= 3      COEFF    N           ZETA
    1        0.00000    2        1.00000
 FOR L= 0      COEFF    N           ZETA
    1      253.74959    2       20.93000
    2       37.92285    2        9.44500
 FOR L= 1      COEFF    N           ZETA
    1      161.03681    2       21.76000
    2       27.65130    2        9.17800
 FOR L= 2      COEFF    N           ZETA
    1      -24.43128    2       25.90000
    2       -1.43425    2        8.83500

 THE ECP RUN REMOVES   10 CORE ELECTRONS, AND THE SAME NUMBER OF PROTONS.
 NUMBER OF ELECTRONS KEPT IN THE CALCULATION IS =   16
 NUMBER OF OCCUPIED ORBITALS (ALPHA) KEPT IS    =   10
 NUMBER OF OCCUPIED ORBITALS (BETA ) KEPT IS    =    6
 THE ADJUSTED NUCLEAR REPULSION ENERGY=        0.0000000000
          ECP ANGULAR INTS.........     0.01 SECONDS

          ----------------
          PROPERTIES INPUT
          ----------------

     MOMENTS            FIELD           POTENTIAL          DENSITY
 IEMOM =       1   IEFLD =       0   IEPOT =       0   IEDEN =       0
 WHERE =COMASS     WHERE =NUCLEI     WHERE =NUCLEI     WHERE =NUCLEI  
 OUTPUT=BOTH       OUTPUT=BOTH       OUTPUT=BOTH       OUTPUT=BOTH    
 IEMINT=       0   IEFINT=       0                     IEDINT=       0
                                                       MORB  =       0
          EXTRAPOLATION IN EFFECT
          SOSCF IN EFFECT
 ORBITAL PRINTING OPTION: NPREO=     1   282     2     1

     -------------------------------
     INTEGRAL TRANSFORMATION OPTIONS
     -------------------------------
     NWORD  =            0
     CUTOFF = 1.0E-09     MPTRAN =       0
     DIRTRF =       F     AOINTS =DUP     

          ----------------------
          INTEGRAL INPUT OPTIONS
          ----------------------
 NOPK  =       1 NORDER=       0 SCHWRZ=       F

     ------------------------------------------
     THE POINT GROUP IS C1 , NAXIS= 0, ORDER= 1
     ------------------------------------------

 -- VARIATIONAL SPACE WILL BE RESTRICTED TO PURE SPHERICAL HARMONICS ONLY --
 AFTER EXCLUDING CONTAMINANT COMBINATIONS FROM THE CARTESIAN GAUSSIAN BASIS
 SET, THE NUMBER OF SPHERICAL HARMONICS KEPT IN THE VARIATION SPACE IS  229

     DIMENSIONS OF THE SYMMETRY SUBSPACES ARE
 A   =  229

 ..... DONE SETTING UP THE RUN .....
 STEP CPU TIME =     0.29 TOTAL CPU TIME =        0.3 (    0.0 MIN)
 TOTAL WALL CLOCK TIME=        0.3 SECONDS, CPU UTILIZATION IS 100.00%

          ********************
          1 ELECTRON INTEGRALS
          ********************
 TIME TO DO ORDINARY INTEGRALS=      0.00
 TIME TO DO      ECP INTEGRALS=      0.00
 ...... END OF ONE-ELECTRON INTEGRALS ......
 STEP CPU TIME =     0.00 TOTAL CPU TIME =        0.3 (    0.0 MIN)
 TOTAL WALL CLOCK TIME=        0.3 SECONDS, CPU UTILIZATION IS  96.67%

          -------------
          GUESS OPTIONS
          -------------
          GUESS =MOREAD            NORB  =     225          NORDER=       1
          MIX   =       F          PRTMO =       F          PUNMO =       F
          TOLZ  = 1.0E-08          TOLE  = 1.0E-05
          SYMDEN=       F          PURIFY=       F

 INITIAL GUESS ORBITALS GENERATED BY MOREAD   ROUTINE.

 STATISTICS FOR GENERATION OF SYMMETRY ORBITAL -Q- MATRIX
 NUMBER OF CARTESIAN ATOMIC ORBITALS=        282
 NUMBER OF SPHERICAL CONTAMINANTS DROPPED=    53
 NUMBER OF LINEARLY DEPENDENT MOS DROPPED=     4
 TOTAL NUMBER OF MOS IN VARIATION SPACE=     225

 ...WARNING (SYMORB.SRC)...
 THE INPUT BASIS SET CONTAINS APPROXIMATE LINEAR DEPENDENCE.
 THE SMALLEST EIGENVALUE OF THE OVERLAP MATRIX IS   2.065913E-07
 THERE ARE    4 EIGENVALUES LESS THAN QMTTOL=  1.00E-06
 EIGENVECTORS BELOW -QMTTOL- ARE DROPPED FROM THE MO SPACE,
 IN ORDER TO ELIMINATE THE APPROXIMATE LINEAR DEPENDENCE.

 THIS WILL MOST LIKELY CHANGE THE ENERGY ON THE ORDER OF TENS OF MICROHARTREES,
 DEPENDING ON THE NUMBER OF ORBITALS REMOVED.  THE VALUE OF QMTTOL CAN BE 
 CHANGED IN $CONTRL: JOBS WITH EIGENVALUES BELOW 1.0E-07 PROBABLY WON'T
 CONVERGE.  EIGENVALUES BETWEEN 1.0E-07 AND 1.0E-06 MAY REQUIRE LOOSENING OF
 THE DENSITY CRITERION (CONV IN $SCF), MORE ACCURATE INTEGRAL EVALUATION
 (ICUT=11 IN $CONTRL), MORE ACCURATE DIRECT SCF FOCK MATRIX
 CONSTRUCTION (FDIFF=.FALSE. IN $SCF), OR CHANGING THE SCF CONVERGER
 (DIIS=.TRUE. IN $SCF).

                    * * * * * WARNING * * * * *
 POSSIBLE LINEAR DEPENDENCE PROBLEMS DETECTED, INPUT QMTTOL= 1.0E-06,
 WITH     3 OVERLAP EIGENVALUES LYING BETWEEN 1.0E-05 AND QMTTOL.
 IF YOU EXPERIENCE SCF CONVERGENCE DIFFICULTIES WITH THE DENSITY ALMOST BUT
 NOT QUITE CONVERGED, YOU MAY NEED TO LOOSEN -QMTTOL- BY A FACTOR 5 TO 10.

 SYMMETRIES FOR INITIAL GUESS ORBITALS FOLLOW.  ALPHA SET(S).
    10 ORBITALS ARE OCCUPIED (    4 CORE ORBITALS).
     5=A        6=A        7=A        8=A        9=A       10=A       11=A   
    12=A       13=A       14=A       15=A       16=A       17=A       18=A   
    19=A       20=A   

 SYMMETRIES FOR INITIAL GUESS ORBITALS FOLLOW.   BETA SET(S).
     6 ORBITALS ARE OCCUPIED (    4 CORE ORBITALS).
     5=A        6=A        7=A        8=A        9=A       10=A       11=A   
    12=A       13=A       14=A       15=A       16=A   
 ...... END OF INITIAL ORBITAL SELECTION ......
 STEP CPU TIME =     0.13 TOTAL CPU TIME =        0.4 (    0.0 MIN)
 TOTAL WALL CLOCK TIME=        0.4 SECONDS, CPU UTILIZATION IS  97.67%

                    ----------------------
                    AO INTEGRAL TECHNOLOGY
                    ----------------------
     S,P,L SHELL ROTATED AXIS INTEGRALS, REPROGRAMMED BY
        KAZUYA ISHIMURA (IMS) AND JOSE SIERRA (SYNSTAR).
     S,P,D,L SHELL ROTATED AXIS INTEGRALS PROGRAMMED BY
        KAZUYA ISHIMURA (INSTITUTE FOR MOLECULAR SCIENCE).
     S,P,D,F,G SHELL TO TOTAL QUARTET ANGULAR MOMENTUM SUM 5,
        ERIC PROGRAM BY GRAHAM FLETCHER (ELORET AND NASA ADVANCED
        SUPERCOMPUTING DIVISION, AMES RESEARCH CENTER).
     S,P,D,F,G,L SHELL GENERAL RYS QUADRATURE PROGRAMMED BY
        MICHEL DUPUIS (PACIFIC NORTHWEST NATIONAL LABORATORY).

          --------------------
          2 ELECTRON INTEGRALS
          --------------------

 THE -PK- OPTION IS OFF, THE INTEGRALS ARE NOT IN SUPERMATRIX FORM.
 STORING   15000 INTEGRALS/RECORD ON DISK, USING 16 BYTES/INTEGRAL.
 TWO ELECTRON INTEGRAL EVALUATION REQUIRES  142140 WORDS OF MEMORY.
 II,JST,KST,LST =  1  1  1  1 NREC =         1 INTLOC =    1
 II,JST,KST,LST =  2  1  1  1 NREC =         1 INTLOC =    2
 II,JST,KST,LST =  3  1  1  1 NREC =         1 INTLOC =    7
 II,JST,KST,LST =  4  1  1  1 NREC =         1 INTLOC =   22
 II,JST,KST,LST =  5  1  1  1 NREC =         1 INTLOC =   56
 II,JST,KST,LST =  6  1  1  1 NREC =         1 INTLOC =  121
 II,JST,KST,LST =  7  1  1  1 NREC =         1 INTLOC =  232
 II,JST,KST,LST =  8  1  1  1 NREC =         1 INTLOC =  407
 II,JST,KST,LST =  9  1  1  1 NREC =         1 INTLOC =  667
 II,JST,KST,LST = 10  1  1  1 NREC =         1 INTLOC = 1036
 II,JST,KST,LST = 11  1  1  1 NREC =         1 INTLOC = 1541
 II,JST,KST,LST = 12  1  1  1 NREC =         1 INTLOC = 2212
 II,JST,KST,LST = 13  1  1  1 NREC =         1 INTLOC = 3082
 II,JST,KST,LST = 14  1  1  1 NREC =         1 INTLOC = 4187
 II,JST,KST,LST = 15  1  1  1 NREC =         1 INTLOC = 5566
 II,JST,KST,LST = 16  1  1  1 NREC =         1 INTLOC = 7261
 II,JST,KST,LST = 17  1  1  1 NREC =         1 INTLOC = 9317
 II,JST,KST,LST = 18  1  1  1 NREC =         1 INTLOC =11782
 II,JST,KST,LST = 19  1  1  1 NREC =         1 INTLOC =14707
 II,JST,KST,LST = 20  1  1  1 NREC =         2 INTLOC = 3146
 II,JST,KST,LST = 21  1  1  1 NREC =         2 INTLOC = 7156
 II,JST,KST,LST = 22  1  1  1 NREC =         2 INTLOC =11797
 II,JST,KST,LST = 23  1  1  1 NREC =         3 INTLOC = 2132
 II,JST,KST,LST = 24  1  1  1 NREC =         3 INTLOC = 8227
 II,JST,KST,LST = 25  1  1  1 NREC =         4 INTLOC =  151
 II,JST,KST,LST = 26  1  1  1 NREC =         4 INTLOC = 7975
 II,JST,KST,LST = 27  1  1  1 NREC =         4 INTLOC = 9934
 II,JST,KST,LST = 28  1  1  1 NREC =         4 INTLOC =14800
 II,JST,KST,LST = 29  1  1  1 NREC =         5 INTLOC = 7681
 II,JST,KST,LST = 30  1  1  1 NREC =         6 INTLOC = 3748
 II,JST,KST,LST = 31  1  1  1 NREC =         7 INTLOC = 3232
 II,JST,KST,LST = 32  1  1  1 NREC =         8 INTLOC = 6400
 II,JST,KST,LST = 33  1  1  1 NREC =         9 INTLOC =13597
 II,JST,KST,LST = 34  1  1  1 NREC =        11 INTLOC =10234
 II,JST,KST,LST = 35  1  1  1 NREC =        13 INTLOC =11686
 II,JST,KST,LST = 36  1  1  1 NREC =        16 INTLOC = 3367
 II,JST,KST,LST = 37  1  1  1 NREC =        19 INTLOC =  838
 II,JST,KST,LST = 38  1  1  1 NREC =        22 INTLOC = 4627
 II,JST,KST,LST = 39  1  1  1 NREC =        26 INTLOC =  301
 II,JST,KST,LST = 40  1  1  1 NREC =        30 INTLOC = 3397
 II,JST,KST,LST = 41  1  1  1 NREC =        34 INTLOC =14158
 II,JST,KST,LST = 42  1  1  1 NREC =        40 INTLOC = 2347
 II,JST,KST,LST = 43  1  1  1 NREC =        45 INTLOC =12865
 II,JST,KST,LST = 44  1  1  1 NREC =        52 INTLOC =  232
 II,JST,KST,LST = 45  1  1  1 NREC =        59 INTLOC =11902
 II,JST,KST,LST = 46  1  1  1 NREC =        68 INTLOC = 5563
 II,JST,KST,LST = 47  1  1  1 NREC =        76 INTLOC = 9898
 II,JST,KST,LST = 48  1  1  1 NREC =        96 INTLOC = 4942
 II,JST,KST,LST = 49  1  1  1 NREC =       120 INTLOC = 9529
 II,JST,KST,LST = 50  1  1  1 NREC =       149 INTLOC =12790
 II,JST,KST,LST = 51  1  1  1 NREC =       184 INTLOC = 4174
 II,JST,KST,LST = 52  1  1  1 NREC =       224 INTLOC = 3466
 II,JST,KST,LST = 53  1  1  1 NREC =       269 INTLOC =14539
 II,JST,KST,LST = 54  1  1  1 NREC =       321 INTLOC = 9262
 II,JST,KST,LST = 55  1  1  1 NREC =       379 INTLOC = 3640
 II,JST,KST,LST = 56  1  1  1 NREC =       442 INTLOC =11845
 II,JST,KST,LST = 57  1  1  1 NREC =       511 INTLOC =13267
 II,JST,KST,LST = 58  1  1  1 NREC =       585 INTLOC = 4885
 II,JST,KST,LST = 59  1  1  1 NREC =       682 INTLOC =10297
 II,JST,KST,LST = 60  1  1  1 NREC =       790 INTLOC =13840
 II,JST,KST,LST = 61  1  1  1 NREC =       889 INTLOC = 5848
 II,JST,KST,LST = 62  1  1  1 NREC =      1098 INTLOC = 7660
 II,JST,KST,LST = 63  1  1  1 NREC =      1342 INTLOC = 6763
 II,JST,KST,LST = 64  1  1  1 NREC =      1621 INTLOC = 3627
 II,JST,KST,LST = 65  1  1  1 NREC =      1931 INTLOC =  704
 II,JST,KST,LST = 66  1  1  1 NREC =      2265 INTLOC =10892
 II,JST,KST,LST = 67  1  1  1 NREC =      2933 INTLOC = 7892
 II,JST,KST,LST = 68  1  1  1 NREC =      3726 INTLOC =12632
 II,JST,KST,LST = 69  1  1  1 NREC =      4647 INTLOC =13301
 TOTAL NUMBER OF NONZERO TWO-ELECTRON INTEGRALS =            85390543
       5693 INTEGRAL RECORDS WERE STORED ON DISK FILE  8.
  ...... END OF TWO-ELECTRON INTEGRALS .....
 STEP CPU TIME =    18.96 TOTAL CPU TIME =       19.4 (    0.3 MIN)
 TOTAL WALL CLOCK TIME=       21.4 SECONDS, CPU UTILIZATION IS  90.48%

          ---------------------------
                 ROHF SCF CALCULATION
          ---------------------------

     NUCLEAR ENERGY =         0.0000000000
     MAXIT =150     NPUNCH=  2     MULT=  5
     EXTRAP=T  DAMP=F  SHIFT=F  RSTRCT=F  DIIS=F  SOSCF=T
     DENSITY MATRIX CONV=  1.00E-05
     ROHF CANONICALIZATION PARAMETERS
             C-C     O-O     V-V
     ALPHA -0.5000  0.5000  1.5000
     BETA   1.5000  0.5000 -0.5000
     SOSCF WILL OPTIMIZE    2174 ORBITAL ROTATION ANGLES. SOGTOL= 2.500E-01
     MEMORY REQUIRED FOR UHF/ROHF ITERS=    762106 WORDS.

 ITER EX      TOTAL ENERGY        E CHANGE  DENSITY CHANGE    ORB. GRAD 
   1  0     -123.0920502332  -123.0920502332   0.578524636   0.000000000
          ---------------START SECOND ORDER SCF---------------
   2  1     -123.1098830966    -0.0178328634   0.098827276   0.030204391
   3  2     -123.0901337933     0.0197493033   0.068825631   0.052462731
   4  3     -123.1142455827    -0.0241117894   0.127677018   0.041086522
   5  4     -123.0833410815     0.0309045012   0.098236117   0.089081215
   6  5     -123.1182274388    -0.0348863573   0.050432977   0.015779316
   7  6     -123.1072464268     0.0109810120   0.040713907   0.046028024
   8  7     -123.1195600890    -0.0123136622   0.017185928   0.002882080
   9  8     -123.1193872318     0.0001728572   0.013737378   0.008226124
  10  9     -123.1195880101    -0.0002007783   0.011978308   0.002995025
  11 10     -123.1194555702     0.0001324399   0.010751448   0.006360515
  12 11     -123.1196017028    -0.0001461326   0.013425058   0.002431874
  13 12     -123.1194704403     0.0001312626   0.010060367   0.004383498
  14 13     -123.1196306687    -0.0001602285   0.002260880   0.000273629
  15 14     -123.1196302057     0.0000004630   0.001540942   0.000498067
  16 15     -123.1196309466    -0.0000007408   0.000285159   0.000040322
  17 16     -123.1196309370     0.0000000096   0.000168166   0.000062117
  18 17     -123.1196309519    -0.0000000149   0.000004177   0.000001320
  19 18     -123.1196309518     0.0000000000   0.000002471   0.000002116
  20 19     -123.1196309519    -0.0000000000   0.000000389   0.000000110

          -----------------
          DENSITY CONVERGED
          -----------------
     TIME TO FORM FOCK OPERATORS=      23.6 SECONDS (       1.2 SEC/ITER)
     TIME TO SOLVE SCF EQUATIONS=       0.6 SECONDS (       0.0 SEC/ITER)

 FINAL ROHF ENERGY IS     -123.1196309519 AFTER  20 ITERATIONS

          --------------------
          SPIN SZ   =    2.000
          S-SQUARED =    6.000
          --------------------

 LZ VALUE ANALYSIS FOR THE MOS
 ----------------------------------------
 MO     1 (    1) HAS LZ(WEIGHT)= 0.00(100.0%) 
 MO     2 (    2) HAS LZ(WEIGHT)=-1.00( 50.0%)  1.00( 50.0%) 
 MO     3 (    2) HAS LZ(WEIGHT)=-1.00( 50.0%)  1.00( 50.0%) 
 MO     4 (    3) HAS LZ(WEIGHT)= 0.00(100.0%) 
 MO     5 (    4) HAS LZ(WEIGHT)= 0.00(100.0%) 
 MO     6 (    5) HAS LZ(WEIGHT)= 0.00(100.0%) 
 MO     7 (    6) HAS LZ(WEIGHT)= 0.00(100.0%) 
 MO     8 (    7) HAS LZ(WEIGHT)=-1.00( 50.0%)  1.00( 50.0%) 
 MO     9 (    7) HAS LZ(WEIGHT)=-1.00( 50.0%)  1.00( 50.0%) 
 MO    10 (    8) HAS LZ(WEIGHT)= 0.00(100.0%) 
 MO    11 (    9) HAS LZ(WEIGHT)= 0.00(100.0%) 
 MO    12 (   10) HAS LZ(WEIGHT)=-1.00( 50.0%)  1.00( 50.0%) 
 MO    13 (   10) HAS LZ(WEIGHT)=-1.00( 50.0%)  1.00( 50.0%) 
 MO    14 (   11) HAS LZ(WEIGHT)= 0.00(100.0%) 
 MO    15 (   12) HAS LZ(WEIGHT)= 0.00(100.0%) 
 MO    16 (   13) HAS LZ(WEIGHT)=-1.00( 50.0%)  1.00( 50.0%) 
 MO    17 (   13) HAS LZ(WEIGHT)=-1.00( 50.0%)  1.00( 50.0%) 
 MO    18 (   14) HAS LZ(WEIGHT)= 0.00(100.0%) 
 MO    19 (   15) HAS LZ(WEIGHT)=-1.00( 50.0%)  1.00( 50.0%) 
 MO    20 (   15) HAS LZ(WEIGHT)=-1.00( 50.0%)  1.00( 50.0%) 
 MO    21 (   16) HAS LZ(WEIGHT)= 0.00(100.0%) 
 MO    22 (   17) HAS LZ(WEIGHT)= 0.00(100.0%) 
 MO    23 (   18) HAS LZ(WEIGHT)= 0.00(100.0%) 
 MO    24 (   19) HAS LZ(WEIGHT)= 0.00(100.0%) 
 MO    25 (   20) HAS LZ(WEIGHT)=-1.00( 50.0%)  1.00( 50.0%) 
 MO    26 (   20) HAS LZ(WEIGHT)=-1.00( 50.0%)  1.00( 50.0%) 
 MO    27 (   21) HAS LZ(WEIGHT)= 0.00(100.0%) 
 MO    28 (   22) HAS LZ(WEIGHT)=-1.00( 50.0%)  1.00( 50.0%) 
 MO    29 (   22) HAS LZ(WEIGHT)=-1.00( 50.0%)  1.00( 50.0%) 
 MO    30 (   23) HAS LZ(WEIGHT)= 0.00(100.0%) 
 MO    31 (   24) HAS LZ(WEIGHT)= 0.00(100.0%) 
 MO    32 (   25) HAS LZ(WEIGHT)= 0.00(100.0%) 
 MO    33 (   26) HAS LZ(WEIGHT)= 0.00(100.0%) 
 MO    34 (   27) HAS LZ(WEIGHT)=-1.00( 50.0%)  1.00( 50.0%) 
 MO    35 (   27) HAS LZ(WEIGHT)=-1.00( 50.0%)  1.00( 50.0%) 
 MO    36 (   28) HAS LZ(WEIGHT)= 0.00(100.0%) 
 MO    37 (   29) HAS LZ(WEIGHT)= 0.00(100.0%) 
 MO    38 (   30) HAS LZ(WEIGHT)=-0.92( 50.0%)  0.92( 50.0%) 
 MO    39 (   30) HAS LZ(WEIGHT)=-0.92( 50.0%)  0.92( 50.0%) 
 MO    40 (   31) HAS LZ(WEIGHT)= 0.00(100.0%) 
 MO    41 (   32) HAS LZ(WEIGHT)= 0.00(100.0%) 
 MO    42 (   33) HAS LZ(WEIGHT)=-2.91( 50.0%)  2.91( 50.0%) 
 MO    43 (   33) HAS LZ(WEIGHT)=-2.91( 50.0%)  2.91( 50.0%) 
 MO    44 (   34) HAS LZ(WEIGHT)= 0.00(100.0%) 
 MO    45 (   35) HAS LZ(WEIGHT)= 0.00(100.0%) 
 MO    46 (   36) HAS LZ(WEIGHT)=-1.00( 50.0%)  1.00( 50.0%) 
 MO    47 (   36) HAS LZ(WEIGHT)=-1.00( 50.0%)  1.00( 50.0%) 
 MO    48 (   37) HAS LZ(WEIGHT)= 0.00(100.0%) 
 MO    49 (   38) HAS LZ(WEIGHT)=-1.00( 50.0%)  1.00( 50.0%) 
 MO    50 (   38) HAS LZ(WEIGHT)=-1.00( 50.0%)  1.00( 50.0%) 
 MO    51 (   39) HAS LZ(WEIGHT)= 0.00(100.0%) 
 MO    52 (   40) HAS LZ(WEIGHT)= 0.00(100.0%) 
 MO    53 (   41) HAS LZ(WEIGHT)= 0.00(100.0%) 
 MO    54 (   42) HAS LZ(WEIGHT)=-0.82( 50.0%)  0.82( 50.0%) 
 MO    55 (   42) HAS LZ(WEIGHT)=-0.82( 50.0%)  0.82( 50.0%) 
 MO    56 (   43) HAS LZ(WEIGHT)= 0.00(100.0%) 
 MO    57 (   44) HAS LZ(WEIGHT)= 0.00(100.0%) 
 MO    58 (   45) HAS LZ(WEIGHT)=-2.81( 50.0%)  2.81( 50.0%) 
 MO    59 (   45) HAS LZ(WEIGHT)=-2.81( 50.0%)  2.81( 50.0%) 
 MO    60 (   46) HAS LZ(WEIGHT)= 0.00(100.0%) 
 MO    61 (   47) HAS LZ(WEIGHT)=-0.63( 50.0%)  0.63( 50.0%) 
 MO    62 (   47) HAS LZ(WEIGHT)=-0.63( 50.0%)  0.63( 50.0%) 
 MO    63 (   48) HAS LZ(WEIGHT)= 0.00(100.0%) 
 MO    64 (   49) HAS LZ(WEIGHT)= 0.00(100.0%) 
 MO    65 (   50) HAS LZ(WEIGHT)=-2.63( 50.0%)  2.63( 50.0%) 
 MO    66 (   50) HAS LZ(WEIGHT)=-2.63( 50.0%)  2.63( 50.0%) 
 MO    67 (   51) HAS LZ(WEIGHT)= 0.00(100.0%) 
 MO    68 (   52) HAS LZ(WEIGHT)= 0.00(100.0%) 
 MO    69 (   53) HAS LZ(WEIGHT)= 0.00(100.0%) 
 MO    70 (   54) HAS LZ(WEIGHT)= 0.00(100.0%) 
 MO    71 (   55) HAS LZ(WEIGHT)=-0.99( 50.0%)  0.99( 50.0%) 
 MO    72 (   55) HAS LZ(WEIGHT)=-0.99( 50.0%)  0.99( 50.0%) 
 MO    73 (   56) HAS LZ(WEIGHT)= 0.00(100.0%) 
 MO    74 (   57) HAS LZ(WEIGHT)=-1.00( 50.0%)  1.00( 50.0%) 
 MO    75 (   57) HAS LZ(WEIGHT)=-1.00( 50.0%)  1.00( 50.0%) 
 MO    76 (   58) HAS LZ(WEIGHT)= 0.00(100.0%) 
 MO    77 (   59) HAS LZ(WEIGHT)= 0.00(100.0%) 
 MO    78 (   60) HAS LZ(WEIGHT)= 0.00(100.0%) 
 MO    79 (   61) HAS LZ(WEIGHT)=-0.79( 50.0%)  0.79( 50.0%) 
 MO    80 (   61) HAS LZ(WEIGHT)=-0.79( 50.0%)  0.79( 50.0%) 
 MO    81 (   62) HAS LZ(WEIGHT)= 0.00(100.0%) 
 MO    82 (   63) HAS LZ(WEIGHT)= 0.00(100.0%) 
 MO    83 (   64) HAS LZ(WEIGHT)=-2.79( 50.0%)  2.79( 50.0%) 
 MO    84 (   64) HAS LZ(WEIGHT)=-2.79( 50.0%)  2.79( 50.0%) 
 MO    85 (   65) HAS LZ(WEIGHT)= 0.00(100.0%) 
 MO    86 (   66) HAS LZ(WEIGHT)=-0.50( 50.0%)  0.50( 50.0%) 
 MO    87 (   66) HAS LZ(WEIGHT)=-0.50( 50.0%)  0.50( 50.0%) 
 MO    88 (   67) HAS LZ(WEIGHT)= 0.00(100.0%) 
 MO    89 (   68) HAS LZ(WEIGHT)= 0.00(100.0%) 
 MO    90 (   69) HAS LZ(WEIGHT)=-2.50( 50.0%)  2.50( 50.0%) 
 MO    91 (   69) HAS LZ(WEIGHT)=-2.50( 50.0%)  2.50( 50.0%) 
 MO    92 (   70) HAS LZ(WEIGHT)= 0.00(100.0%) 
 MO    93 (   71) HAS LZ(WEIGHT)= 0.00(100.0%) 
 MO    94 (   72) HAS LZ(WEIGHT)= 0.00(100.0%) 
 MO    95 (   73) HAS LZ(WEIGHT)=-1.00( 50.0%)  1.00( 50.0%) 
 MO    96 (   73) HAS LZ(WEIGHT)=-1.00( 50.0%)  1.00( 50.0%) 
 MO    97 (   74) HAS LZ(WEIGHT)= 0.00(100.0%) 
 MO    98 (   75) HAS LZ(WEIGHT)= 0.00(100.0%) 
 MO    99 (   76) HAS LZ(WEIGHT)=-1.00( 50.0%)  1.00( 50.0%) 
 MO   100 (   76) HAS LZ(WEIGHT)=-1.00( 50.0%)  1.00( 50.0%) 
 MO   101 (   77) HAS LZ(WEIGHT)= 0.00(100.0%) 
 MO   102 (   78) HAS LZ(WEIGHT)= 0.00(100.0%) 
 MO   103 (   79) HAS LZ(WEIGHT)= 0.00(100.0%) 
 MO   104 (   80) HAS LZ(WEIGHT)=-0.79( 50.0%)  0.79( 50.0%) 
 MO   105 (   80) HAS LZ(WEIGHT)=-0.79( 50.0%)  0.79( 50.0%) 
 MO   106 (   81) HAS LZ(WEIGHT)= 0.00(100.0%) 
 MO   107 (   82) HAS LZ(WEIGHT)= 0.00(100.0%) 
 MO   108 (   83) HAS LZ(WEIGHT)=-2.79( 50.0%)  2.79( 50.0%) 
 MO   109 (   83) HAS LZ(WEIGHT)=-2.79( 50.0%)  2.79( 50.0%) 
 MO   110 (   84) HAS LZ(WEIGHT)= 0.00(100.0%) 
 MO   111 (   85) HAS LZ(WEIGHT)=-1.00( 50.0%)  1.00( 50.0%) 
 MO   112 (   85) HAS LZ(WEIGHT)=-1.00( 50.0%)  1.00( 50.0%) 
 MO   113 (   86) HAS LZ(WEIGHT)= 0.00(100.0%) 
 MO   114 (   87) HAS LZ(WEIGHT)=-0.47( 50.0%)  0.47( 50.0%) 
 MO   115 (   87) HAS LZ(WEIGHT)=-0.47( 50.0%)  0.47( 50.0%) 
 MO   116 (   88) HAS LZ(WEIGHT)= 0.00(100.0%) 
 MO   117 (   89) HAS LZ(WEIGHT)= 0.00(100.0%) 
 MO   118 (   90) HAS LZ(WEIGHT)=-2.47( 50.0%)  2.47( 50.0%) 
 MO   119 (   90) HAS LZ(WEIGHT)=-2.47( 50.0%)  2.47( 50.0%) 
 MO   120 (   91) HAS LZ(WEIGHT)= 0.00(100.0%) 
 MO   121 (   92) HAS LZ(WEIGHT)= 0.00(100.0%) 
 MO   122 (   93) HAS LZ(WEIGHT)= 0.00(100.0%) 
 MO   123 (   94) HAS LZ(WEIGHT)=-1.00( 50.0%)  1.00( 50.0%) 
 MO   124 (   94) HAS LZ(WEIGHT)=-1.00( 50.0%)  1.00( 50.0%) 
 MO   125 (   95) HAS LZ(WEIGHT)= 0.00(100.0%) 
 MO   126 (   96) HAS LZ(WEIGHT)= 0.00(100.0%) 
 MO   127 (   97) HAS LZ(WEIGHT)= 0.00(100.0%) 
 MO   128 (   98) HAS LZ(WEIGHT)= 0.00(100.0%) 
 MO   129 (   99) HAS LZ(WEIGHT)=-1.00( 50.0%)  1.00( 50.0%) 
 MO   130 (   99) HAS LZ(WEIGHT)=-1.00( 50.0%)  1.00( 50.0%) 
 MO   131 (  100) HAS LZ(WEIGHT)= 0.00(100.0%) 
 MO   132 (  101) HAS LZ(WEIGHT)=-1.00( 50.0%)  1.00( 50.0%) 
 MO   133 (  101) HAS LZ(WEIGHT)=-1.00( 50.0%)  1.00( 50.0%) 
 MO   134 (  102) HAS LZ(WEIGHT)= 0.00(100.0%) 
 MO   135 (  103) HAS LZ(WEIGHT)= 0.00(100.0%) 
 MO   136 (  104) HAS LZ(WEIGHT)= 0.00(100.0%) 
 MO   137 (  105) HAS LZ(WEIGHT)=-0.82( 50.0%)  0.82( 50.0%) 
 MO   138 (  105) HAS LZ(WEIGHT)=-0.82( 50.0%)  0.82( 50.0%) 
 MO   139 (  106) HAS LZ(WEIGHT)= 0.00(100.0%) 
 MO   140 (  107) HAS LZ(WEIGHT)= 0.00(100.0%) 
 MO   141 (  108) HAS LZ(WEIGHT)=-2.82( 50.0%)  2.82( 50.0%) 
 MO   142 (  108) HAS LZ(WEIGHT)=-2.82( 50.0%)  2.82( 50.0%) 
 MO   143 (  109) HAS LZ(WEIGHT)= 0.00(100.0%) 
 MO   144 (  110) HAS LZ(WEIGHT)=-0.49( 50.0%)  0.49( 50.0%) 
 MO   145 (  110) HAS LZ(WEIGHT)=-0.49( 50.0%)  0.49( 50.0%) 
 MO   146 (  111) HAS LZ(WEIGHT)= 0.00(100.0%) 
 MO   147 (  112) HAS LZ(WEIGHT)= 0.00(100.0%) 
 MO   148 (  113) HAS LZ(WEIGHT)=-2.49( 50.0%)  2.49( 50.0%) 
 MO   149 (  113) HAS LZ(WEIGHT)=-2.49( 50.0%)  2.49( 50.0%) 
 MO   150 (  114) HAS LZ(WEIGHT)= 0.00(100.0%) 
 MO   151 (  115) HAS LZ(WEIGHT)= 0.00(100.0%) 
 MO   152 (  116) HAS LZ(WEIGHT)= 0.00(100.0%) 
 MO   153 (  117) HAS LZ(WEIGHT)= 0.00(100.0%) 
 MO   154 (  118) HAS LZ(WEIGHT)=-1.00( 50.0%)  1.00( 50.0%) 
 MO   155 (  118) HAS LZ(WEIGHT)=-1.00( 50.0%)  1.00( 50.0%) 
 MO   156 (  119) HAS LZ(WEIGHT)= 0.00(100.0%) 
 MO   157 (  120) HAS LZ(WEIGHT)= 0.00(100.0%) 
 MO   158 (  121) HAS LZ(WEIGHT)= 0.00(100.0%) 
 MO   159 (  122) HAS LZ(WEIGHT)=-1.00( 50.0%)  1.00( 50.0%) 
 MO   160 (  122) HAS LZ(WEIGHT)=-1.00( 50.0%)  1.00( 50.0%) 
 MO   161 (  123) HAS LZ(WEIGHT)= 0.00(100.0%) 
 MO   162 (  124) HAS LZ(WEIGHT)= 0.00(100.0%) 
 MO   163 (  125) HAS LZ(WEIGHT)=-1.00( 50.0%)  1.00( 50.0%) 
 MO   164 (  125) HAS LZ(WEIGHT)=-1.00( 50.0%)  1.00( 50.0%) 
 MO   165 (  126) HAS LZ(WEIGHT)= 0.00(100.0%) 
 MO   166 (  127) HAS LZ(WEIGHT)= 0.00(100.0%) 
 MO   167 (  128) HAS LZ(WEIGHT)= 0.00(100.0%) 
 MO   168 (  129) HAS LZ(WEIGHT)=-1.00( 50.0%)  1.00( 50.0%) 
 MO   169 (  129) HAS LZ(WEIGHT)=-1.00( 50.0%)  1.00( 50.0%) 
 MO   170 (  130) HAS LZ(WEIGHT)= 0.00(100.0%) 
 MO   171 (  131) HAS LZ(WEIGHT)= 0.00(100.0%) 
 MO   172 (  132) HAS LZ(WEIGHT)=-1.00( 50.0%)  1.00( 50.0%) 
 MO   173 (  132) HAS LZ(WEIGHT)=-1.00( 50.0%)  1.00( 50.0%) 
 MO   174 (  133) HAS LZ(WEIGHT)= 0.00(100.0%) 
 MO   175 (  134) HAS LZ(WEIGHT)= 0.00(100.0%) 
 MO   176 (  135) HAS LZ(WEIGHT)= 0.00(100.0%) 
 MO   177 (  136) HAS LZ(WEIGHT)=-1.00( 50.0%)  1.00( 50.0%) 
 MO   178 (  136) HAS LZ(WEIGHT)=-1.00( 50.0%)  1.00( 50.0%) 
 MO   179 (  137) HAS LZ(WEIGHT)= 0.00(100.0%) 
 MO   180 (  138) HAS LZ(WEIGHT)= 0.00(100.0%) 
 MO   181 (  139) HAS LZ(WEIGHT)=-1.00( 50.0%)  1.00( 50.0%) 
 MO   182 (  139) HAS LZ(WEIGHT)=-1.00( 50.0%)  1.00( 50.0%) 
 MO   183 (  140) HAS LZ(WEIGHT)= 0.00(100.0%) 
 MO   184 (  141) HAS LZ(WEIGHT)=-1.00( 50.0%)  1.00( 50.0%) 
 MO   185 (  141) HAS LZ(WEIGHT)=-1.00( 50.0%)  1.00( 50.0%) 
 MO   186 (  142) HAS LZ(WEIGHT)= 0.00(100.0%) 
 MO   187 (  143) HAS LZ(WEIGHT)= 0.00(100.0%) 
 MO   188 (  144) HAS LZ(WEIGHT)= 0.00(100.0%) 
 MO   189 (  145) HAS LZ(WEIGHT)= 0.00(100.0%) 
 MO   190 (  146) HAS LZ(WEIGHT)=-1.00( 50.0%)  1.00( 50.0%) 
 MO   191 (  146) HAS LZ(WEIGHT)=-1.00( 50.0%)  1.00( 50.0%) 
 MO   192 (  147) HAS LZ(WEIGHT)= 0.00(100.0%) 
 MO   193 (  148) HAS LZ(WEIGHT)= 0.00(100.0%) 
 MO   194 (  149) HAS LZ(WEIGHT)=-1.00( 50.0%)  1.00( 50.0%) 
 MO   195 (  149) HAS LZ(WEIGHT)=-1.00( 50.0%)  1.00( 50.0%) 
 MO   196 (  150) HAS LZ(WEIGHT)= 0.00(100.0%) 
 MO   197 (  151) HAS LZ(WEIGHT)=-1.00( 50.0%)  1.00( 50.0%) 
 MO   198 (  151) HAS LZ(WEIGHT)=-1.00( 50.0%)  1.00( 50.0%) 
 MO   199 (  152) HAS LZ(WEIGHT)= 0.00(100.0%) 
 MO   200 (  153) HAS LZ(WEIGHT)= 0.00(100.0%) 
 MO   201 (  154) HAS LZ(WEIGHT)= 0.00(100.0%) 
 MO   202 (  155) HAS LZ(WEIGHT)= 0.00(100.0%) 
 MO   203 (  156) HAS LZ(WEIGHT)=-1.00( 50.0%)  1.00( 50.0%) 
 MO   204 (  156) HAS LZ(WEIGHT)=-1.00( 50.0%)  1.00( 50.0%) 
 MO   205 (  157) HAS LZ(WEIGHT)= 0.00(100.0%) 
 MO   206 (  158) HAS LZ(WEIGHT)= 0.00(100.0%) 
 MO   207 (  159) HAS LZ(WEIGHT)=-1.00( 50.0%)  1.00( 50.0%) 
 MO   208 (  159) HAS LZ(WEIGHT)=-1.00( 50.0%)  1.00( 50.0%) 
 MO   209 (  160) HAS LZ(WEIGHT)= 0.00(100.0%) 
 MO   210 (  161) HAS LZ(WEIGHT)= 0.00(100.0%) 
 MO   211 (  162) HAS LZ(WEIGHT)=-1.00( 50.0%)  1.00( 50.0%) 
 MO   212 (  162) HAS LZ(WEIGHT)=-1.00( 50.0%)  1.00( 50.0%) 
 MO   213 (  163) HAS LZ(WEIGHT)= 0.00(100.0%) 
 MO   214 (  164) HAS LZ(WEIGHT)= 0.00(100.0%) 
 MO   215 (  165) HAS LZ(WEIGHT)=-1.00( 50.0%)  1.00( 50.0%) 
 MO   216 (  165) HAS LZ(WEIGHT)=-1.00( 50.0%)  1.00( 50.0%) 
 MO   217 (  166) HAS LZ(WEIGHT)= 0.00(100.0%) 
 MO   218 (  167) HAS LZ(WEIGHT)= 0.00(100.0%) 
 MO   219 (  168) HAS LZ(WEIGHT)=-1.00( 50.0%)  1.00( 50.0%) 
 MO   220 (  168) HAS LZ(WEIGHT)=-1.00( 50.0%)  1.00( 50.0%) 
 MO   221 (  169) HAS LZ(WEIGHT)= 0.00(100.0%) 
 MO   222 (  170) HAS LZ(WEIGHT)= 0.00(100.0%) 
 MO   223 (  171) HAS LZ(WEIGHT)= 0.00(100.0%) 
 MO   224 (  172) HAS LZ(WEIGHT)= 0.00(100.0%) 
 MO   225 (  173) HAS LZ(WEIGHT)= 0.00(100.0%) 

          ------------
          EIGENVECTORS
          ------------

                      1          2          3          4          5
                   -3.9490    -2.3525    -2.3525    -2.2160    -0.4164
                     A          A          A          A          A   
    1  FE 1  S    0.000000  -0.000000  -0.000000   0.000000  -0.000000
    2  FE 1  S    0.000000  -0.000000  -0.000000   0.000000  -0.000000
    3  FE 1  S    0.000000  -0.000000  -0.000000   0.000000  -0.000000
    4  FE 1  S    0.000001  -0.000000  -0.000000   0.000000  -0.000000
    5  FE 1  S    0.000000  -0.000000  -0.000000   0.000000  -0.000000
    6  FE 1  S    0.000012  -0.000000  -0.000000   0.000000  -0.000000
    7  FE 1  S   -0.000005  -0.000000  -0.000000   0.000000  -0.000000
    8  FE 1  S    0.000118  -0.000000  -0.000000   0.000000  -0.000000
    9  FE 1  S   -0.000103  -0.000000  -0.000000   0.000000  -0.000000
   10  FE 1  S    0.000887  -0.000000  -0.000000   0.000000  -0.000000
   11  FE 1  S   -0.001289  -0.000000  -0.000000   0.000000  -0.000000
   12  FE 1  S    0.005647  -0.000000  -0.000000   0.000000  -0.000000
   13  FE 1  S   -0.017201  -0.000000  -0.000000   0.000000  -0.000000
   14  FE 1  S    0.105860  -0.000000  -0.000000   0.000000  -0.000000
   15  FE 1  S   -0.183670  -0.000000  -0.000000   0.000000  -0.000000
   16  FE 1  S   -0.329251  -0.000000  -0.000000   0.000000  -0.000000
   17  FE 1  S    0.372725  -0.000000  -0.000000   0.000000  -0.000000
   18  FE 1  S    0.784144  -0.000000  -0.000000   0.000000   0.000000
   19  FE 1  S    0.286474  -0.000000  -0.000000   0.000000  -0.000000
   20  FE 1  S    0.013184  -0.000000  -0.000000   0.000000  -0.000000
   21  FE 1  S   -0.005118  -0.000000  -0.000000   0.000000  -0.000000
   22  FE 1  S    0.003720  -0.000000  -0.000000   0.000000  -0.000000
   23  FE 1  S   -0.047620  -0.000000  -0.000000   0.000000  -0.000000
   24  FE 1  S   -0.122931  -0.000000  -0.000000   0.000000  -0.000000
   25  FE 1  S   -0.000852  -0.000000  -0.000000   0.000000  -0.000000
   26  FE 1  X    0.000000  -0.000000  -0.000000   0.000000  -0.000000
   27  FE 1  Y    0.000000  -0.000000  -0.000000   0.000000  -0.000000
   28  FE 1  Z    0.000000  -0.000000  -0.000000  -0.000000  -0.000000
   29  FE 1  X    0.000000   0.000001  -0.000000   0.000000  -0.000000
   30  FE 1  Y    0.000000  -0.000000   0.000001   0.000000  -0.000000
   31  FE 1  Z    0.000000  -0.000000  -0.000000   0.000001  -0.000000
   32  FE 1  X    0.000000  -0.000000  -0.000000   0.000000  -0.000000
   33  FE 1  Y    0.000000  -0.000000  -0.000000   0.000000  -0.000000
   34  FE 1  Z    0.000000  -0.000000  -0.000000  -0.000000  -0.000000
   35  FE 1  X    0.000000   0.000027  -0.000000   0.000000  -0.000000
   36  FE 1  Y    0.000000  -0.000000   0.000027   0.000000  -0.000000
   37  FE 1  Z    0.000000  -0.000000  -0.000000   0.000027  -0.000000
   38  FE 1  X    0.000000   0.000000  -0.000000   0.000000  -0.000000
   39  FE 1  Y    0.000000  -0.000000   0.000000   0.000000  -0.000000
   40  FE 1  Z    0.000000  -0.000000  -0.000000   0.000001  -0.000000
   41  FE 1  X    0.000000   0.000336  -0.000000   0.000000  -0.000000
   42  FE 1  Y    0.000000  -0.000000   0.000336   0.000000  -0.000000
   43  FE 1  Z    0.000000  -0.000000  -0.000000   0.000334  -0.000000
   44  FE 1  X    0.000000  -0.000183  -0.000000   0.000000  -0.000000
   45  FE 1  Y    0.000000  -0.000000  -0.000183   0.000000  -0.000000
   46  FE 1  Z    0.000000  -0.000000  -0.000000  -0.000179  -0.000000
   47  FE 1  X    0.000000   0.002535  -0.000000   0.000000  -0.000000
   48  FE 1  Y    0.000000  -0.000000   0.002535   0.000000  -0.000000
   49  FE 1  Z    0.000000  -0.000000  -0.000000   0.002522  -0.000000
   50  FE 1  X    0.000000   0.006710  -0.000000   0.000000  -0.000000
   51  FE 1  Y    0.000000  -0.000000   0.006710   0.000000  -0.000000
   52  FE 1  Z    0.000000  -0.000000  -0.000000   0.006766  -0.000000
   53  FE 1  X    0.000000  -0.066413  -0.000000   0.000000  -0.000000
   54  FE 1  Y    0.000000  -0.000000  -0.066413   0.000000  -0.000000
   55  FE 1  Z    0.000000  -0.000000  -0.000000  -0.066470  -0.000000
   56  FE 1  X    0.000000   0.017071  -0.000000   0.000000  -0.000000
   57  FE 1  Y    0.000000  -0.000000   0.017071   0.000000  -0.000000
   58  FE 1  Z    0.000000  -0.000000  -0.000000   0.015798  -0.000000
   59  FE 1  X    0.000000   0.179473  -0.000000   0.000000  -0.000000
   60  FE 1  Y    0.000000  -0.000000   0.179473   0.000000  -0.000000
   61  FE 1  Z    0.000000  -0.000000  -0.000000   0.179388  -0.000000
   62  FE 1  X    0.000000   0.236114  -0.000000   0.000000  -0.000000
   63  FE 1  Y    0.000000  -0.000000   0.236114   0.000000  -0.000000
   64  FE 1  Z    0.000000  -0.000000  -0.000000   0.235894  -0.000000
   65  FE 1  X    0.000000   0.387571  -0.000000   0.000000  -0.000000
   66  FE 1  Y    0.000000  -0.000000   0.387571   0.000000  -0.000000
   67  FE 1  Z    0.000000  -0.000000  -0.000000   0.389232  -0.000000
   68  FE 1  X    0.000000   0.158185  -0.000000   0.000000  -0.000000
   69  FE 1  Y    0.000000  -0.000000   0.158185   0.000000  -0.000000
   70  FE 1  Z    0.000000  -0.000000  -0.000000   0.155332  -0.000000
   71  FE 1  X    0.000000   0.016641  -0.000000   0.000000  -0.000000
   72  FE 1  Y    0.000000  -0.000000   0.016641   0.000000  -0.000000
   73  FE 1  Z    0.000000  -0.000000  -0.000000   0.015280  -0.000000
   74  FE 1  X    0.000000  -0.001794  -0.000000   0.000000  -0.000000
   75  FE 1  Y    0.000000  -0.000000  -0.001794   0.000000  -0.000000
   76  FE 1  Z    0.000000  -0.000000  -0.000000  -0.001651  -0.000000
   77  FE 1  X    0.000000   0.001054  -0.000000   0.000000  -0.000000
   78  FE 1  Y    0.000000  -0.000000   0.001054   0.000000  -0.000000
   79  FE 1  Z    0.000000  -0.000000  -0.000000   0.000976  -0.000000
   80  FE 1  X    0.000000  -0.053718  -0.000000   0.000000  -0.000000
   81  FE 1  Y    0.000000  -0.000000  -0.053718   0.000000  -0.000000
   82  FE 1  Z    0.000000  -0.000000  -0.000000  -0.052916  -0.000000
   83  FE 1  X    0.000000   0.175744  -0.000000   0.000000  -0.000000
   84  FE 1  Y    0.000000  -0.000000   0.175744   0.000000  -0.000000
   85  FE 1  Z    0.000000  -0.000000  -0.000000   0.177544  -0.000000
   86  FE 1  X    0.000000  -0.000312  -0.000000   0.000000  -0.000000
   87  FE 1  Y    0.000000  -0.000000  -0.000312   0.000000  -0.000000
   88  FE 1  Z    0.000000  -0.000000  -0.000000  -0.000288  -0.000000
   89  FE 1 XX    0.000000  -0.000000  -0.000000   0.000000  -0.000159
   90  FE 1 YY    0.000000  -0.000000  -0.000000   0.000000   0.000159
   91  FE 1 ZZ   -0.000000  -0.000000  -0.000000   0.000000  -0.000000
   92  FE 1 XY    0.000000  -0.000000  -0.000000   0.000000  -0.000000
   93  FE 1 XZ    0.000000  -0.000000  -0.000000   0.000000  -0.000000
   94  FE 1 YZ    0.000000  -0.000000  -0.000000   0.000000  -0.000000
   95  FE 1 XX    0.000002  -0.000000  -0.000000   0.000000  -0.001592
   96  FE 1 YY    0.000002  -0.000000  -0.000000   0.000000   0.001592
   97  FE 1 ZZ   -0.000003  -0.000000  -0.000000   0.000000  -0.000000
   98  FE 1 XY    0.000000  -0.000000  -0.000000   0.000000  -0.000000
   99  FE 1 XZ    0.000000  -0.000000  -0.000000   0.000000  -0.000000
  100  FE 1 YZ    0.000000  -0.000000  -0.000000   0.000000  -0.000000
  101  FE 1 XX    0.000007  -0.000000  -0.000000   0.000000  -0.013240
  102  FE 1 YY    0.000007  -0.000000  -0.000000   0.000000   0.013240
  103  FE 1 ZZ   -0.000014  -0.000000  -0.000000   0.000000  -0.000000
  104  FE 1 XY    0.000000  -0.000000  -0.000000   0.000000  -0.000000
  105  FE 1 XZ    0.000000  -0.000000  -0.000000   0.000000  -0.000000
  106  FE 1 YZ    0.000000  -0.000000  -0.000000   0.000000  -0.000000
  107  FE 1 XX    0.000053  -0.000000  -0.000000   0.000000  -0.051626
  108  FE 1 YY    0.000053  -0.000000  -0.000000   0.000000   0.051626
  109  FE 1 ZZ   -0.000107  -0.000000  -0.000000   0.000000  -0.000000
  110  FE 1 XY    0.000000  -0.000000  -0.000000   0.000000  -0.000000
  111  FE 1 XZ    0.000000  -0.000000  -0.000000   0.000000  -0.000000
  112  FE 1 YZ    0.000000  -0.000000  -0.000000   0.000000  -0.000000
  113  FE 1 XX    0.000163  -0.000000  -0.000000   0.000000  -0.117481
  114  FE 1 YY    0.000163  -0.000000  -0.000000   0.000000   0.117481
  115  FE 1 ZZ   -0.000325  -0.000000  -0.000000   0.000000  -0.000000
  116  FE 1 XY    0.000000  -0.000000  -0.000000   0.000000  -0.000000
  117  FE 1 XZ    0.000000  -0.000000  -0.000000   0.000000  -0.000000
  118  FE 1 YZ    0.000000  -0.000000  -0.000000   0.000000  -0.000000
  119  FE 1 XX   -0.000208  -0.000000  -0.000000   0.000000  -0.197573
  120  FE 1 YY   -0.000208  -0.000000  -0.000000   0.000000   0.197573
  121  FE 1 ZZ    0.000416  -0.000000  -0.000000   0.000000  -0.000000
  122  FE 1 XY    0.000000  -0.000000  -0.000000   0.000000  -0.000000
  123  FE 1 XZ    0.000000  -0.000000  -0.000000   0.000000  -0.000000
  124  FE 1 YZ    0.000000  -0.000000  -0.000000   0.000000  -0.000000
  125  FE 1 XX   -0.000335  -0.000000  -0.000000   0.000000  -0.266531
  126  FE 1 YY   -0.000335  -0.000000  -0.000000   0.000000   0.266531
  127  FE 1 ZZ    0.000669  -0.000000  -0.000000   0.000000  -0.000000
  128  FE 1 XY    0.000000  -0.000000  -0.000000   0.000000  -0.000000
  129  FE 1 XZ    0.000000  -0.000000  -0.000000   0.000000  -0.000000
  130  FE 1 YZ    0.000000  -0.000000  -0.000000   0.000000  -0.000000
  131  FE 1 XX    0.000845  -0.000000  -0.000000   0.000000  -0.261469
  132  FE 1 YY    0.000845  -0.000000  -0.000000   0.000000   0.261469
  133  FE 1 ZZ   -0.001689  -0.000000  -0.000000   0.000000  -0.000000
  134  FE 1 XY    0.000000  -0.000000  -0.000000   0.000000  -0.000000
  135  FE 1 XZ    0.000000  -0.000000  -0.000000   0.000000  -0.000000
  136  FE 1 YZ    0.000000  -0.000000  -0.000000   0.000000  -0.000000
  137  FE 1 XX    0.000857  -0.000000  -0.000000   0.000000  -0.182395
  138  FE 1 YY    0.000857  -0.000000  -0.000000   0.000000   0.182395
  139  FE 1 ZZ   -0.001715  -0.000000  -0.000000   0.000000  -0.000000
  140  FE 1 XY    0.000000  -0.000000  -0.000000   0.000000  -0.000000
  141  FE 1 XZ    0.000000  -0.000000  -0.000000   0.000000  -0.000000
  142  FE 1 YZ    0.000000  -0.000000  -0.000000   0.000000  -0.000000
  143  FE 1 XX    0.000193  -0.000000  -0.000000   0.000000  -0.069729
  144  FE 1 YY    0.000193  -0.000000  -0.000000   0.000000   0.069729
  145  FE 1 ZZ   -0.000385  -0.000000  -0.000000   0.000000   0.000000
  146  FE 1 XY    0.000000  -0.000000  -0.000000   0.000000  -0.000000
  147  FE 1 XZ    0.000000  -0.000000  -0.000000   0.000000  -0.000000
  148  FE 1 YZ    0.000000  -0.000000  -0.000000   0.000000  -0.000000
  149  FE 1 XX    0.000008  -0.000000  -0.000000   0.000000  -0.005557
  150  FE 1 YY    0.000008  -0.000000  -0.000000   0.000000   0.005557
  151  FE 1 ZZ   -0.000015  -0.000000  -0.000000   0.000000  -0.000000
  152  FE 1 XY    0.000000  -0.000000  -0.000000   0.000000  -0.000000
  153  FE 1 XZ    0.000000  -0.000000  -0.000000   0.000000  -0.000000
  154  FE 1 YZ    0.000000  -0.000000  -0.000000   0.000000  -0.000000
  155  FE 1 XX   -0.000016  -0.000000  -0.000000   0.000000  -0.010921
  156  FE 1 YY   -0.000016  -0.000000  -0.000000   0.000000   0.010921
  157  FE 1 ZZ    0.000032  -0.000000  -0.000000   0.000000  -0.000000
  158  FE 1 XY    0.000000  -0.000000  -0.000000   0.000000  -0.000000
  159  FE 1 XZ    0.000000  -0.000000  -0.000000   0.000000  -0.000000
  160  FE 1 YZ    0.000000  -0.000000  -0.000000   0.000000  -0.000000
  161  FE 1 XX   -0.000078  -0.000000  -0.000000   0.000000  -0.011595
  162  FE 1 YY   -0.000078  -0.000000  -0.000000   0.000000   0.011595
  163  FE 1 ZZ    0.000156  -0.000000  -0.000000   0.000000   0.000000
  164  FE 1 XY    0.000000  -0.000000  -0.000000   0.000000  -0.000000
  165  FE 1 XZ    0.000000  -0.000000  -0.000000   0.000000  -0.000000
  166  FE 1 YZ    0.000000  -0.000000  -0.000000   0.000000  -0.000000
  167  FE 1 XX   -0.000001  -0.000000  -0.000000   0.000000   0.000049
  168  FE 1 YY   -0.000001  -0.000000  -0.000000   0.000000  -0.000049
  169  FE 1 ZZ    0.000003  -0.000000  -0.000000   0.000000  -0.000000
  170  FE 1 XY    0.000000  -0.000000  -0.000000   0.000000  -0.000000
  171  FE 1 XZ    0.000000  -0.000000  -0.000000   0.000000  -0.000000
  172  FE 1 YZ    0.000000  -0.000000  -0.000000   0.000000  -0.000000
  173  FE 1 XXX   0.000000   0.000574  -0.000000   0.000000  -0.000000
  174  FE 1 YYY   0.000000  -0.000000   0.000574   0.000000  -0.000000
  175  FE 1 ZZZ   0.000000  -0.000000  -0.000000   0.000408  -0.000000
  176  FE 1 XXY   0.000000  -0.000000  -0.000902   0.000000  -0.000000
  177  FE 1 XXZ   0.000000  -0.000000  -0.000000  -0.000274  -0.000000
  178  FE 1 YYX   0.000000  -0.000902  -0.000000   0.000000  -0.000000
  179  FE 1 YYZ   0.000000  -0.000000  -0.000000  -0.000274  -0.000000
  180  FE 1 ZZX   0.000000   0.000133  -0.000000   0.000000  -0.000000
  181  FE 1 ZZY   0.000000  -0.000000   0.000133   0.000000  -0.000000
  182  FE 1 XYZ   0.000000  -0.000000  -0.000000   0.000000  -0.000000
  183  FE 1 XXX   0.000000   0.000647  -0.000000   0.000000  -0.000000
  184  FE 1 YYY   0.000000  -0.000000   0.000647   0.000000  -0.000000
  185  FE 1 ZZZ   0.000000  -0.000000  -0.000000   0.001857  -0.000000
  186  FE 1 XXY   0.000000  -0.000000  -0.002054   0.000000  -0.000000
  187  FE 1 XXZ   0.000000  -0.000000  -0.000000  -0.001246  -0.000000
  188  FE 1 YYX   0.000000  -0.002054  -0.000000   0.000000  -0.000000
  189  FE 1 YYZ   0.000000  -0.000000  -0.000000  -0.001246  -0.000000
  190  FE 1 ZZX   0.000000   0.001186  -0.000000   0.000000  -0.000000
  191  FE 1 ZZY   0.000000  -0.000000   0.001186   0.000000  -0.000000
  192  FE 1 XYZ   0.000000  -0.000000  -0.000000   0.000000  -0.000000
  193  FE 1 XXX   0.000000   0.002006  -0.000000   0.000000  -0.000000
  194  FE 1 YYY   0.000000  -0.000000   0.002006   0.000000  -0.000000
  195  FE 1 ZZZ   0.000000  -0.000000  -0.000000   0.002262  -0.000000
  196  FE 1 XXY   0.000000  -0.000000  -0.003777   0.000000  -0.000000
  197  FE 1 XXZ   0.000000  -0.000000  -0.000000  -0.001518  -0.000000
  198  FE 1 YYX   0.000000  -0.003777  -0.000000   0.000000  -0.000000
  199  FE 1 YYZ   0.000000  -0.000000  -0.000000  -0.001518  -0.000000
  200  FE 1 ZZX   0.000000   0.001085  -0.000000   0.000000  -0.000000
  201  FE 1 ZZY   0.000000  -0.000000   0.001085   0.000000  -0.000000
  202  FE 1 XYZ   0.000000  -0.000000  -0.000000   0.000000  -0.000000
  203  FE 1 XXX   0.000000   0.001814  -0.000000   0.000000  -0.000000
  204  FE 1 YYY   0.000000  -0.000000   0.001814   0.000000  -0.000000
  205  FE 1 ZZZ   0.000000  -0.000000  -0.000000   0.000423  -0.000000
  206  FE 1 XXY   0.000000  -0.000000  -0.002211   0.000000  -0.000000
  207  FE 1 XXZ   0.000000  -0.000000  -0.000000  -0.000284  -0.000000
  208  FE 1 YYX   0.000000  -0.002211  -0.000000   0.000000  -0.000000
  209  FE 1 YYZ   0.000000  -0.000000  -0.000000  -0.000284  -0.000000
  210  FE 1 ZZX   0.000000  -0.000222  -0.000000   0.000000  -0.000000
  211  FE 1 ZZY   0.000000  -0.000000  -0.000222   0.000000  -0.000000
  212  FE 1 XYZ   0.000000  -0.000000  -0.000000   0.000000  -0.000000
  213  FE 1 XXX   0.000000   0.000087  -0.000000   0.000000  -0.000000
  214  FE 1 YYY   0.000000  -0.000000   0.000087   0.000000  -0.000000
  215  FE 1 ZZZ   0.000000  -0.000000  -0.000000  -0.000041  -0.000000
  216  FE 1 XXY   0.000000  -0.000000  -0.000059   0.000000  -0.000000
  217  FE 1 XXZ   0.000000  -0.000000  -0.000000   0.000028  -0.000000
  218  FE 1 YYX   0.000000  -0.000059  -0.000000   0.000000  -0.000000
  219  FE 1 YYZ   0.000000  -0.000000  -0.000000   0.000028  -0.000000
  220  FE 1 ZZX   0.000000  -0.000057  -0.000000   0.000000  -0.000000
  221  FE 1 ZZY   0.000000  -0.000000  -0.000057   0.000000  -0.000000
  222  FE 1 XYZ   0.000000  -0.000000  -0.000000   0.000000  -0.000000
  223  FE 1XXXX   0.000141  -0.000000  -0.000000   0.000000   0.000142
  224  FE 1YYYY   0.000141  -0.000000  -0.000000   0.000000  -0.000142
  225  FE 1ZZZZ   0.000029  -0.000000  -0.000000   0.000000  -0.000000
  226  FE 1XXXY   0.000000  -0.000000  -0.000000   0.000000  -0.000000
  227  FE 1XXXZ   0.000000  -0.000000  -0.000000   0.000000  -0.000000
  228  FE 1YYYX   0.000000  -0.000000  -0.000000   0.000000  -0.000000
  229  FE 1YYYZ   0.000000  -0.000000  -0.000000   0.000000  -0.000000
  230  FE 1ZZZX   0.000000  -0.000000  -0.000000   0.000000  -0.000000
  231  FE 1ZZZY   0.000000  -0.000000  -0.000000   0.000000  -0.000000
  232  FE 1XXYY  -0.000222  -0.000000  -0.000000   0.000000  -0.000000
  233  FE 1XXZZ  -0.000026  -0.000000  -0.000000   0.000000  -0.000250
  234  FE 1YYZZ  -0.000026  -0.000000  -0.000000   0.000000   0.000250
  235  FE 1XXYZ   0.000000  -0.000000  -0.000000   0.000000  -0.000000
  236  FE 1YYXZ   0.000000  -0.000000  -0.000000   0.000000  -0.000000
  237  FE 1ZZXY   0.000000  -0.000000  -0.000000   0.000000  -0.000000
  238  FE 1XXXX   0.000209  -0.000000  -0.000000   0.000000   0.000424
  239  FE 1YYYY   0.000209  -0.000000  -0.000000   0.000000  -0.000424
  240  FE 1ZZZZ   0.000042  -0.000000  -0.000000   0.000000  -0.000000
  241  FE 1XXXY   0.000000  -0.000000  -0.000000   0.000000  -0.000000
  242  FE 1XXXZ   0.000000  -0.000000  -0.000000   0.000000  -0.000000
  243  FE 1YYYX   0.000000  -0.000000  -0.000000   0.000000  -0.000000
  244  FE 1YYYZ   0.000000  -0.000000  -0.000000   0.000000  -0.000000
  245  FE 1ZZZX   0.000000  -0.000000  -0.000000   0.000000  -0.000000
  246  FE 1ZZZY   0.000000  -0.000000  -0.000000   0.000000  -0.000000
  247  FE 1XXYY  -0.000331  -0.000000  -0.000000   0.000000  -0.000000
  248  FE 1XXZZ  -0.000037  -0.000000  -0.000000   0.000000  -0.000744
  249  FE 1YYZZ  -0.000037  -0.000000  -0.000000   0.000000   0.000744
  250  FE 1XXYZ   0.000000  -0.000000  -0.000000   0.000000  -0.000000
  251  FE 1YYXZ   0.000000  -0.000000  -0.000000   0.000000  -0.000000
  252  FE 1ZZXY   0.000000  -0.000000  -0.000000   0.000000  -0.000000
  253  FE 1XXXX   0.000518  -0.000000  -0.000000   0.000000   0.000617
  254  FE 1YYYY   0.000518  -0.000000  -0.000000   0.000000  -0.000617
  255  FE 1ZZZZ   0.000096  -0.000000  -0.000000   0.000000  -0.000000
  256  FE 1XXXY   0.000000  -0.000000  -0.000000   0.000000  -0.000000
  257  FE 1XXXZ   0.000000  -0.000000  -0.000000   0.000000  -0.000000
  258  FE 1YYYX   0.000000  -0.000000  -0.000000   0.000000  -0.000000
  259  FE 1YYYZ   0.000000  -0.000000  -0.000000   0.000000  -0.000000
  260  FE 1ZZZX   0.000000  -0.000000  -0.000000   0.000000  -0.000000
  261  FE 1ZZZY   0.000000  -0.000000  -0.000000   0.000000  -0.000000
  262  FE 1XXYY  -0.000825  -0.000000  -0.000000   0.000000  -0.000000
  263  FE 1XXZZ  -0.000085  -0.000000  -0.000000   0.000000  -0.001084
  264  FE 1YYZZ  -0.000085  -0.000000  -0.000000   0.000000   0.001084
  265  FE 1XXYZ   0.000000  -0.000000  -0.000000   0.000000  -0.000000
  266  FE 1YYXZ   0.000000  -0.000000  -0.000000   0.000000  -0.000000
  267  FE 1ZZXY   0.000000  -0.000000  -0.000000   0.000000  -0.000000
  268  FE 1XXXX   0.000120  -0.000000  -0.000000   0.000000   0.000258
  269  FE 1YYYY   0.000120  -0.000000  -0.000000   0.000000  -0.000258
  270  FE 1ZZZZ   0.000018  -0.000000  -0.000000   0.000000  -0.000000
  271  FE 1XXXY   0.000000  -0.000000  -0.000000   0.000000  -0.000000
  272  FE 1XXXZ   0.000000  -0.000000  -0.000000   0.000000  -0.000000
  273  FE 1YYYX   0.000000  -0.000000  -0.000000   0.000000  -0.000000
  274  FE 1YYYZ   0.000000  -0.000000  -0.000000   0.000000  -0.000000
  275  FE 1ZZZX   0.000000  -0.000000  -0.000000   0.000000  -0.000000
  276  FE 1ZZZY   0.000000  -0.000000  -0.000000   0.000000  -0.000000
  277  FE 1XXYY  -0.000196  -0.000000  -0.000000   0.000000  -0.000000
  278  FE 1XXZZ  -0.000016  -0.000000  -0.000000   0.000000  -0.000453
  279  FE 1YYZZ  -0.000016  -0.000000  -0.000000   0.000000   0.000453
  280  FE 1XXYZ   0.000000  -0.000000  -0.000000   0.000000  -0.000000
  281  FE 1YYXZ   0.000000  -0.000000  -0.000000   0.000000  -0.000000
  282  FE 1ZZXY   0.000000  -0.000000  -0.000000   0.000000  -0.000000

                      6          7          8          9         10
                   -0.2347    -0.1883    -0.1763    -0.1763    -0.1407
                     A          A          A          A          A   
    1  FE 1  S   -0.000000   0.000000   0.000000   0.000000   0.000000
    2  FE 1  S   -0.000000   0.000000   0.000000   0.000000   0.000000
    3  FE 1  S   -0.000000   0.000000   0.000000   0.000000   0.000000
    4  FE 1  S   -0.000000   0.000000   0.000000   0.000000   0.000000
    5  FE 1  S   -0.000000   0.000000   0.000000   0.000000   0.000000
    6  FE 1  S   -0.000003   0.000000   0.000000   0.000000   0.000000
    7  FE 1  S    0.000000   0.000000   0.000000   0.000000   0.000000
    8  FE 1  S   -0.000027   0.000000   0.000000   0.000000   0.000000
    9  FE 1  S    0.000016   0.000000   0.000000   0.000000   0.000000
   10  FE 1  S   -0.000198   0.000003   0.000000   0.000000   0.000000
   11  FE 1  S    0.000253  -0.000002   0.000000   0.000000   0.000000
   12  FE 1  S   -0.001243   0.000019   0.000000   0.000000   0.000000
   13  FE 1  S    0.003864  -0.000067   0.000000   0.000000   0.000000
   14  FE 1  S   -0.025557   0.000551   0.000000   0.000000   0.000000
   15  FE 1  S    0.046783  -0.001107   0.000000   0.000000   0.000000
   16  FE 1  S    0.098170  -0.002681   0.000000   0.000000   0.000000
   17  FE 1  S   -0.109723   0.003093   0.000000   0.000000   0.000000
   18  FE 1  S   -0.298175   0.008601   0.000000   0.000000   0.000000
   19  FE 1  S   -0.197825   0.000836   0.000000   0.000000   0.000000
   20  FE 1  S    0.356217  -0.005549   0.000000   0.000000   0.000000
   21  FE 1  S    0.577079  -0.004984   0.000000   0.000000   0.000000
   22  FE 1  S    0.228795  -0.002627   0.000000   0.000000   0.000000
   23  FE 1  S   -0.002849   0.000668   0.000000   0.000000   0.000000
   24  FE 1  S    0.068632  -0.003559   0.000000   0.000000   0.000000
   25  FE 1  S   -0.000613   0.000125   0.000000   0.000000   0.000000
   26  FE 1  X    0.000000  -0.000000   0.000000   0.000000   0.000000
   27  FE 1  Y    0.000000  -0.000000   0.000000   0.000000   0.000000
   28  FE 1  Z    0.000000  -0.000000   0.000000   0.000000   0.000000
   29  FE 1  X    0.000000  -0.000000   0.000000   0.000000   0.000000
   30  FE 1  Y    0.000000  -0.000000   0.000000   0.000000   0.000000
   31  FE 1  Z    0.000000  -0.000000   0.000000   0.000000   0.000000
   32  FE 1  X    0.000000  -0.000000   0.000000   0.000000   0.000000
   33  FE 1  Y    0.000000  -0.000000   0.000000   0.000000   0.000000
   34  FE 1  Z    0.000000  -0.000000   0.000000   0.000000   0.000000
   35  FE 1  X    0.000000  -0.000000   0.000000   0.000000   0.000000
   36  FE 1  Y    0.000000  -0.000000   0.000000   0.000000   0.000000
   37  FE 1  Z    0.000000  -0.000000   0.000000   0.000000   0.000000
   38  FE 1  X    0.000000  -0.000000   0.000000   0.000000   0.000000
   39  FE 1  Y    0.000000  -0.000000   0.000000   0.000000   0.000000
   40  FE 1  Z    0.000000  -0.000000   0.000000   0.000000   0.000000
   41  FE 1  X    0.000000  -0.000000   0.000000   0.000000   0.000000
   42  FE 1  Y    0.000000  -0.000000   0.000000   0.000000   0.000000
   43  FE 1  Z    0.000000  -0.000000   0.000000   0.000000   0.000000
   44  FE 1  X    0.000000  -0.000000   0.000000   0.000000   0.000000
   45  FE 1  Y    0.000000  -0.000000   0.000000   0.000000   0.000000
   46  FE 1  Z    0.000000  -0.000000   0.000000   0.000000   0.000000
   47  FE 1  X    0.000000  -0.000000   0.000000   0.000000   0.000000
   48  FE 1  Y    0.000000  -0.000000   0.000000   0.000000   0.000000
   49  FE 1  Z    0.000000  -0.000000   0.000000   0.000000   0.000000
   50  FE 1  X    0.000000  -0.000000   0.000000   0.000000   0.000000
   51  FE 1  Y    0.000000  -0.000000   0.000000   0.000000   0.000000
   52  FE 1  Z    0.000000  -0.000000   0.000000   0.000000   0.000000
   53  FE 1  X    0.000000  -0.000000   0.000000   0.000000   0.000000
   54  FE 1  Y    0.000000  -0.000000   0.000000   0.000000   0.000000
   55  FE 1  Z    0.000000  -0.000000   0.000000   0.000000   0.000000
   56  FE 1  X    0.000000  -0.000000   0.000000   0.000000   0.000000
   57  FE 1  Y    0.000000  -0.000000   0.000000   0.000000   0.000000
   58  FE 1  Z    0.000000  -0.000000   0.000000   0.000000   0.000000
   59  FE 1  X    0.000000  -0.000000   0.000000   0.000000   0.000000
   60  FE 1  Y    0.000000  -0.000000   0.000000   0.000000   0.000000
   61  FE 1  Z    0.000000  -0.000000   0.000000   0.000000   0.000000
   62  FE 1  X    0.000000  -0.000000   0.000000   0.000000   0.000000
   63  FE 1  Y    0.000000  -0.000000   0.000000   0.000000   0.000000
   64  FE 1  Z    0.000000  -0.000000   0.000000   0.000000   0.000000
   65  FE 1  X    0.000000  -0.000000   0.000000   0.000000   0.000000
   66  FE 1  Y    0.000000  -0.000000   0.000000   0.000000   0.000000
   67  FE 1  Z    0.000000  -0.000000   0.000000   0.000000   0.000000
   68  FE 1  X    0.000000  -0.000000   0.000000   0.000000   0.000000
   69  FE 1  Y    0.000000  -0.000000   0.000000   0.000000   0.000000
   70  FE 1  Z    0.000000  -0.000000   0.000000   0.000000   0.000000
   71  FE 1  X    0.000000  -0.000000   0.000000   0.000000   0.000000
   72  FE 1  Y    0.000000  -0.000000   0.000000   0.000000   0.000000
   73  FE 1  Z    0.000000  -0.000000   0.000000   0.000000   0.000000
   74  FE 1  X    0.000000  -0.000000   0.000000   0.000000   0.000000
   75  FE 1  Y    0.000000  -0.000000   0.000000   0.000000   0.000000
   76  FE 1  Z    0.000000  -0.000000   0.000000   0.000000   0.000000
   77  FE 1  X    0.000000  -0.000000   0.000000   0.000000   0.000000
   78  FE 1  Y    0.000000  -0.000000   0.000000   0.000000   0.000000
   79  FE 1  Z    0.000000  -0.000000   0.000000   0.000000   0.000000
   80  FE 1  X    0.000000  -0.000000   0.000000   0.000000   0.000000
   81  FE 1  Y    0.000000  -0.000000   0.000000   0.000000   0.000000
   82  FE 1  Z    0.000000  -0.000000   0.000000   0.000000   0.000000
   83  FE 1  X    0.000000  -0.000000   0.000000   0.000000   0.000000
   84  FE 1  Y    0.000000  -0.000000   0.000000   0.000000   0.000000
   85  FE 1  Z    0.000000  -0.000000   0.000000   0.000000   0.000000
   86  FE 1  X    0.000000  -0.000000   0.000000   0.000000   0.000000
   87  FE 1  Y    0.000000  -0.000000   0.000000   0.000000   0.000000
   88  FE 1  Z    0.000000  -0.000000   0.000000   0.000000   0.000000
   89  FE 1 XX   -0.000000  -0.000095   0.000000   0.000000   0.000000
   90  FE 1 YY   -0.000000  -0.000095   0.000000   0.000000   0.000000
   91  FE 1 ZZ    0.000001   0.000189   0.000000   0.000000   0.000000
   92  FE 1 XY    0.000000  -0.000000   0.000000   0.000000   0.000188
   93  FE 1 XZ    0.000000  -0.000000   0.000189   0.000000   0.000000
   94  FE 1 YZ    0.000000  -0.000000   0.000000   0.000189   0.000000
   95  FE 1 XX   -0.000003  -0.000949   0.000000   0.000000   0.000000
   96  FE 1 YY   -0.000003  -0.000949   0.000000   0.000000   0.000000
   97  FE 1 ZZ    0.000007   0.001898   0.000000   0.000000   0.000000
   98  FE 1 XY    0.000000  -0.000000   0.000000   0.000000   0.001886
   99  FE 1 XZ    0.000000  -0.000000   0.001895   0.000000   0.000000
  100  FE 1 YZ    0.000000  -0.000000   0.000000   0.001895   0.000000
  101  FE 1 XX   -0.000027  -0.007893   0.000000   0.000000   0.000000
  102  FE 1 YY   -0.000027  -0.007893   0.000000   0.000000   0.000000
  103  FE 1 ZZ    0.000055   0.015786   0.000000   0.000000   0.000000
  104  FE 1 XY    0.000000  -0.000000   0.000000   0.000000   0.015681
  105  FE 1 XZ    0.000000  -0.000000   0.015761   0.000000   0.000000
  106  FE 1 YZ    0.000000  -0.000000   0.000000   0.015761   0.000000
  107  FE 1 XX   -0.000113  -0.030754   0.000000   0.000000   0.000000
  108  FE 1 YY   -0.000113  -0.030754   0.000000   0.000000   0.000000
  109  FE 1 ZZ    0.000227   0.061509   0.000000   0.000000   0.000000
  110  FE 1 XY    0.000000  -0.000000   0.000000   0.000000   0.061102
  111  FE 1 XZ    0.000000  -0.000000   0.061410   0.000000   0.000000
  112  FE 1 YZ    0.000000  -0.000000   0.000000   0.061410   0.000000
  113  FE 1 XX   -0.000253  -0.070092   0.000000   0.000000   0.000000
  114  FE 1 YY   -0.000253  -0.070092   0.000000   0.000000   0.000000
  115  FE 1 ZZ    0.000506   0.140184   0.000000   0.000000   0.000000
  116  FE 1 XY    0.000000  -0.000000   0.000000   0.000000   0.139194
  117  FE 1 XZ    0.000000  -0.000000   0.139943   0.000000   0.000000
  118  FE 1 YZ    0.000000  -0.000000   0.000000   0.139943   0.000000
  119  FE 1 XX   -0.000221  -0.118709   0.000000   0.000000   0.000000
  120  FE 1 YY   -0.000221  -0.118709   0.000000   0.000000   0.000000
  121  FE 1 ZZ    0.000441   0.237418   0.000000   0.000000   0.000000
  122  FE 1 XY    0.000000  -0.000000   0.000000   0.000000   0.235426
  123  FE 1 XZ    0.000000  -0.000000   0.236920   0.000000   0.000000
  124  FE 1 YZ    0.000000  -0.000000   0.000000   0.236920   0.000000
  125  FE 1 XX   -0.000347  -0.160642   0.000000   0.000000   0.000000
  126  FE 1 YY   -0.000347  -0.160642   0.000000   0.000000   0.000000
  127  FE 1 ZZ    0.000694   0.321284   0.000000   0.000000   0.000000
  128  FE 1 XY    0.000000  -0.000000   0.000000   0.000000   0.318448
  129  FE 1 XZ    0.000000  -0.000000   0.320574   0.000000   0.000000
  130  FE 1 YZ    0.000000  -0.000000   0.000000   0.320574   0.000000
  131  FE 1 XX   -0.001382  -0.152469   0.000000   0.000000   0.000000
  132  FE 1 YY   -0.001382  -0.152469   0.000000   0.000000   0.000000
  133  FE 1 ZZ    0.002764   0.304939   0.000000   0.000000   0.000000
  134  FE 1 XY    0.000000  -0.000000   0.000000   0.000000   0.304481
  135  FE 1 XZ    0.000000  -0.000000   0.304859   0.000000   0.000000
  136  FE 1 YZ    0.000000  -0.000000   0.000000   0.304859   0.000000
  137  FE 1 XX   -0.003454  -0.092987   0.000000   0.000000   0.000000
  138  FE 1 YY   -0.003454  -0.092987   0.000000   0.000000   0.000000
  139  FE 1 ZZ    0.006909   0.185975   0.000000   0.000000   0.000000
  140  FE 1 XY    0.000000  -0.000000   0.000000   0.000000   0.191633
  141  FE 1 XZ    0.000000  -0.000000   0.187435   0.000000   0.000000
  142  FE 1 YZ    0.000000  -0.000000   0.000000   0.187435   0.000000
  143  FE 1 XX   -0.004088  -0.026001   0.000000   0.000000   0.000000
  144  FE 1 YY   -0.004088  -0.026001   0.000000   0.000000   0.000000
  145  FE 1 ZZ    0.008175   0.052002   0.000000   0.000000   0.000000
  146  FE 1 XY    0.000000  -0.000000   0.000000   0.000000   0.057860
  147  FE 1 XZ    0.000000  -0.000000   0.053463   0.000000   0.000000
  148  FE 1 YZ    0.000000  -0.000000   0.000000   0.053463   0.000000
  149  FE 1 XX   -0.001751  -0.000771   0.000000   0.000000   0.000000
  150  FE 1 YY   -0.001751  -0.000771   0.000000   0.000000   0.000000
  151  FE 1 ZZ    0.003502   0.001543   0.000000   0.000000   0.000000
  152  FE 1 XY    0.000000  -0.000000   0.000000   0.000000   0.002301
  153  FE 1 XZ    0.000000  -0.000000   0.001737   0.000000   0.000000
  154  FE 1 YZ    0.000000  -0.000000   0.000000   0.001737   0.000000
  155  FE 1 XX   -0.000048  -0.006610   0.000000   0.000000   0.000000
  156  FE 1 YY   -0.000048  -0.006610   0.000000   0.000000   0.000000
  157  FE 1 ZZ    0.000096   0.013220   0.000000   0.000000   0.000000
  158  FE 1 XY    0.000000  -0.000000   0.000000   0.000000   0.013074
  159  FE 1 XZ    0.000000  -0.000000   0.013185   0.000000   0.000000
  160  FE 1 YZ    0.000000  -0.000000   0.000000   0.013185   0.000000
  161  FE 1 XX   -0.000103  -0.007084   0.000000   0.000000   0.000000
  162  FE 1 YY   -0.000103  -0.007084   0.000000   0.000000   0.000000
  163  FE 1 ZZ    0.000207   0.014168   0.000000   0.000000   0.000000
  164  FE 1 XY    0.000000  -0.000000   0.000000   0.000000   0.014001
  165  FE 1 XZ    0.000000  -0.000000   0.014128   0.000000   0.000000
  166  FE 1 YZ    0.000000  -0.000000   0.000000   0.014128   0.000000
  167  FE 1 XX   -0.000028  -0.000106   0.000000   0.000000   0.000000
  168  FE 1 YY   -0.000028  -0.000106   0.000000   0.000000   0.000000
  169  FE 1 ZZ    0.000057   0.000213   0.000000   0.000000   0.000000
  170  FE 1 XY    0.000000  -0.000000   0.000000   0.000000   0.000182
  171  FE 1 XZ    0.000000  -0.000000   0.000207   0.000000   0.000000
  172  FE 1 YZ    0.000000  -0.000000   0.000000   0.000207   0.000000
  173  FE 1 XXX   0.000000  -0.000000   0.000000   0.000000   0.000000
  174  FE 1 YYY   0.000000  -0.000000   0.000000   0.000000   0.000000
  175  FE 1 ZZZ   0.000000  -0.000000   0.000000   0.000000   0.000000
  176  FE 1 XXY   0.000000  -0.000000   0.000000   0.000000   0.000000
  177  FE 1 XXZ   0.000000  -0.000000   0.000000   0.000000   0.000000
  178  FE 1 YYX   0.000000  -0.000000   0.000000   0.000000   0.000000
  179  FE 1 YYZ   0.000000  -0.000000   0.000000   0.000000   0.000000
  180  FE 1 ZZX   0.000000  -0.000000   0.000000   0.000000   0.000000
  181  FE 1 ZZY   0.000000  -0.000000   0.000000   0.000000   0.000000
  182  FE 1 XYZ   0.000000  -0.000000   0.000000   0.000000   0.000000
  183  FE 1 XXX   0.000000  -0.000000   0.000000   0.000000   0.000000
  184  FE 1 YYY   0.000000  -0.000000   0.000000   0.000000   0.000000
  185  FE 1 ZZZ   0.000000  -0.000000   0.000000   0.000000   0.000000
  186  FE 1 XXY   0.000000  -0.000000   0.000000   0.000000   0.000000
  187  FE 1 XXZ   0.000000  -0.000000   0.000000   0.000000   0.000000
  188  FE 1 YYX   0.000000  -0.000000   0.000000   0.000000   0.000000
  189  FE 1 YYZ   0.000000  -0.000000   0.000000   0.000000   0.000000
  190  FE 1 ZZX   0.000000  -0.000000   0.000000   0.000000   0.000000
  191  FE 1 ZZY   0.000000  -0.000000   0.000000   0.000000   0.000000
  192  FE 1 XYZ   0.000000  -0.000000   0.000000   0.000000   0.000000
  193  FE 1 XXX   0.000000  -0.000000   0.000000   0.000000   0.000000
  194  FE 1 YYY   0.000000  -0.000000   0.000000   0.000000   0.000000
  195  FE 1 ZZZ   0.000000  -0.000000   0.000000   0.000000   0.000000
  196  FE 1 XXY   0.000000  -0.000000   0.000000   0.000000   0.000000
  197  FE 1 XXZ   0.000000  -0.000000   0.000000   0.000000   0.000000
  198  FE 1 YYX   0.000000  -0.000000   0.000000   0.000000   0.000000
  199  FE 1 YYZ   0.000000  -0.000000   0.000000   0.000000   0.000000
  200  FE 1 ZZX   0.000000  -0.000000   0.000000   0.000000   0.000000
  201  FE 1 ZZY   0.000000  -0.000000   0.000000   0.000000   0.000000
  202  FE 1 XYZ   0.000000  -0.000000   0.000000   0.000000   0.000000
  203  FE 1 XXX   0.000000  -0.000000   0.000000   0.000000   0.000000
  204  FE 1 YYY   0.000000  -0.000000   0.000000   0.000000   0.000000
  205  FE 1 ZZZ   0.000000  -0.000000   0.000000   0.000000   0.000000
  206  FE 1 XXY   0.000000  -0.000000   0.000000   0.000000   0.000000
  207  FE 1 XXZ   0.000000  -0.000000   0.000000   0.000000   0.000000
  208  FE 1 YYX   0.000000  -0.000000   0.000000   0.000000   0.000000
  209  FE 1 YYZ   0.000000  -0.000000   0.000000   0.000000   0.000000
  210  FE 1 ZZX   0.000000  -0.000000   0.000000   0.000000   0.000000
  211  FE 1 ZZY   0.000000  -0.000000   0.000000   0.000000   0.000000
  212  FE 1 XYZ   0.000000  -0.000000   0.000000   0.000000   0.000000
  213  FE 1 XXX   0.000000  -0.000000   0.000000   0.000000   0.000000
  214  FE 1 YYY   0.000000  -0.000000   0.000000   0.000000   0.000000
  215  FE 1 ZZZ   0.000000  -0.000000   0.000000   0.000000   0.000000
  216  FE 1 XXY   0.000000  -0.000000   0.000000   0.000000   0.000000
  217  FE 1 XXZ   0.000000  -0.000000   0.000000   0.000000   0.000000
  218  FE 1 YYX   0.000000  -0.000000   0.000000   0.000000   0.000000
  219  FE 1 YYZ   0.000000  -0.000000   0.000000   0.000000   0.000000
  220  FE 1 ZZX   0.000000  -0.000000   0.000000   0.000000   0.000000
  221  FE 1 ZZY   0.000000  -0.000000   0.000000   0.000000   0.000000
  222  FE 1 XYZ   0.000000  -0.000000   0.000000   0.000000   0.000000
  223  FE 1XXXX  -0.000001   0.000494   0.000000   0.000000   0.000000
  224  FE 1YYYY  -0.000001   0.000494   0.000000   0.000000   0.000000
  225  FE 1ZZZZ   0.000001   0.000659   0.000000   0.000000   0.000000
  226  FE 1XXXY   0.000000  -0.000000   0.000000   0.000000  -0.000163
  227  FE 1XXXZ   0.000000  -0.000000  -0.000727   0.000000   0.000000
  228  FE 1YYYX   0.000000  -0.000000   0.000000   0.000000  -0.000163
  229  FE 1YYYZ   0.000000  -0.000000   0.000000  -0.000727   0.000000
  230  FE 1ZZZX   0.000000  -0.000000   0.000751   0.000000   0.000000
  231  FE 1ZZZY   0.000000  -0.000000   0.000000   0.000751   0.000000
  232  FE 1XXYY   0.000003  -0.000289   0.000000   0.000000   0.000000
  233  FE 1XXZZ  -0.000001  -0.000579   0.000000   0.000000   0.000000
  234  FE 1YYZZ  -0.000001  -0.000579   0.000000   0.000000   0.000000
  235  FE 1XXYZ   0.000000  -0.000000   0.000000  -0.000031   0.000000
  236  FE 1YYXZ   0.000000  -0.000000  -0.000031   0.000000   0.000000
  237  FE 1ZZXY   0.000000  -0.000000   0.000000   0.000000   0.000438
[...]
 ...... END OF ROHF CALCULATION ......
 STEP CPU TIME =    24.49 TOTAL CPU TIME =       43.9 (    0.7 MIN)
 TOTAL WALL CLOCK TIME=       45.9 SECONDS, CPU UTILIZATION IS  95.58%

     ----------------------------------------------------------------
     PROPERTY VALUES FOR THE ROHF  SELF-CONSISTENT FIELD WAVEFUNCTION
     ----------------------------------------------------------------

          -----------------
          ENERGY COMPONENTS
          -----------------

         WAVEFUNCTION NORMALIZATION =       1.0000000000

                ONE ELECTRON ENERGY =    -216.6548027578
                TWO ELECTRON ENERGY =      93.5351718060
           NUCLEAR REPULSION ENERGY =       0.0000000000
                                      ------------------
                       TOTAL ENERGY =    -123.1196309519

 ELECTRON-ELECTRON POTENTIAL ENERGY =      93.5351718060
  NUCLEUS-ELECTRON POTENTIAL ENERGY =    -289.3601703645
   NUCLEUS-NUCLEUS POTENTIAL ENERGY =       0.0000000000
                                      ------------------
             TOTAL POTENTIAL ENERGY =    -195.8249985586
               TOTAL KINETIC ENERGY =      72.7053676067
                 VIRIAL RATIO (V/T) =       2.6934049714

          ---------------------------------------
          MULLIKEN AND LOWDIN POPULATION ANALYSES
          ---------------------------------------

     ATOMIC MULLIKEN POPULATION IN EACH MOLECULAR ORBITAL

                      1          2          3          4          5

                  2.000000   2.000000   2.000000   2.000000   2.000000

    1             2.000000   2.000000   2.000000   2.000000   2.000000

                      6          7          8          9         10

                  2.000000   1.000000   1.000000   1.000000   1.000000

    1             2.000000   1.000000   1.000000   1.000000   1.000000

          MULLIKEN SPHERICAL HARMONIC POPULATIONS
       ATOM           S       P       D      F      G      H      I    TOTAL
    1 FE            2.00    3.00    5.00   0.00   0.00   0.00   0.00   10.00

          MULLIKEN SPHERICAL HARMONIC POPULATIONS
       ATOM           S       P       D      F      G      H      I    TOTAL
    1 FE            2.00    3.00    1.00   0.00   0.00   0.00   0.00    6.00

     ATOMIC SPIN POPULATION (ALPHA MINUS BETA)
       ATOM         MULL.POP.                    LOW.POP.
    1 FE            4.000000                     4.000000

               ----- POPULATIONS IN EACH AO -----
                             MULLIKEN      LOWDIN
              1  FE 1  S      0.00000     0.00000
              2  FE 1  S      0.00000     0.00000
              3  FE 1  S      0.00000     0.00000
              4  FE 1  S      0.00000     0.00000
              5  FE 1  S      0.00000     0.00000
              6  FE 1  S      0.00000     0.00000
              7  FE 1  S     -0.00000     0.00000
              8  FE 1  S      0.00000     0.00000
              9  FE 1  S     -0.00000     0.00000
             10  FE 1  S      0.00001     0.00000
             11  FE 1  S     -0.00002     0.00000
             12  FE 1  S      0.00012     0.00001
             13  FE 1  S     -0.00087     0.00002
             14  FE 1  S      0.01655     0.00008
             15  FE 1  S     -0.07533     0.00017
             16  FE 1  S     -0.29367     0.00918
             17  FE 1  S      0.58192     0.05742
             18  FE 1  S      1.53287     0.11706
             19  FE 1  S      0.48408     0.11708
             20  FE 1  S      0.55732     0.14326
             21  FE 1  S      1.07471     0.24356
             22  FE 1  S      0.40229     0.18902
             23  FE 1  S     -0.04280     0.01222
             24  FE 1  S     -0.23673     0.10154
             25  FE 1  S     -0.00101     0.08141
             26  FE 1  X     -0.00000     0.00000
             27  FE 1  Y     -0.00000     0.00000
             28  FE 1  Z     -0.00000     0.00000
             29  FE 1  X      0.00000     0.00000
             30  FE 1  Y      0.00000     0.00000
             31  FE 1  Z      0.00000     0.00000
             32  FE 1  X     -0.00000     0.00000
             33  FE 1  Y     -0.00000     0.00000
             34  FE 1  Z     -0.00000     0.00000
             35  FE 1  X      0.00000     0.00000
             36  FE 1  Y      0.00000     0.00000
             37  FE 1  Z      0.00000     0.00000
             38  FE 1  X      0.00000     0.00000
             39  FE 1  Y      0.00000     0.00000
             40  FE 1  Z      0.00000     0.00000
             41  FE 1  X      0.00000     0.00000
             42  FE 1  Y      0.00000     0.00000
             43  FE 1  Z      0.00000     0.00000
             44  FE 1  X     -0.00001     0.00000
             45  FE 1  Y     -0.00001     0.00000
             46  FE 1  Z     -0.00001     0.00000
             47  FE 1  X      0.00023     0.00000
             48  FE 1  Y      0.00023     0.00000
             49  FE 1  Z      0.00023     0.00000
             50  FE 1  X      0.00154     0.00004
             51  FE 1  Y      0.00154     0.00004
             52  FE 1  Z      0.00155     0.00004
             53  FE 1  X     -0.03423     0.00221
             54  FE 1  Y     -0.03423     0.00221
             55  FE 1  Z     -0.03428     0.00221
             56  FE 1  X      0.01657     0.02637
             57  FE 1  Y      0.01657     0.02637
             58  FE 1  Z      0.01535     0.02639
             59  FE 1  X      0.27116     0.11552
             60  FE 1  Y      0.27116     0.11552
             61  FE 1  Z      0.27132     0.11584
             62  FE 1  X      0.45102     0.23231
             63  FE 1  Y      0.45102     0.23231
             64  FE 1  Z      0.45093     0.23311
             65  FE 1  X      0.75033     0.25312
             66  FE 1  Y      0.75033     0.25312
             67  FE 1  Z      0.75334     0.25322
             68  FE 1  X      0.24651     0.15134
             69  FE 1  Y      0.24651     0.15134
             70  FE 1  Z      0.24154     0.15015
             71  FE 1  X      0.01397     0.02780
             72  FE 1  Y      0.01397     0.02780
             73  FE 1  Z      0.01276     0.02722
             74  FE 1  X     -0.00066     0.00324
             75  FE 1  Y     -0.00066     0.00324
             76  FE 1  Z     -0.00060     0.00315
             77  FE 1  X      0.00014     0.00026
             78  FE 1  Y      0.00014     0.00026
             79  FE 1  Z      0.00013     0.00025
             80  FE 1  X     -0.04954     0.02191
             81  FE 1  Y     -0.04954     0.02191
             82  FE 1  Z     -0.04885     0.02193
             83  FE 1  X      0.33288     0.22623
             84  FE 1  Y      0.33288     0.22623
             85  FE 1  Z      0.33654     0.22701
             86  FE 1  X     -0.00001     0.00001
             87  FE 1  Y     -0.00001     0.00001
             88  FE 1  Z     -0.00001     0.00001
             89  FE 1 XX      0.00000     0.00000
             90  FE 1 YY      0.00000     0.00000
             91  FE 1 ZZ      0.00000     0.00000
             92  FE 1 XY      0.00000     0.00000
             93  FE 1 XZ      0.00000     0.00000
             94  FE 1 YZ      0.00000     0.00000
             95  FE 1 XX      0.00010     0.00028
             96  FE 1 YY      0.00019     0.00028
             97  FE 1 ZZ      0.00010     0.00017
             98  FE 1 XY      0.00010     0.00024
             99  FE 1 XZ      0.00010     0.00024
            100  FE 1 YZ      0.00000     0.00024
            101  FE 1 XX      0.00259     0.00434
            102  FE 1 YY      0.00485     0.00434
            103  FE 1 ZZ      0.00255     0.00266
            104  FE 1 XY      0.00258     0.00383
            105  FE 1 XZ      0.00258     0.00387
            106  FE 1 YZ      0.00000     0.00387
            107  FE 1 XX      0.02165     0.02552
            108  FE 1 YY      0.04056     0.02552
            109  FE 1 ZZ      0.02135     0.01570
            110  FE 1 XY      0.02158     0.02251
            111  FE 1 XZ      0.02158     0.02276
            112  FE 1 YZ      0.00000     0.02276
            113  FE 1 XX      0.08266     0.07429
            114  FE 1 YY      0.15477     0.07429
            115  FE 1 ZZ      0.08150     0.05343
            116  FE 1 XY      0.08237     0.04733
            117  FE 1 XZ      0.08237     0.04787
            118  FE 1 YZ      0.00000     0.04787
            119  FE 1 XX      0.19064     0.14488
            120  FE 1 YY      0.35618     0.14488
            121  FE 1 ZZ      0.18794     0.11443
            122  FE 1 XY      0.18997     0.06693
            123  FE 1 XZ      0.18997     0.06766
            124  FE 1 YZ      0.00000     0.06766
            125  FE 1 XX      0.29167     0.20552
            126  FE 1 YY      0.55024     0.20552
            127  FE 1 ZZ      0.28823     0.15418
            128  FE 1 XY      0.29082     0.10541
            129  FE 1 XZ      0.29082     0.10620
            130  FE 1 YZ      0.00000     0.10620
            131  FE 1 XX      0.25677     0.16879
            132  FE 1 YY      0.51425     0.16879
            133  FE 1 ZZ      0.25707     0.11294
            134  FE 1 XY      0.25684     0.10175
            135  FE 1 XZ      0.25684     0.10149
            136  FE 1 YZ      0.00000     0.10149
            137  FE 1 XX      0.11506     0.13166
            138  FE 1 YY      0.27591     0.13166
            139  FE 1 ZZ      0.11992     0.10031
            140  FE 1 XY      0.11613     0.05186
            141  FE 1 XZ      0.11613     0.05058
            142  FE 1 YZ      0.00000     0.05058
            143  FE 1 XX      0.01779     0.16847
            144  FE 1 YY      0.06174     0.16847
            145  FE 1 ZZ      0.02006     0.16585
            146  FE 1 XY      0.01814     0.01418
            147  FE 1 XZ      0.01814     0.01319
            148  FE 1 YZ      0.00000     0.01319
            149  FE 1 XX      0.00027     0.08317
            150  FE 1 YY      0.00197     0.08317
            151  FE 1 ZZ      0.00030     0.08741
            152  FE 1 XY      0.00022     0.00145
            153  FE 1 XZ      0.00022     0.00128
            154  FE 1 YZ      0.00000     0.00128
            155  FE 1 XX      0.00921     0.10465
            156  FE 1 YY      0.01703     0.10465
            157  FE 1 ZZ      0.00905     0.08019
            158  FE 1 XY      0.00918     0.05490
            159  FE 1 XZ      0.00918     0.05553
            160  FE 1 YZ      0.00000     0.05553
            161  FE 1 XX      0.01210     0.16827
            162  FE 1 YY      0.02230     0.16827
            163  FE 1 ZZ      0.01189     0.13242
            164  FE 1 XY      0.01205     0.07724
            165  FE 1 XZ      0.01205     0.07801
            166  FE 1 YZ      0.00000     0.07801
            167  FE 1 XX      0.00001     0.00577
            168  FE 1 YY     -0.00001     0.00577
            169  FE 1 ZZ      0.00001     0.00619
            170  FE 1 XY      0.00001     0.00005
            171  FE 1 XZ      0.00001     0.00004
            172  FE 1 YZ      0.00000     0.00004
            173  FE 1 XXX     0.00000     0.09114
            174  FE 1 YYY     0.00000     0.09114
            175  FE 1 ZZZ     0.00000     0.09151
            176  FE 1 XXY     0.00000     0.03746
            177  FE 1 XXZ     0.00000     0.03799
            178  FE 1 YYX     0.00000     0.03746
            179  FE 1 YYZ     0.00000     0.03799
            180  FE 1 ZZX     0.00000     0.03852
            181  FE 1 ZZY     0.00000     0.03852
            182  FE 1 XYZ     0.00000     0.00000
            183  FE 1 XXX     0.00002     0.23431
            184  FE 1 YYY     0.00000     0.23431
            185  FE 1 ZZZ     0.00000     0.23600
            186  FE 1 XXY     0.00001     0.09578
            187  FE 1 XXZ     0.00000     0.09740
            188  FE 1 YYX     0.00000     0.09578
            189  FE 1 YYZ     0.00002     0.09740
            190  FE 1 ZZX     0.00000     0.09937
            191  FE 1 ZZY     0.00000     0.09937
            192  FE 1 XYZ     0.00000     0.00000
            193  FE 1 XXX     0.00004     0.17123
            194  FE 1 YYY     0.00000     0.17123
            195  FE 1 ZZZ     0.00000     0.17093
            196  FE 1 XXY     0.00002     0.06821
            197  FE 1 XXZ     0.00000     0.06975
            198  FE 1 YYX     0.00000     0.06821
            199  FE 1 YYZ     0.00004     0.06975
            200  FE 1 ZZX     0.00000     0.07194
            201  FE 1 ZZY     0.00000     0.07194
            202  FE 1 XYZ     0.00000     0.00000
            203  FE 1 XXX     0.00002     0.01757
            204  FE 1 YYY     0.00000     0.01757
            205  FE 1 ZZZ    -0.00000     0.01678
            206  FE 1 XXY     0.00000     0.00667
            207  FE 1 XXZ    -0.00000     0.00693
            208  FE 1 YYX     0.00000     0.00667
            209  FE 1 YYZ     0.00002     0.00693
            210  FE 1 ZZX     0.00000     0.00731
            211  FE 1 ZZY     0.00000     0.00731
            212  FE 1 XYZ     0.00000     0.00000
            213  FE 1 XXX     0.00000     0.00006
            214  FE 1 YYY     0.00000     0.00006
            215  FE 1 ZZZ     0.00000     0.00004
            216  FE 1 XXY    -0.00000     0.00002
            217  FE 1 XXZ     0.00000     0.00002
            218  FE 1 YYX     0.00000     0.00002
            219  FE 1 YYZ     0.00000     0.00002
            220  FE 1 ZZX     0.00000     0.00002
            221  FE 1 ZZY     0.00000     0.00002
            222  FE 1 XYZ     0.00000     0.00000
            223  FE 1XXXX     0.00000     0.12251
            224  FE 1YYYY     0.00000     0.12251
            225  FE 1ZZZZ     0.00000     0.09170
            226  FE 1XXXY     0.00000     0.03983
            227  FE 1XXXZ     0.00000     0.03998
            228  FE 1YYYX     0.00000     0.03983
            229  FE 1YYYZ     0.00000     0.03998
            230  FE 1ZZZX     0.00000     0.04073
            231  FE 1ZZZY     0.00000     0.04073
            232  FE 1XXYY     0.00000     0.05584
            233  FE 1XXZZ     0.00000     0.06399
            234  FE 1YYZZ     0.00000     0.06399
            235  FE 1XXYZ     0.00000     0.01817
            236  FE 1YYXZ     0.00000     0.01817
            237  FE 1ZZXY     0.00000     0.01817
            238  FE 1XXXX     0.00000     0.19504
            239  FE 1YYYY     0.00000     0.19504
            240  FE 1ZZZZ     0.00000     0.13804
            241  FE 1XXXY     0.00001     0.06870
            242  FE 1XXXZ     0.00001     0.06843
            243  FE 1YYYX     0.00001     0.06870
            244  FE 1YYYZ     0.00000     0.06843
            245  FE 1ZZZX     0.00000     0.07043
            246  FE 1ZZZY     0.00000     0.07043
            247  FE 1XXYY     0.00000     0.07327
            248  FE 1XXZZ     0.00000     0.08709
            249  FE 1YYZZ     0.00000     0.08709
            250  FE 1XXYZ     0.00000     0.02988
            251  FE 1YYXZ     0.00000     0.02988
            252  FE 1ZZXY     0.00000     0.03020
            253  FE 1XXXX     0.00000     0.15363
            254  FE 1YYYY     0.00000     0.15363
            255  FE 1ZZZZ     0.00000     0.09487
            256  FE 1XXXY     0.00001     0.06008
            257  FE 1XXXZ     0.00001     0.05877
            258  FE 1YYYX     0.00001     0.06008
            259  FE 1YYYZ     0.00000     0.05877
            260  FE 1ZZZX     0.00000     0.06099
            261  FE 1ZZZY     0.00000     0.06099
            262  FE 1XXYY     0.00000     0.03753
            263  FE 1XXZZ     0.00000     0.05191
            264  FE 1YYZZ     0.00000     0.05191
            265  FE 1XXYZ     0.00000     0.02548
            266  FE 1YYXZ     0.00000     0.02548
            267  FE 1ZZXY     0.00000     0.02634
            268  FE 1XXXX     0.00000     0.09861
            269  FE 1YYYY     0.00000     0.09861
            270  FE 1ZZZZ     0.00000     0.08101
            271  FE 1XXXY     0.00000     0.01655
            272  FE 1XXXZ     0.00000     0.01554
            273  FE 1YYYX     0.00000     0.01655
            274  FE 1YYYZ     0.00000     0.01554
            275  FE 1ZZZX     0.00000     0.01613
            276  FE 1ZZZY     0.00000     0.01613
            277  FE 1XXYY     0.00000     0.06522
            278  FE 1XXZZ     0.00000     0.07391
            279  FE 1YYZZ     0.00000     0.07391
            280  FE 1XXYZ     0.00000     0.00674
            281  FE 1YYXZ     0.00000     0.00674
            282  FE 1ZZXY     0.00000     0.00730

          ----- MULLIKEN ATOMIC OVERLAP POPULATIONS -----
          (OFF-DIAGONAL ELEMENTS NEED TO BE MULTIPLIED BY 2)

             1

    1   16.0000000

          TOTAL MULLIKEN AND LOWDIN ATOMIC POPULATIONS
       ATOM         MULL.POP.    CHARGE          LOW.POP.     CHARGE
    1 FE           16.000000    0.000000        16.000000   -0.000000

          MULLIKEN SPHERICAL HARMONIC POPULATIONS
       ATOM           S       P       D      F      G      H      I    TOTAL
    1 FE            4.00    6.00    6.00   0.00   0.00   0.00   0.00   16.00

          -------------------------------
          BOND ORDER AND VALENCE ANALYSIS     BOND ORDER THRESHOLD=0.050
          -------------------------------

                   BOND                       BOND                       BOND
  ATOM PAIR DIST  ORDER      ATOM PAIR DIST  ORDER      ATOM PAIR DIST  ORDER

                       TOTAL       BONDED        FREE
      ATOM            VALENCE     VALENCE     VALENCE
    1 FE                4.000       0.000       4.000

          -----------------------------------------
          ATOMIC SPIN DENSITY AT THE NUCLEUS (A.U.)
          -----------------------------------------
                            SPIN DENS    ALPHA DENS     BETA DENS
    1  FE          16.0     0.0000008       0.02574       0.02574

          ---------------------
          ELECTROSTATIC MOMENTS
          ---------------------

 POINT   1           X           Y           Z (BOHR)    CHARGE
                 0.000000    0.000000    0.000000        0.00 (A.U.)
         DX          DY          DZ         /D/  (DEBYE)
     0.000000    0.000000    0.000000    0.000000
 ...... END OF PROPERTY EVALUATION ......
 STEP CPU TIME =     0.33 TOTAL CPU TIME =       44.2 (    0.7 MIN)
 TOTAL WALL CLOCK TIME=       46.2 SECONDS, CPU UTILIZATION IS  95.63%
               957558  WORDS OF DYNAMIC MEMORY USED
 EXECUTION OF GAMESS TERMINATED NORMALLY Wed Aug  8 15:27:40 2018
 DDI: 263640 bytes (0.3 MB / 0 MWords) used by master data server.

 ----------------------------------------
 CPU timing information for all processes
 ========================================
 0: 39.08 + 5.200 = 44.208
 ----------------------------------------
Note: The following floating-point exceptions are signalling: IEEE_UNDERFLOW_FLAG IEEE_DENORMAL
 ddikick.x: exited gracefully.
unset echo
----- accounting info -----
Files used on the master node gwang18-OptiPlex-3040 were:
-rw-rw-r-- 1 gwang18 gwang18    1033300 8月   8 15:27 /home/gwang18/research/gamess/ecpcorrelation/fe/augccpwcvxzbasis_stu/hf/fe.dat
-rw------- 1 gwang18 gwang18    1033196 8月   8 15:26 /home/gwang18/research/gamess/ecpcorrelation/fe/augccpwcvxzbasis_stu/hf/fe.F05
-rw-rw-r-- 1 gwang18 gwang18 1366411088 8月   8 15:27 /home/gwang18/research/gamess/ecpcorrelation/fe/augccpwcvxzbasis_stu/hf/fe.F08
-rw-rw-r-- 1 gwang18 gwang18   16948960 8月   8 15:27 /home/gwang18/research/gamess/ecpcorrelation/fe/augccpwcvxzbasis_stu/hf/fe.F10
-rw------- 1 gwang18 gwang18    1033196 8月   8 15:26 /home/gwang18/research/gamess/ecpcorrelation/fe/augccpwcvxzbasis_stu/hf/fe.inp
-rw-rw-r-- 1 gwang18 gwang18     972194 8月   8 15:27 /home/gwang18/research/gamess/ecpcorrelation/fe/augccpwcvxzbasis_stu/hf/fe.out
ls: No match.
ls: No match.
ls: No match.
2018年 08月 08日 星期三 15:27:43 EDT
0.0u 0.1s 0:49.46 0.3% 0+0k 0+2024io 0pf+0w
