
 Primary working directories    : /global/cscratch1/sd/aannabe
 Secondary working directories  : /global/cscratch1/sd/aannabe
 Wavefunction directory         : /global/homes/a/aannabe/wfu/
 Main file repository           : /global/cscratch1/sd/aannabe/

 SHA1      : 19cd028119e0e09f93f0674bd8af7968d9b3eff6
 NAME      : 2015.1.36
 ARCHNAME  : linux/x86_64
 FC        : /opt/cray/pe/craype/2.5.14/bin/ftn
 BLASLIB   : -L/opt/intel/compilers_and_libraries_2018.1.163/linux/mkl/lib/intel64 -Wl,-_start-group -lmkl_intel_ilp64 -lmkl_intel_thread -lmkl_core -Wl,-_end-group -liomp5
 id        : lbl

 Nodes     nprocs
 nid00491     1

 Using customized tuning parameters: mindgm=7; mindgv=16; mindgc=1; mindgr=1; noblas=0; minvec=7
 default implementation of scratch files=df  

 ***,Ga
 memory,8,g
 gthresh,twoint=1.e-12
 
 gprint,basis,orbitals
 gexpec,ekin,pot
 
 angstrom
 geometry={
 1                                                                               ! Number of atoms
 Ga 0.0 0.0 0.0
 }
 
 basis={
 
 Including file /global/homes/a/aannabe/repos/pseudopotentiallibrary/recipes/Ga/ccECP/Ga.ccECP.molpro
 
                                   !include,/global/homes/a/aannabe/repos/pseudopotentiallibrary/recipes/Ga/ccECP/Ga.cc-pVQZ.molpro
                                  !include,/global/homes/a/aannabe/repos/pseudopotentiallibrary/recipes/Ga/ccECP/Ga.cc-pCVQZ.molpro
 Including file /global/homes/a/aannabe/repos/pseudopotentiallibrary/recipes/Ga/ccECP/Ga.aug-cc-pVQZ.molpro
 
 
 }
 
 {hf
 wf,3,2,1
 occ,1,1,0,0,0,0,0,0
                                                                                 !open,1.2
 closed,1,0,0,0,0,0,0,0
                                                                                 !sym,
 }
 scf(i)=energy
 
 _CC_NORM_MAX=2.0
 {uccsd(t)
 maxit,100
 core
 }
 posthf(i)=energy
 
 table,scf,posthf,ekin,pot
 save,4.csv,new
 
 

 Variables initialized (889), CPU time= 0.00 sec
 Commands  initialized (702), CPU time= 0.01 sec, 572 directives.
 Default parameters read. Elapsed time= 0.14 sec

 Checking input...
 Passed
1


                                         ***  PROGRAM SYSTEM MOLPRO  ***
                                       Copyright, TTI GmbH Stuttgart, 2015
                                    Version 2015.1 linked Dec 29 2018 15:55:43


 **********************************************************************************************************************************
 LABEL *   Ga                                                                            
  64 bit serial version                                                                  DATE: 25-Jun-19          TIME: 12:04:09  
 **********************************************************************************************************************************

 SHA1:             19cd028119e0e09f93f0674bd8af7968d9b3eff6
 **********************************************************************************************************************************

 THRESHOLDS:

 ZERO    =  1.00D-12  ONEINT  =  1.00D-12  TWOINT  =  1.00D-12  PREFAC  =  1.00D-14  LOCALI  =  1.00D-09  EORDER  =  1.00D-04
 ENERGY  =  0.00D+00  ETEST   =  0.00D+00  EDENS   =  0.00D+00  THRDEDEF=  1.00D-06  GRADIENT=  1.00D-02  STEP    =  1.00D-03
 ORBITAL =  1.00D-05  CIVEC   =  1.00D-05  COEFF   =  1.00D-04  PRINTCI =  5.00D-02  PUNCHCI =  9.90D+01  OPTGRAD =  3.00D-04
 OPTENERG=  1.00D-06  OPTSTEP =  3.00D-04  THRGRAD =  1.00D-10  COMPRESS=  1.00D-11  VARMIN  =  1.00D-07  VARMAX  =  1.00D-03
 THRDOUB =  0.00D+00  THRDIV  =  1.00D-05  THRRED  =  1.00D-07  THRPSP  =  1.00D+00  THRDC   =  1.00D-10  THRCS   =  1.00D-10
 THRNRM  =  1.00D-08  THREQ   =  0.00D+00  THRDE   =  1.00D+00  THRREF  =  1.00D-05  SPARFAC =  1.00D+00  THRDLP  =  1.00D-07
 THRDIA  =  1.00D-10  THRDLS  =  1.00D-07  THRGPS  =  0.00D+00  THRKEX  =  0.00D+00  THRDIS  =  2.00D-01  THRVAR  =  1.00D-10
 THRLOC  =  1.00D-06  THRGAP  =  1.00D-06  THRLOCT = -1.00D+00  THRGAPT = -1.00D+00  THRORB  =  1.00D-06  THRMLTP =  0.00D+00
 THRCPQCI=  1.00D-10  KEXTA   =  0.00D+00  THRCOARS=  0.00D+00  SYMTOL  =  1.00D-06  GRADTOL =  1.00D-06  THROVL  =  1.00D-08
 THRORTH =  1.00D-08  GRID    =  1.00D-06  GRIDMAX =  1.00D-03  DTMAX   =  0.00D+00  THROCCDE=  1.00D-01  THROCCDE=  1.00D-01



 ZUNIT=ANG
 

Geometry recognized as XYZ


 Variable memory set to 8000000000 words,  buffer space   230000 words

 SETTING BASIS          =    USERDEF


 Recomputing integrals since basis changed


 Using spherical harmonics



 PROGRAM * SEWARD (Integral evaluation for generally contracted gaussian basis sets)     Author: Roland Lindh, 1990

 Geometry written to block  1 of record 700

 Orientation using atomic masses  
 Molecule type: Atom
 Symmetry elements: X,Y,Z
 Rotational constants:       0.0000000      0.0000000      0.0000000 GHz  (calculated with average atomic masses)

 Point group  D2h 



 ATOMIC COORDINATES

 NR  ATOM    CHARGE       X              Y              Z

   1  GA      3.00    0.000000000    0.000000000    0.000000000


          GA  CORE POTENTIAL

          f POTENTIAL

 POWERS             1              3              2              2
 EXPONENTIALS   17.00474       14.99962       11.99279       14.99282    
 COEFFICIENTS   3.000000       51.01422      -39.00063       35.44659    

          s - f POTENTIAL

 POWERS             2              2
 EXPONENTIALS   1.857811      0.9195059    
 COEFFICIENTS   21.78931      -2.866851    

          p - f POTENTIAL

 POWERS             2              2
 EXPONENTIALS   1.920302       1.008959    
 COEFFICIENTS   18.63986      -1.633697    

          d - f POTENTIAL

 POWERS             2              2
 EXPONENTIALS  0.6275088      0.3261903    
 COEFFICIENTS   2.035237     -8.5323757E-02


 BASIS DATA

   Nr Sym  Nuc  Type         Exponents   Contraction coefficients

    1.1 Ag    1  1s          31.011369    -0.000046
                             13.757663     0.000207
                              6.103352    -0.008282
                              2.707648     0.085722
                              1.201202    -0.350699
                              0.532893     0.004567
                              0.236409     0.452968
                              0.104879     0.558187
                              0.046528     0.163319
    2.1 Ag    1  1s           0.382198     1.000000
    3.1 Ag    1  1s           0.155250     1.000000
    4.1 Ag    1  1s           0.063063     1.000000
    5.1 Ag    1  1s           0.025225     1.000000
    6.1 Ag    1  3d0          0.373226     1.000000
    7.1 Ag    1  3d2+         0.373226     1.000000
    8.1 Ag    1  3d0          0.173594     1.000000
    9.1 Ag    1  3d2+         0.173594     1.000000
   10.1 Ag    1  3d0          0.080742     1.000000
   11.1 Ag    1  3d2+         0.080742     1.000000
   12.1 Ag    1  3d0          0.032297     1.000000
   13.1 Ag    1  3d2+         0.032297     1.000000
   14.1 Ag    1  5g0          0.406448     1.000000
   15.1 Ag    1  5g4+         0.406448     1.000000
   16.1 Ag    1  5g2+         0.406448     1.000000
   17.1 Ag    1  5g0          0.162579     1.000000
   18.1 Ag    1  5g4+         0.162579     1.000000
   19.1 Ag    1  5g2+         0.162579     1.000000
    1.2 B3u   1  2px         15.391968    -0.000120
                              6.919798    -0.000202
                              3.110948     0.008853
                              1.398595    -0.073708
                              0.628769     0.028260
                              0.282677     0.221463
                              0.127084     0.413320
                              0.057133     0.385686
                              0.025686     0.112292
    2.2 B3u   1  2px          0.303209     1.000000
    3.2 B3u   1  2px          0.113225     1.000000
    4.2 B3u   1  2px          0.042281     1.000000
    5.2 B3u   1  2px          0.016912     1.000000
    6.2 B3u   1  4f1+         0.450135     1.000000
    7.2 B3u   1  4f3+         0.450135     1.000000
    8.2 B3u   1  4f1+         0.175748     1.000000
    9.2 B3u   1  4f3+         0.175748     1.000000
   10.2 B3u   1  4f1+         0.070299     1.000000
   11.2 B3u   1  4f3+         0.070299     1.000000
    1.3 B2u   1  2py         15.391968    -0.000120
                              6.919798    -0.000202
                              3.110948     0.008853
                              1.398595    -0.073708
                              0.628769     0.028260
                              0.282677     0.221463
                              0.127084     0.413320
                              0.057133     0.385686
                              0.025686     0.112292
    2.3 B2u   1  2py          0.303209     1.000000
    3.3 B2u   1  2py          0.113225     1.000000
    4.3 B2u   1  2py          0.042281     1.000000
    5.3 B2u   1  2py          0.016912     1.000000
    6.3 B2u   1  4f1-         0.450135     1.000000
    7.3 B2u   1  4f3-         0.450135     1.000000
    8.3 B2u   1  4f1-         0.175748     1.000000
    9.3 B2u   1  4f3-         0.175748     1.000000
   10.3 B2u   1  4f1-         0.070299     1.000000
   11.3 B2u   1  4f3-         0.070299     1.000000
    1.4 B1g   1  3d2-         0.373226     1.000000
    2.4 B1g   1  3d2-         0.173594     1.000000
    3.4 B1g   1  3d2-         0.080742     1.000000
    4.4 B1g   1  3d2-         0.032297     1.000000
    5.4 B1g   1  5g2-         0.406448     1.000000
    6.4 B1g   1  5g4-         0.406448     1.000000
    7.4 B1g   1  5g2-         0.162579     1.000000
    8.4 B1g   1  5g4-         0.162579     1.000000
    1.5 B1u   1  2pz         15.391968    -0.000120
                              6.919798    -0.000202
                              3.110948     0.008853
                              1.398595    -0.073708
                              0.628769     0.028260
                              0.282677     0.221463
                              0.127084     0.413320
                              0.057133     0.385686
                              0.025686     0.112292
    2.5 B1u   1  2pz          0.303209     1.000000
    3.5 B1u   1  2pz          0.113225     1.000000
    4.5 B1u   1  2pz          0.042281     1.000000
    5.5 B1u   1  2pz          0.016912     1.000000
    6.5 B1u   1  4f0          0.450135     1.000000
    7.5 B1u   1  4f2+         0.450135     1.000000
    8.5 B1u   1  4f0          0.175748     1.000000
    9.5 B1u   1  4f2+         0.175748     1.000000
   10.5 B1u   1  4f0          0.070299     1.000000
   11.5 B1u   1  4f2+         0.070299     1.000000
    1.6 B2g   1  3d1+         0.373226     1.000000
    2.6 B2g   1  3d1+         0.173594     1.000000
    3.6 B2g   1  3d1+         0.080742     1.000000
    4.6 B2g   1  3d1+         0.032297     1.000000
    5.6 B2g   1  5g1+         0.406448     1.000000
    6.6 B2g   1  5g3+         0.406448     1.000000
    7.6 B2g   1  5g1+         0.162579     1.000000
    8.6 B2g   1  5g3+         0.162579     1.000000
    1.7 B3g   1  3d1-         0.373226     1.000000
    2.7 B3g   1  3d1-         0.173594     1.000000
    3.7 B3g   1  3d1-         0.080742     1.000000
    4.7 B3g   1  3d1-         0.032297     1.000000
    5.7 B3g   1  5g1-         0.406448     1.000000
    6.7 B3g   1  5g3-         0.406448     1.000000
    7.7 B3g   1  5g1-         0.162579     1.000000
    8.7 B3g   1  5g3-         0.162579     1.000000
    1.8 Au    1  4f2-         0.450135     1.000000
    2.8 Au    1  4f2-         0.175748     1.000000
    3.8 Au    1  4f2-         0.070299     1.000000

 NUCLEAR CHARGE:                    3
 NUMBER OF PRIMITIVE AOS:         136
 NUMBER OF SYMMETRY AOS:          111
 NUMBER OF CONTRACTIONS:           79   (  19Ag  +  11B3u +  11B2u +   8B1g +  11B1u +   8B2g +   8B3g +   3Au  )
 NUMBER OF CORE ORBITALS:           0   (   0Ag  +   0B3u +   0B2u +   0B1g +   0B1u +   0B2g +   0B3g +   0Au  )
 NUMBER OF VALENCE ORBITALS:        4   (   1Ag  +   1B3u +   1B2u +   0B1g +   1B1u +   0B2g +   0B3g +   0Au  )


 NUCLEAR REPULSION ENERGY    0.00000000

 EXTRA SYMMETRY OF AOS IN SYMMETRY 1:   1 1 1 1 1 2 3 2 3 2   3 2 3 4 5 6 4 5 6
 EXTRA SYMMETRY OF AOS IN SYMMETRY 2:   1 1 1 1 1 2 3 2 3 2   3
 EXTRA SYMMETRY OF AOS IN SYMMETRY 3:   1 1 1 1 1 2 3 2 3 2   3
 EXTRA SYMMETRY OF AOS IN SYMMETRY 4:   1 1 1 1 2 3 2 3
 EXTRA SYMMETRY OF AOS IN SYMMETRY 5:   1 1 1 1 1 2 3 2 3 2   3
 EXTRA SYMMETRY OF AOS IN SYMMETRY 6:   1 1 1 1 2 3 2 3
 EXTRA SYMMETRY OF AOS IN SYMMETRY 7:   1 1 1 1 2 3 2 3

 Eigenvalues of metric

         1 0.441E-02 0.241E-01 0.462E-01 0.462E-01 0.192E+00 0.300E+00 0.300E+00 0.428E+00
         2 0.141E-02 0.539E-01 0.200E+00 0.200E+00 0.293E+00 0.819E+00 0.819E+00 0.109E+01
         3 0.141E-02 0.539E-01 0.200E+00 0.200E+00 0.293E+00 0.819E+00 0.819E+00 0.109E+01
         4 0.462E-01 0.300E+00 0.428E+00 0.428E+00 0.106E+01 0.157E+01 0.157E+01 0.260E+01
         5 0.141E-02 0.539E-01 0.200E+00 0.200E+00 0.293E+00 0.819E+00 0.819E+00 0.109E+01
         6 0.462E-01 0.300E+00 0.428E+00 0.428E+00 0.106E+01 0.157E+01 0.157E+01 0.260E+01
         7 0.462E-01 0.300E+00 0.428E+00 0.428E+00 0.106E+01 0.157E+01 0.157E+01 0.260E+01
         8 0.200E+00 0.819E+00 0.198E+01


 Contracted 2-electron integrals neglected if value below      1.0D-12
 AO integral compression algorithm  1   Integral accuracy      1.0D-12

     6.291 MB (compressed) written to integral file ( 62.5%)


 NUMBER OF SORTED TWO-ELECTRON INTEGRALS:     665704.     BUFFER LENGTH:  32768
 NUMBER OF SEGMENTS:   1  SEGMENT LENGTH:     665704      RECORD LENGTH: 524288

 Memory used in sort:       1.22 MW

 SORT1 READ     1222209. AND WROTE      500866. INTEGRALS IN      2 RECORDS. CPU TIME:     0.03 SEC, REAL TIME:     0.04 SEC
 SORT2 READ      500866. AND WROTE      665704. INTEGRALS IN     24 RECORDS. CPU TIME:     0.04 SEC, REAL TIME:     0.09 SEC

 FILE SIZES:   FILE 1:    26.3 MBYTE,  FILE 4:     8.4 MBYTE,   TOTAL:     34.7 MBYTE

 OPERATOR DM      FOR CENTER  0  COORDINATES:    0.000000    0.000000    0.000000
 OPERATOR EKIN    FOR CENTER  0  COORDINATES:    0.000000    0.000000    0.000000
 OPERATOR POT     FOR CENTER  0  COORDINATES:    0.000000    0.000000    0.000000


 **********************************************************************************************************************************
 DATASETS  * FILE   NREC   LENGTH (MB)   RECORD NAMES
              1      20       23.40       500      610      700      900      950      970     1000      129      960     1100   
                                          VAR    BASINP    GEOM    SYMINP    ZMAT    AOBASIS   BASIS     P2S    ABASIS      S 
                                         1400     1410     1420     1200     1210     1080     1600     1650     1300     1700   
                                         EKIN       V       ECP      H0       H01     AOSYM     SMH    MOLCAS    ERIS     OPER   

 PROGRAMS   *        TOTAL       INT
 CPU TIMES  *         1.85      1.77
 REAL TIME  *        16.21 SEC
 DISK USED  *        35.03 MB      
 **********************************************************************************************************************************


 PROGRAM * RHF-SCF (OPEN SHELL)       Authors: W. Meyer, H.-J. Werner


 NUMBER OF ELECTRONS:       2+    1-    SPACE SYMMETRY=2    SPIN SYMMETRY: Doublet 
 CONVERGENCE THRESHOLDS:    1.00E-05 (Density)    1.00E-07 (Energy)
 MAX. NUMBER OF ITERATIONS:       60
 INTERPOLATION TYPE:            DIIS
 INTERPOLATION STEPS:              2 (START)      1 (STEP)
 LEVEL SHIFTS:                 -0.60 (CLOSED) -0.30 (OPEN) 

 Number of closed-shell orbitals:    1 (   1   0   0   0   0   0   0   0 )
 Number of open-shell orbitals:      1 (   0   1   0   0   0   0   0   0 )



   Atom=GA basis=ECP28MWB_GUESS    lmin=0  lmax=1

 Orbital guess generated from atomic densities. Full valence occupancy:    1   1   1   0   1   0   0   0


 Molecular orbital dump at record        2100.2

 ITERATION    DDIFF          GRAD             ENERGY        2-EL.EN.            DIPOLE MOMENTS         DIIS   ORB.
    1      0.000D+00      0.000D+00        -1.96545266      1.636978    0.00000    0.00000    0.00000    0    start
    2      0.000D+00      0.583D-02        -1.97367561      1.700174    0.00000    0.00000    0.00000    1    diag,B
    3      0.753D-02      0.369D-02        -1.98032872      1.765935    0.00000    0.00000    0.00000    2    diag,B
    4      0.842D-02      0.228D-02        -1.98374782      1.813664    0.00000    0.00000    0.00000    3    diag,B
    5      0.831D-02      0.100D-02        -1.98420172      1.825347    0.00000    0.00000    0.00000    4    diag,B
    6      0.444D-02      0.228D-03        -1.98421126      1.825574    0.00000    0.00000    0.00000    5    diag,B
    7      0.918D-03      0.562D-04        -1.98421177      1.825969    0.00000    0.00000    0.00000    6    fixocc
    8      0.250D-03      0.162D-04        -1.98421181      1.825803    0.00000    0.00000    0.00000    7    diag,B
    9      0.463D-04      0.223D-05        -1.98421181      1.825794    0.00000    0.00000    0.00000    8    diag,B
   10      0.711D-05      0.674D-06        -1.98421181      1.825795    0.00000    0.00000    0.00000    0    orth

 Final alpha occupancy:   1   1   0   0   0   0   0   0
 Final beta  occupancy:   1   0   0   0   0   0   0   0

 !RHF STATE 1.2 Energy                 -1.984211812770
 Nuclear energy                         0.00000000
 One-electron energy                   -2.89710929
 Two-electron energy                    0.91289748
 Virial quotient                       -2.76812513
 !RHF STATE 1.2 Dipole moment           0.00000000     0.00000000     0.00000000
 Dipole moment /Debye                   0.00000000     0.00000000     0.00000000
 

 !RHF expec          <1.2|EKIN|1.2>     0.716807123876
 
 !RHF expec           <1.2|POT|1.2>    -1.287646098033

 ELECTRON ORBITALS
 =================


   Orb  Occ    Energy  Couls-En    Coefficients

                                   1 1s      1 1s      1 1s      1 1s      1 1s      1 3d0     1 3d2+    1 3d0     1 3d2+    1 3d0  
                                   1 3d2+    1 3d0     1 3d2+    1 5g0     1 5g4+    1 5g2+    1 5g0     1 5g4+    1 5g2+ 

   1.1   2    -0.4319   -1.5040  0.999776 -0.000358  0.001182 -0.001132  0.000510  0.000480 -0.000831  0.000543 -0.000941 -0.004553
                                 0.007886 -0.001163  0.002015  0.000006  0.000012 -0.000009 -0.000045 -0.000088  0.000067

                                   1 2px     1 2px     1 2px     1 2px     1 2px     1 4f1+    1 4f3+    1 4f1+    1 4f3+    1 4f1+ 
                                   1 4f3+ 

   1.2   +    -0.2076   -0.9605  0.999592 -0.000031  0.000195  0.000132  0.000244  0.000030 -0.000039  0.000085 -0.000110 -0.000154
                                 0.000199

 HOMO      1.2    -0.207606 =      -5.6493eV
 LUMO      1.3     0.010826 =       0.2946eV
 LUMO-HOMO         0.218432 =       5.9438eV


 **********************************************************************************************************************************
 DATASETS  * FILE   NREC   LENGTH (MB)   RECORD NAMES
              1      20       23.40       500      610      700      900      950      970     1000      129      960     1100   
                                          VAR    BASINP    GEOM    SYMINP    ZMAT    AOBASIS   BASIS     P2S    ABASIS      S 
                                         1400     1410     1420     1200     1210     1080     1600     1650     1300     1700   
                                         EKIN       V       ECP      H0       H01     AOSYM     SMH    MOLCAS    ERIS     OPER   

              2       4        2.78       700     1000      520     2100   
                                         GEOM     BASIS   MCVARS     RHF  

 PROGRAMS   *        TOTAL        HF       INT
 CPU TIMES  *         1.91      0.06      1.77
 REAL TIME  *        16.49 SEC
 DISK USED  *        35.03 MB      
 **********************************************************************************************************************************
 SETTING SCF(I)         =        -1.98421181  AU                              
 SETTING _CC_NORM_MAX   =         2.00000000                                  


 PROGRAM * CCSD (Unrestricted open-shell coupled cluster)     Authors: C. Hampel, H.-J. Werner, 1991, M. Deegan, P.J. Knowles, 1992


 Convergence thresholds:  THRVAR = 1.00D-08  THRDEN = 1.00D-06

 CCSD(T)     terms to be evaluated (factor= 1.000)


 Number of closed-shell orbitals:   1 (   1   0   0   0   0   0   0   0 )
 Number of active  orbitals:        1 (   0   1   0   0   0   0   0   0 )
 Number of external orbitals:      77 (  18  10  11   8  11   8   8   3 )

 Memory could be reduced to 0.81 Mwords without degradation in triples

 Number of N-1 electron functions:               3
 Number of N-2 electron functions:               3
 Number of singly external CSFs:                47
 Number of doubly external CSFs:              2082
 Total number of CSFs:                        2129

 Molecular orbitals read from record     2100.2  Type=RHF/CANONICAL (state 1.2)

 Integral transformation finished. Total CPU:   0.01 sec, npass=  1  Memory used:   0.12 MW

 Starting RMP2 calculation

 ITER.      SQ.NORM     CORR.ENERGY   TOTAL ENERGY   ENERGY CHANGE        DEN1      VAR(S)    VAR(P)  DIIS     TIME
   1      1.03030147    -0.04147372    -2.02568553    -0.04147372    -0.00056003  0.36D-04  0.40D-03  1  1     0.01
   2      1.03149700    -0.04212033    -2.02633214    -0.00064661    -0.00000133  0.11D-06  0.93D-06  2  2     0.01
   3      1.03153270    -0.04213184    -2.02634365    -0.00001151    -0.00000001  0.49D-09  0.44D-08  3  3     0.01
   4      1.03153321    -0.04213188    -2.02634370    -0.00000004    -0.00000000  0.19D-11  0.25D-10  4  4     0.01

 Norm of t1 vector:      0.04751691      S-energy:    -0.00186213      T1 diagnostic:  0.00020025
 Norm of t2 vector:      0.17110041      P-energy:    -0.04026976
                                         Alpha-Beta:  -0.03728263
                                         Alpha-Alpha: -0.00298713
                                         Beta-Beta:    0.00000000

 Spin contamination <S**2-Sz**2-Sz>     0.00895752
  Reference energy                     -1.984211812770
  RHF-RMP2 correlation energy          -0.042131882344
 !RHF-RMP2 energy                      -2.026343695114

 Starting UCCSD calculation

 ITER.      SQ.NORM     CORR.ENERGY   TOTAL ENERGY   ENERGY CHANGE        DEN1      VAR(S)    VAR(P)  DIIS     TIME
   1      1.04142941    -0.04672588    -2.03093769    -0.04672588    -0.00385726  0.25D-03  0.27D-02  1  1     0.02
   2      1.05731000    -0.05251846    -2.03673027    -0.00579258    -0.00022442  0.29D-04  0.13D-03  2  2     0.03
   3      1.06047661    -0.05320710    -2.03741891    -0.00068864    -0.00001764  0.27D-05  0.11D-04  3  3     0.03
   4      1.06160593    -0.05345348    -2.03766529    -0.00024638    -0.00000114  0.33D-06  0.69D-06  4  4     0.04
   5      1.06163060    -0.05343935    -2.03765116     0.00001412    -0.00000008  0.56D-07  0.39D-07  5  5     0.05
   6      1.06167796    -0.05345125    -2.03766306    -0.00001190    -0.00000001  0.10D-07  0.32D-08  6  6     0.05
   7      1.06167226    -0.05344854    -2.03766035     0.00000271    -0.00000000  0.17D-08  0.50D-09  6  1     0.05
   8      1.06167406    -0.05344857    -2.03766038    -0.00000003    -0.00000000  0.10D-09  0.42D-10  6  3     0.06

 Norm of t1 vector:      0.06176372      S-energy:    -0.00210826      T1 diagnostic:  0.01261754
                                                                       D1 diagnostic:  0.01683054
 Norm of t2 vector:      0.24053960      P-energy:    -0.05134031
                                         Alpha-Beta:  -0.04808758
                                         Alpha-Alpha: -0.00325273
                                         Beta-Beta:    0.00000000

 Doubles amplitudes (print threshold =  0.500E-01):

         I         J         SYM. A    SYM. B    A         B      T(IJ, AB) [Alpha-Beta]

         1         1         3         3         1         1     -0.05318194
         1         1         5         5         1         1     -0.05318194
         2         1         1         2         4         1     -0.05499440

 Spin contamination <S**2-Sz**2-Sz>     0.00169572

 Memory could be reduced to 0.81 Mwords without degradation in triples
 

 RESULTS
 =======

  Reference energy                     -1.984211812770
  UCCSD singles energy                 -0.002108257335
  UCCSD pair energy                    -0.051340308331
  UCCSD correlation energy             -0.053448565665
  Triples (T) contribution             -0.001205615162
  Total correlation energy             -0.054654180828
 
  RHF-UCCSD energy                     -2.037660378435
  RHF-UCCSD[T] energy                  -2.038819740005
  RHF-UCCSD-T energy                   -2.038870720151
 !RHF-UCCSD(T) energy                  -2.038865993598

 Program statistics:

 Available memory in ccsd:              7999999848
 Min. memory needed in ccsd:                 30464
 Max. memory used in ccsd:                   31244
 Max. memory used in cckext:                 56128 ( 8 integral passes)
 Max. memory used in cckint:                123465 ( 1 integral passes)



 **********************************************************************************************************************************
 DATASETS  * FILE   NREC   LENGTH (MB)   RECORD NAMES
              1      20       23.40       500      610      700      900      950      970     1000      129      960     1100   
                                          VAR    BASINP    GEOM    SYMINP    ZMAT    AOBASIS   BASIS     P2S    ABASIS      S 
                                         1400     1410     1420     1200     1210     1080     1600     1650     1300     1700   
                                         EKIN       V       ECP      H0       H01     AOSYM     SMH    MOLCAS    ERIS     OPER   

              2       4        2.78       700     1000      520     2100   
                                         GEOM     BASIS   MCVARS     RHF  

 PROGRAMS   *        TOTAL  UCCSD(T)        HF       INT
 CPU TIMES  *         2.02      0.10      0.06      1.77
 REAL TIME  *        17.31 SEC
 DISK USED  *        35.03 MB      
 **********************************************************************************************************************************
 SETTING POSTHF(I)      =        -2.03886599  AU                              
                                                                                                                                                                                                                                                                

       SCF           POSTHF       EKIN          POT
    -1.98421181   -2.03886599   0.71680712   -1.28764610
                                                  

 UCCSD(T)/USERDEF energy=     -2.038865993598

        UCCSD(T)        HF-SCF  
     -2.03886599     -1.98421181
 **********************************************************************************************************************************
 Molpro calculation terminated
 Variable memory released
