TACC:  Starting up job 2692924 
TACC:  Starting parallel tasks... 
  Input file(s): C.log.qmc.in-wfj.xml 

=====================================================
                    QMCPACK 3.5.0 

       (c) Copyright 2003-  QMCPACK developers

                    Please cite:
 J. Kim et al. J. Phys. Cond. Mat. 30 195901 (2018)
      https://doi.org/10.1088/1361-648X/aab9c3

  Git branch: develop
  Last git commit: ca320f40410f5ef17c38db08d5c54848ef64bfe1
  Last git commit date: Tue Dec 18 15:37:17 2018 +0800
  Last git commit subject: Merge pull request #764 from Paul-St-Young/dat-h5
=====================================================
  Global options 

  MPI Nodes             = 1024
  MPI Nodes per group   = 1024
  MPI Group ID          = 0
  OMP 1st level threads = 1
  OMP nested threading disabled or only 1 thread on the 2nd level

  Precision used in this calculation, see definitions in the manual:
  Base precision      = double
  Full precision      = double

  Structure-of-arrays (SoA) optimization enabled

  Input XML = C.log.qmc.in-wfj.xml

  Project = C.log
  date    = 2018-12-26 16:55:16 CST
  host    = c447-052.stampede2.tacc.utexas.edu

 Random Number
 -------------
  Offset for the random number seeds based on time: 724

  Range of prime numbers to use as seeds over processors and threads = 5501-14947


 Particle Set 
 ------------
  Name: ion0
  All the species have the same mass 1
  Particle set size: 1

 Particle Set 
 ------------
  Name: e
  All the species have the same mass 1
  Particle set size: 4

 Wavefunction setup: 
 ------------------- 
  Name: psi0
  LCAO: SoaAtomicBasisSet<MultiQuintic,0>

  Distance table for similar particles (A-A):
    source/target: e
    Using structure-of-arrays (SoA) data layout
    Distance computations use open boundary conditions in 3D.


  Distance table for dissimilar particles (A-B):
    source: ion0  target: e
    Using structure-of-arrays (SoA) data layout
    Distance computations use open boundary conditions in 3D.

Reading BasisSet from HDF5 file:C.log.orbs.h5
<input node="atomicBasisSet" name="Gaussian" expandYlm="gaussian" angular="cartesian" elementType="C" normalized="no" type="Numerical" expM="0" />
  AO BasisSet for C
   Angular momentum expanded in cartesian functions x^lx y^ly z^lz according to Gamess
   Grid is created by the input paremters in h5
    Using log grid ri = 1e-06 rf = 100 npts = 1001
   R(n,l,m,s) 0 0 0 0
   R(n,l,m,s) 1 0 0 0
   R(n,l,m,s) 2 0 0 0
   R(n,l,m,s) 3 1 0 0
   R(n,l,m,s) 4 1 0 0
   R(n,l,m,s) 5 1 0 0
   R(n,l,m,s) 6 2 0 0
   R(n,l,m,s) 7 2 0 0
   R(n,l,m,s) 8 3 0 0
Expanding Ylm (angular function) according to Gamess using cartesian gaussians
Adding 1 cartesian gaussian orbitals for l= 0
Adding 1 cartesian gaussian orbitals for l= 0
Adding 1 cartesian gaussian orbitals for l= 0
Adding 3 cartesian gaussian orbitals for l= 1
Adding 3 cartesian gaussian orbitals for l= 1
Adding 3 cartesian gaussian orbitals for l= 1
Adding 6 cartesian gaussian orbitals for l= 2
Adding 6 cartesian gaussian orbitals for l= 2
Adding 10 cartesian gaussian orbitals for l= 3
   Maximum Angular Momentum  = 3
   Number of Radial functors = 9
   Basis size                = 34

  Created SPOSet builder named 'LCAOBSet' of type molecularorbital
Reuse SPOSetBuilder "LCAOBSet" type MolecularOrbital
  Building SPOSet '' with '' basis set.
Reuse SPOSetBuilder "LCAOBSet" type MolecularOrbital
  Building SPOSet '' with '' basis set.
  Creating a determinant updet group=0 sposet=updet
  Reusing a SPO set updet
Using DiracDeterminant 
Using rank-1 Sherman-Morrison Fahy update

  Creating a determinant downdet group=1 sposet=downdet
  Reusing a SPO set downdet
Using DiracDeterminant 
Using rank-1 Sherman-Morrison Fahy update

  FermionWF = SlaterDet
  RadialJastrowBuilder adds a functor with cusp = -0.25
 size = 10 parameters 
 cusp = -0.25
 rcut = 6.5
Parameter     Name      Value
uu_0 0 1 1  ON 0
uu_1 0 1 1  ON 1
uu_2 0 1 1  ON 2
uu_3 0 1 1  ON 3
uu_4 0 1 1  ON 4
uu_5 0 1 1  ON 5
uu_6 0 1 1  ON 6
uu_7 0 1 1  ON 7
uu_8 0 1 1  ON 8
uu_9 0 1 1  ON 9
  RadialJastrowBuilder adds a functor with cusp = -0.5
 size = 10 parameters 
 cusp = -0.5
 rcut = 6.5
Parameter     Name      Value
ud_0 0 1 1  ON 0
ud_1 0 1 1  ON 1
ud_2 0 1 1  ON 2
ud_3 0 1 1  ON 3
ud_4 0 1 1  ON 4
ud_5 0 1 1  ON 5
ud_6 0 1 1  ON 6
ud_7 0 1 1  ON 7
ud_8 0 1 1  ON 8
ud_9 0 1 1  ON 9
 size = 10 parameters 
 cusp = 0
 rcut = 6.5
Parameter     Name      Value
eC_0 0 1 1  ON 0
eC_1 0 1 1  ON 1
eC_2 0 1 1  ON 2
eC_3 0 1 1  ON 3
eC_4 0 1 1  ON 4
eC_5 0 1 1  ON 5
eC_6 0 1 1  ON 6
eC_7 0 1 1  ON 7
eC_8 0 1 1  ON 8
eC_9 0 1 1  ON 9
Expected 26 parameters, but found 0 in PolynomialFunctor3D.
Expected 26 parameters, but found 0 in PolynomialFunctor3D.
  QMCHamiltonian::addOperator Kinetic to H, physical Hamiltonian 
  QMCHamiltonian::addOperator ElecElec to H, physical Hamiltonian 
QMCHamiltonian::addOperatorType added type coulomb named ElecElec
  CoulombAA for ion0 is not created.  Number of particles == 1 and nonPeriodic

  ECPotential builder for pseudopotential 

  Adding pseudopotential for C
   Linear grid  ri=0 rf=10 npts = 10001
    ECPComponentBuilder::buildSemiLocalAndLocal 
    Assuming Hartree unit
   Number of angular momentum channels 2
   Maximum angular momentum channel 1
   Creating a Linear Grid Rmax=1.405
  Using global grid with delta = 0.001
   Making L=1 a local potential with a radial cutoff of 9.999
    Non-local pseudopotential parameters
    Maximum angular mementum = 0
    Number of non-local channels = 1
       l(0)=0
    Cutoff radius = 1.405
    Spherical grids and weights: 
                        1                 0                 0       0.08333333333
                       -1   1.224646799e-16                 0       0.08333333333
             0.4472135955       0.894427191                 0       0.08333333333
            -0.4472135955      0.7236067977      0.5257311121       0.08333333333
             0.4472135955      0.2763932023      0.8506508084       0.08333333333
            -0.4472135955     -0.2763932023      0.8506508084       0.08333333333
             0.4472135955     -0.7236067977      0.5257311121       0.08333333333
            -0.4472135955      -0.894427191   1.095357397e-16       0.08333333333
             0.4472135955     -0.7236067977     -0.5257311121       0.08333333333
            -0.4472135955     -0.2763932023     -0.8506508084       0.08333333333
             0.4472135955      0.2763932023     -0.8506508084       0.08333333333
            -0.4472135955      0.7236067977     -0.5257311121       0.08333333333
    Maximum cutoff radius 1.405
  QMCHamiltonian::addOperator LocalECP to H, physical Hamiltonian 

  Using NonLocalECP potential 
    Maximum grid on a sphere for NonLocalECPotential: 12
  QMCHamiltonian::addOperator NonLocalECP to H, physical Hamiltonian 
QMCHamiltonian::addOperatorType added type pseudo named PseudoPot

  QMCHamiltonian::add2WalkerProperty added
    4 to P::PropertyList 
    0 to P::Collectables 
    starting Index of the observables in P::PropertyList = 9
ParticleSetPool::randomize 
<init source="ion0" target="e">
</init>
  Initialization Execution time = 0.9335 secs
=========================================================
 Summary of QMC systems 
=========================================================
ParticleSetPool has: 

  ParticleSet e : 0 3 4 

    4

    u  2.4465701543e-01  5.0064554396e-01  5.7075774374e-01
    u -1.8825224706e+00 -3.8425764127e-01  1.2940131456e+00
    u -1.0057857349e+00  1.9210033288e+00 -1.8457540935e+00
    d -7.2442096057e-01 -7.4966032103e-01  7.3076255266e-02

  ParticleSet ion0 : 0 1 

    1

    C  0.0000000000e+00  0.0000000000e+00  0.0000000000e+00

  Hamiltonian h0
  Kinetic         Kinetic energy
  ElecElec        CoulombAA source/target e

  LocalECP        LocalECPotential: ion0
  NonLocalECP     NonLocalECPotential: ion0

=========================================================
  Start VMC
  File Root C.log.s000 append = no 
=========================================================
  Adding 1 walkers to 0 existing sets
  Total number of walkers: 1.0240000000e+03
  Total weight: 1.0240000000e+03
  Resetting Properties of the walkers 1 x 13

<vmc function="put">
  qmc_counter=0  my_counter=0
  time step      = 1.5000000000e-01
  blocks         = 200
  steps          = 1
  substeps       = 5
  current        = 0
  target samples = 1.0240000000e+03
  walkers/mpi    = 1

  stepsbetweensamples = 200
<parameter name="blocks" condition="int">200</parameter>
<parameter name="blocks_between_recompute" condition="int">0</parameter>
<parameter name="check_properties" condition="int">100</parameter>
<parameter name="checkproperties" condition="int">100</parameter>
<parameter name="current" condition="int">0</parameter>
<parameter name="dmcwalkersperthread" condition="real">1.0000000000e+00</parameter>
<parameter name="maxcpusecs" condition="real">3.6000000000e+05</parameter>
<parameter name="record_configs" condition="int">0</parameter>
<parameter name="record_walkers" condition="int">200</parameter>
<parameter name="recordconfigs" condition="int">0</parameter>
<parameter name="recordwalkers" condition="int">200</parameter>
<parameter name="rewind" condition="int">0</parameter>
<parameter name="samples" condition="real">1.0240000000e+03</parameter>
<parameter name="samplesperthread" condition="real">1.0000000000e+00</parameter>
<parameter name="steps" condition="int">1</parameter>
<parameter name="stepsbetweensamples" condition="int">200</parameter>
<parameter name="store_configs" condition="int">0</parameter>
<parameter name="storeconfigs" condition="int">0</parameter>
<parameter name="sub_steps" condition="int">5</parameter>
<parameter name="substeps" condition="int">5</parameter>
<parameter name="tau" condition="au">1.5000000000e-01</parameter>
<parameter name="time_step" condition="au">1.5000000000e-01</parameter>
<parameter name="timestep" condition="au">1.5000000000e-01</parameter>
<parameter name="use_drift" condition="string">no</parameter>
<parameter name="usedrift" condition="string">no</parameter>
<parameter name="walkers" condition="int">1</parameter>
<parameter name="warmup_steps" condition="int">100</parameter>
<parameter name="warmupsteps" condition="int">100</parameter>
  DumpConfig==false Nothing (configurations, state) will be saved.
  Walker Samples are dumped every 200 steps.
</vmc>
  Initial partition of walkers 0 1 

  Using Particle by Particle moves
  Walker moves without drift
  Total Sample Size   =1024
  Walker distribution on root = 0 1 
  Using Locality Approximation
===== Memory Usage after the buffer registration =====
Available memory on node 0, free + buffers : 84516 MB
Memory footprint by rank 0 on node 0       : 72 MB
==================================================
  Anonymous Buffer size per walker : 1440 Bytes.
MEMORY increase 0 MB VMC::resetRun
====================================================
  SimpleFixedNodeBranch::finalize after a VMC block
    QMC counter        = 0
    time step          = 0.15
    reference energy   = -5.31361
    reference variance = 0.354407
====================================================
  QMC Execution time = 6.2765e-01 secs 
Loop execution max-interations = 5

=========================================================
  Start QMCFixedSampleLinearOptimize
  File Root C.log.s001 append = no 
=========================================================
  Skip QMCDriver::putQMCInfo 
  Resetting Properties of the walkers 1 x 13

=========================================================
  Start VMC
  File Root C.log.s001 append = no 
=========================================================
  Using the current 1 walkers.
  Total number of walkers: 1.0240e+03
  Total weight: 1.0240e+03
  Resetting Properties of the walkers 1 x 13

<vmc function="put">
  qmc_counter=0  my_counter=0
  time step      = 1.5000e-01
  blocks         = 200
  steps          = 2
  substeps       = 5
  current        = 0
  target samples = 2.5600e+05
  walkers/mpi    = 1

  stepsbetweensamples = 1
<parameter name="blocks" condition="int">200</parameter>
<parameter name="blocks_between_recompute" condition="int">0</parameter>
<parameter name="check_properties" condition="int">100</parameter>
<parameter name="checkproperties" condition="int">100</parameter>
<parameter name="current" condition="int">0</parameter>
<parameter name="dmcwalkersperthread" condition="real">2.5000e+02</parameter>
<parameter name="maxcpusecs" condition="real">3.6000e+05</parameter>
<parameter name="record_configs" condition="int">0</parameter>
<parameter name="record_walkers" condition="int">1</parameter>
<parameter name="recordconfigs" condition="int">0</parameter>
<parameter name="recordwalkers" condition="int">1</parameter>
<parameter name="rewind" condition="int">0</parameter>
<parameter name="samples" condition="real">2.5600e+05</parameter>
<parameter name="samplesperthread" condition="real">2.5000e+02</parameter>
<parameter name="steps" condition="int">2</parameter>
<parameter name="stepsbetweensamples" condition="int">1</parameter>
<parameter name="store_configs" condition="int">0</parameter>
<parameter name="storeconfigs" condition="int">0</parameter>
<parameter name="sub_steps" condition="int">5</parameter>
<parameter name="substeps" condition="int">5</parameter>
<parameter name="tau" condition="au">1.5000e-01</parameter>
<parameter name="time_step" condition="au">1.5000e-01</parameter>
<parameter name="timestep" condition="au">1.5000e-01</parameter>
<parameter name="use_drift" condition="string">no</parameter>
<parameter name="usedrift" condition="string">no</parameter>
<parameter name="walkers" condition="int">1</parameter>
<parameter name="warmup_steps" condition="int">0</parameter>
<parameter name="warmupsteps" condition="int">0</parameter>
  DumpConfig==false Nothing (configurations, state) will be saved.
  Walker Samples are dumped every 1 steps.
</vmc>
    Restarting, cummulative properties:
      energy     = -5.3136e+00
      variance   = 0.0000e+00
      r2accepted = 1.0000e-10
      r2proposed = 1.0000e-10
 Using QMCCostFunction::QMCCostFunction
  EstimatorManagerBase::add replace LocalEnergy estimator.
<optimization-report>
<vmc stage="main" blocks="200">
  Cannot make clones again. Use existing 1 clones
  Initial partition of walkers 0 1 

  Using Particle by Particle moves
  Walker moves without drift
  Total Sample Size   =256000
  Walker distribution on root = 0 1 
  Using Locality Approximation
===== Memory Usage after the buffer registration =====
Available memory on node 0, free + buffers : 84491 MB
Memory footprint by rank 0 on node 0       : 73 MB
==================================================
  Anonymous Buffer size per walker : 1440 Bytes.
MEMORY increase 0 MB VMC::resetRun
====================================================
  SimpleFixedNodeBranch::finalize after a VMC block
    QMC counter        = 1
    time step          = 0.15
    reference energy   = -5.32746
    reference variance = 0.30984
====================================================
  Execution time = 9.5364e-01
</vmc>
<opt stage="setup">
  <log>
   Reading configurations from h5FileRoot C.log.s001
  QMCCostFunction is created with 1 threads.
  Using Nonlocal PP in Opt: NonLocalECP
   Number of samples loaded to each thread : 250 
  VMC Eavg = -5.3140e+00
  VMC Evar = 3.5150e-01
  Total weights = 2.5600e+05
  Execution time = 7.8464e-02
  </log>
</opt>
<opt stage="main" walkers="256000">
  <log>

*****************************************
Building overlap and Hamiltonian matrices
*****************************************

Among totally 30 optimized parameters, largest LM parameter change : 3.5286e-01 at parameter 10

******************************************************************************
Init Cost =   3.5150e-01    New Cost =   9.8846e-02  Delta Cost =  -2.5265e-01
******************************************************************************

The new set of parameters is valid. Updating the trial wave function!

*****************************************************************************
Applying the update for shift_i =   1.0000e-02     and shift_s =   2.5000e-01
*****************************************************************************
  Execution time = 1.1670e+00
  </log>
  <optVariables href="C.log.s001.opt.xml">
uu_0 1.6307e-01 1 1  ON 0
uu_1 1.4912e-01 1 1  ON 1
uu_2 6.8718e-02 1 1  ON 2
uu_3 1.9375e-02 1 1  ON 3
uu_4 -1.7318e-02 1 1  ON 4
uu_5 -3.9674e-02 1 1  ON 5
uu_6 -5.1222e-02 1 1  ON 6
uu_7 -5.3075e-02 1 1  ON 7
uu_8 -4.5168e-02 1 1  ON 8
uu_9 -3.4666e-02 1 1  ON 9
ud_0 3.5286e-01 1 1  ON 10
ud_1 2.1282e-01 1 1  ON 11
ud_2 8.7653e-02 1 1  ON 12
ud_3 1.1241e-02 1 1  ON 13
ud_4 -3.9882e-02 1 1  ON 14
ud_5 -6.9840e-02 1 1  ON 15
ud_6 -8.5020e-02 1 1  ON 16
ud_7 -8.8064e-02 1 1  ON 17
ud_8 -7.7021e-02 1 1  ON 18
ud_9 -6.4015e-02 1 1  ON 19
eC_0 -1.9331e-01 1 1  ON 20
eC_1 -1.6927e-01 1 1  ON 21
eC_2 -9.0084e-02 1 1  ON 22
eC_3 -5.4854e-03 1 1  ON 23
eC_4 6.3062e-02 1 1  ON 24
eC_5 1.0524e-01 1 1  ON 25
eC_6 1.1402e-01 1 1  ON 26
eC_7 9.9037e-02 1 1  ON 27
eC_8 6.4134e-02 1 1  ON 28
eC_9 2.4673e-02 1 1  ON 29
  </optVariables>
   Restore the number of walkers to 1, removing 0 walkers.
</opt>
</optimization-report>
  QMC Execution time = 1.1764e+00 secs 
  Reusing QMCFixedSampleLinearOptimize
 Using QMCCostFunction::QMCCostFunction

=========================================================
  Start QMCFixedSampleLinearOptimize
  File Root C.log.s002 append = no 
=========================================================
  Skip QMCDriver::putQMCInfo 
  Resetting Properties of the walkers 1 x 13

=========================================================
  Start VMC
  File Root C.log.s002 append = no 
=========================================================
Using existing walkers 
  Resetting Properties of the walkers 1 x 13

<vmc function="put">
  qmc_counter=1  my_counter=1
  time step      = 1.5000e-01
  blocks         = 200
  steps          = 2
  substeps       = 5
  current        = 0
  target samples = 2.5600e+05
  walkers/mpi    = 1

  stepsbetweensamples = 1
<parameter name="blocks" condition="int">200</parameter>
<parameter name="blocks_between_recompute" condition="int">0</parameter>
<parameter name="check_properties" condition="int">100</parameter>
<parameter name="checkproperties" condition="int">100</parameter>
<parameter name="current" condition="int">0</parameter>
<parameter name="dmcwalkersperthread" condition="real">2.5000e+02</parameter>
<parameter name="maxcpusecs" condition="real">3.6000e+05</parameter>
<parameter name="record_configs" condition="int">0</parameter>
<parameter name="record_walkers" condition="int">1</parameter>
<parameter name="recordconfigs" condition="int">0</parameter>
<parameter name="recordwalkers" condition="int">1</parameter>
<parameter name="rewind" condition="int">0</parameter>
<parameter name="samples" condition="real">2.5600e+05</parameter>
<parameter name="samplesperthread" condition="real">2.5000e+02</parameter>
<parameter name="steps" condition="int">2</parameter>
<parameter name="stepsbetweensamples" condition="int">1</parameter>
<parameter name="store_configs" condition="int">0</parameter>
<parameter name="storeconfigs" condition="int">0</parameter>
<parameter name="sub_steps" condition="int">5</parameter>
<parameter name="substeps" condition="int">5</parameter>
<parameter name="tau" condition="au">1.5000e-01</parameter>
<parameter name="time_step" condition="au">1.5000e-01</parameter>
<parameter name="timestep" condition="au">1.5000e-01</parameter>
<parameter name="use_drift" condition="string">no</parameter>
<parameter name="usedrift" condition="string">no</parameter>
<parameter name="walkers" condition="int">1</parameter>
<parameter name="warmup_steps" condition="int">0</parameter>
<parameter name="warmupsteps" condition="int">0</parameter>
  DumpConfig==false Nothing (configurations, state) will be saved.
  Walker Samples are dumped every 1 steps.
</vmc>
  EstimatorManagerBase::add replace LocalEnergy estimator.
  EstimatorManagerBase::add replace LocalEnergy estimator.
<optimization-report>
<vmc stage="main" blocks="200">
  Cannot make clones again. Use existing 1 clones
  Initial partition of walkers 0 1 
  Using Particle by Particle moves
  Walker moves without drift
  Total Sample Size   =256000
  Walker distribution on root = 0 1 
  Using Locality Approximation
===== Memory Usage after the buffer registration =====
Available memory on node 0, free + buffers : 84479 MB
Memory footprint by rank 0 on node 0       : 75 MB
==================================================
====================================================
  SimpleFixedNodeBranch::finalize after a VMC block
    QMC counter        = 2
    time step          = 0.15
    reference energy   = -5.37739
    reference variance = 0.0782599
====================================================
  Execution time = 1.1175e+00
</vmc>
<opt stage="setup">
  <log>
   Reading configurations from h5FileRoot C.log.s002
  QMCCostFunction is created with 1 threads.
  Using Nonlocal PP in Opt: NonLocalECP
   Number of samples loaded to each thread : 250 
  VMC Eavg = -5.3825e+00
  VMC Evar = 8.0085e-02
  Total weights = 2.5600e+05
  Execution time = 7.3460e-02
  </log>
</opt>
<opt stage="main" walkers="256000">
  <log>

*****************************************
Building overlap and Hamiltonian matrices
*****************************************

Among totally 30 optimized parameters, largest LM parameter change : 1.9075e-01 at parameter 10

******************************************************************************
Init Cost =   8.0085e-02    New Cost =   7.2768e-02  Delta Cost =  -7.3167e-03
******************************************************************************

The new set of parameters is valid. Updating the trial wave function!

*****************************************************************************
Applying the update for shift_i =   1.0000e-02     and shift_s =   6.2500e-02
*****************************************************************************
  Execution time = 1.3544e+00
  </log>
  <optVariables href="C.log.s002.opt.xml">
uu_0 2.6517e-01 1 1  ON 0
uu_1 2.1300e-01 1 1  ON 1
uu_2 1.0960e-01 1 1  ON 2
uu_3 3.7483e-02 1 1  ON 3
uu_4 -1.8986e-02 1 1  ON 4
uu_5 -5.6961e-02 1 1  ON 5
uu_6 -7.8620e-02 1 1  ON 6
uu_7 -8.4965e-02 1 1  ON 7
uu_8 -7.4311e-02 1 1  ON 8
uu_9 -5.6418e-02 1 1  ON 9
ud_0 5.4361e-01 1 1  ON 10
ud_1 3.3703e-01 1 1  ON 11
ud_2 1.6714e-01 1 1  ON 12
ud_3 5.2567e-02 1 1  ON 13
ud_4 -3.0017e-02 1 1  ON 14
ud_5 -8.6042e-02 1 1  ON 15
ud_6 -1.2011e-01 1 1  ON 16
ud_7 -1.3434e-01 1 1  ON 17
ud_8 -1.2405e-01 1 1  ON 18
ud_9 -1.0431e-01 1 1  ON 19
eC_0 -3.2839e-01 1 1  ON 20
eC_1 -2.8132e-01 1 1  ON 21
eC_2 -1.6291e-01 1 1  ON 22
eC_3 -2.8969e-02 1 1  ON 23
eC_4 8.5986e-02 1 1  ON 24
eC_5 1.6490e-01 1 1  ON 25
eC_6 1.9434e-01 1 1  ON 26
eC_7 1.8102e-01 1 1  ON 27
eC_8 1.2754e-01 1 1  ON 28
eC_9 5.4517e-02 1 1  ON 29
  </optVariables>
   Restore the number of walkers to 1, removing 0 walkers.
</opt>
</optimization-report>
  QMC Execution time = 1.3630e+00 secs 
  Reusing QMCFixedSampleLinearOptimize
 Using QMCCostFunction::QMCCostFunction

=========================================================
  Start QMCFixedSampleLinearOptimize
  File Root C.log.s003 append = no 
=========================================================
  Skip QMCDriver::putQMCInfo 
  Resetting Properties of the walkers 1 x 13

=========================================================
  Start VMC
  File Root C.log.s003 append = no 
=========================================================
Using existing walkers 
  Resetting Properties of the walkers 1 x 13

<vmc function="put">
  qmc_counter=2  my_counter=2
  time step      = 1.5000e-01
  blocks         = 200
  steps          = 2
  substeps       = 5
  current        = 0
  target samples = 2.5600e+05
  walkers/mpi    = 1

  stepsbetweensamples = 1
<parameter name="blocks" condition="int">200</parameter>
<parameter name="blocks_between_recompute" condition="int">0</parameter>
<parameter name="check_properties" condition="int">100</parameter>
<parameter name="checkproperties" condition="int">100</parameter>
<parameter name="current" condition="int">0</parameter>
<parameter name="dmcwalkersperthread" condition="real">2.5000e+02</parameter>
<parameter name="maxcpusecs" condition="real">3.6000e+05</parameter>
<parameter name="record_configs" condition="int">0</parameter>
<parameter name="record_walkers" condition="int">1</parameter>
<parameter name="recordconfigs" condition="int">0</parameter>
<parameter name="recordwalkers" condition="int">1</parameter>
<parameter name="rewind" condition="int">0</parameter>
<parameter name="samples" condition="real">2.5600e+05</parameter>
<parameter name="samplesperthread" condition="real">2.5000e+02</parameter>
<parameter name="steps" condition="int">2</parameter>
<parameter name="stepsbetweensamples" condition="int">1</parameter>
<parameter name="store_configs" condition="int">0</parameter>
<parameter name="storeconfigs" condition="int">0</parameter>
<parameter name="sub_steps" condition="int">5</parameter>
<parameter name="substeps" condition="int">5</parameter>
<parameter name="tau" condition="au">1.5000e-01</parameter>
<parameter name="time_step" condition="au">1.5000e-01</parameter>
<parameter name="timestep" condition="au">1.5000e-01</parameter>
<parameter name="use_drift" condition="string">no</parameter>
<parameter name="usedrift" condition="string">no</parameter>
<parameter name="walkers" condition="int">1</parameter>
<parameter name="warmup_steps" condition="int">0</parameter>
<parameter name="warmupsteps" condition="int">0</parameter>
  DumpConfig==false Nothing (configurations, state) will be saved.
  Walker Samples are dumped every 1 steps.
</vmc>
  EstimatorManagerBase::add replace LocalEnergy estimator.
  EstimatorManagerBase::add replace LocalEnergy estimator.
<optimization-report>
<vmc stage="main" blocks="200">
  Cannot make clones again. Use existing 1 clones
  Initial partition of walkers 0 1 
  Using Particle by Particle moves
  Walker moves without drift
  Total Sample Size   =256000
  Walker distribution on root = 0 1 
  Using Locality Approximation
===== Memory Usage after the buffer registration =====
Available memory on node 0, free + buffers : 84471 MB
Memory footprint by rank 0 on node 0       : 76 MB
==================================================
====================================================
  SimpleFixedNodeBranch::finalize after a VMC block
    QMC counter        = 3
    time step          = 0.15
    reference energy   = -5.39165
    reference variance = 0.0859508
====================================================
  Execution time = 1.4659e+00
</vmc>
<opt stage="setup">
  <log>
   Reading configurations from h5FileRoot C.log.s003
  QMCCostFunction is created with 1 threads.
  Using Nonlocal PP in Opt: NonLocalECP
   Number of samples loaded to each thread : 250 
  VMC Eavg = -5.3940e+00
  VMC Evar = 6.5824e-02
  Total weights = 2.5600e+05
  Execution time = 1.3681e-01
  </log>
</opt>
<opt stage="main" walkers="256000">
  <log>

*****************************************
Building overlap and Hamiltonian matrices
*****************************************

Among totally 30 optimized parameters, largest LM parameter change : 8.6422e-02 at parameter 10

******************************************************************************
Init Cost =   6.5824e-02    New Cost =   7.0150e-02  Delta Cost =   4.3262e-03
******************************************************************************

The new set of parameters is valid. Updating the trial wave function!

*****************************************************************************
Applying the update for shift_i =   1.0000e-02     and shift_s =   1.5625e-02
*****************************************************************************
  Execution time = 1.7741e+00
  </log>
  <optVariables href="C.log.s003.opt.xml">
uu_0 3.2341e-01 1 1  ON 0
uu_1 2.4291e-01 1 1  ON 1
uu_2 1.3729e-01 1 1  ON 2
uu_3 5.7147e-02 1 1  ON 3
uu_4 -5.9345e-03 1 1  ON 4
uu_5 -5.0543e-02 1 1  ON 5
uu_6 -7.8128e-02 1 1  ON 6
uu_7 -8.9361e-02 1 1  ON 7
uu_8 -8.0957e-02 1 1  ON 8
uu_9 -6.3774e-02 1 1  ON 9
ud_0 6.3003e-01 1 1  ON 10
ud_1 3.9747e-01 1 1  ON 11
ud_2 2.1976e-01 1 1  ON 12
ud_3 9.4971e-02 1 1  ON 13
ud_4 3.4371e-03 1 1  ON 14
ud_5 -6.2771e-02 1 1  ON 15
ud_6 -1.0620e-01 1 1  ON 16
ud_7 -1.3051e-01 1 1  ON 17
ud_8 -1.2742e-01 1 1  ON 18
ud_9 -1.1326e-01 1 1  ON 19
eC_0 -3.9269e-01 1 1  ON 20
eC_1 -3.3508e-01 1 1  ON 21
eC_2 -2.0389e-01 1 1  ON 22
eC_3 -5.2357e-02 1 1  ON 23
eC_4 8.1967e-02 1 1  ON 24
eC_5 1.8105e-01 1 1  ON 25
eC_6 2.2790e-01 1 1  ON 26
eC_7 2.2834e-01 1 1  ON 27
eC_8 1.7497e-01 1 1  ON 28
eC_9 8.9499e-02 1 1  ON 29
  </optVariables>
   Restore the number of walkers to 1, removing 0 walkers.
</opt>
</optimization-report>
  QMC Execution time = 1.7823e+00 secs 
  Reusing QMCFixedSampleLinearOptimize
 Using QMCCostFunction::QMCCostFunction

=========================================================
  Start QMCFixedSampleLinearOptimize
  File Root C.log.s004 append = no 
=========================================================
  Skip QMCDriver::putQMCInfo 
  Resetting Properties of the walkers 1 x 13

=========================================================
  Start VMC
  File Root C.log.s004 append = no 
=========================================================
Using existing walkers 
  Resetting Properties of the walkers 1 x 13

<vmc function="put">
  qmc_counter=3  my_counter=3
  time step      = 1.5000e-01
  blocks         = 200
  steps          = 2
  substeps       = 5
  current        = 0
  target samples = 2.5600e+05
  walkers/mpi    = 1

  stepsbetweensamples = 1
<parameter name="blocks" condition="int">200</parameter>
<parameter name="blocks_between_recompute" condition="int">0</parameter>
<parameter name="check_properties" condition="int">100</parameter>
<parameter name="checkproperties" condition="int">100</parameter>
<parameter name="current" condition="int">0</parameter>
<parameter name="dmcwalkersperthread" condition="real">2.5000e+02</parameter>
<parameter name="maxcpusecs" condition="real">3.6000e+05</parameter>
<parameter name="record_configs" condition="int">0</parameter>
<parameter name="record_walkers" condition="int">1</parameter>
<parameter name="recordconfigs" condition="int">0</parameter>
<parameter name="recordwalkers" condition="int">1</parameter>
<parameter name="rewind" condition="int">0</parameter>
<parameter name="samples" condition="real">2.5600e+05</parameter>
<parameter name="samplesperthread" condition="real">2.5000e+02</parameter>
<parameter name="steps" condition="int">2</parameter>
<parameter name="stepsbetweensamples" condition="int">1</parameter>
<parameter name="store_configs" condition="int">0</parameter>
<parameter name="storeconfigs" condition="int">0</parameter>
<parameter name="sub_steps" condition="int">5</parameter>
<parameter name="substeps" condition="int">5</parameter>
<parameter name="tau" condition="au">1.5000e-01</parameter>
<parameter name="time_step" condition="au">1.5000e-01</parameter>
<parameter name="timestep" condition="au">1.5000e-01</parameter>
<parameter name="use_drift" condition="string">no</parameter>
<parameter name="usedrift" condition="string">no</parameter>
<parameter name="walkers" condition="int">1</parameter>
<parameter name="warmup_steps" condition="int">0</parameter>
<parameter name="warmupsteps" condition="int">0</parameter>
  DumpConfig==false Nothing (configurations, state) will be saved.
  Walker Samples are dumped every 1 steps.
</vmc>
  EstimatorManagerBase::add replace LocalEnergy estimator.
  EstimatorManagerBase::add replace LocalEnergy estimator.
<optimization-report>
<vmc stage="main" blocks="200">
  Cannot make clones again. Use existing 1 clones
  Initial partition of walkers 0 1 
  Using Particle by Particle moves
  Walker moves without drift
  Total Sample Size   =256000
  Walker distribution on root = 0 1 
  Using Locality Approximation
===== Memory Usage after the buffer registration =====
Available memory on node 0, free + buffers : 84469 MB
Memory footprint by rank 0 on node 0       : 78 MB
==================================================
====================================================
  SimpleFixedNodeBranch::finalize after a VMC block
    QMC counter        = 4
    time step          = 0.15
    reference energy   = -5.39515
    reference variance = 0.0486006
====================================================
  Execution time = 1.4804e+00
</vmc>
<opt stage="setup">
  <log>
   Reading configurations from h5FileRoot C.log.s004
  QMCCostFunction is created with 1 threads.
  Using Nonlocal PP in Opt: NonLocalECP
   Number of samples loaded to each thread : 250 
  VMC Eavg = -5.3951e+00
  VMC Evar = 7.0275e-02
  Total weights = 2.5600e+05
  Execution time = 1.6603e-01
  </log>
</opt>
<opt stage="main" walkers="256000">
  <log>

*****************************************
Building overlap and Hamiltonian matrices
*****************************************

Among totally 30 optimized parameters, largest LM parameter change : 4.7284e-02 at parameter 10

******************************************************************************
Init Cost =   7.0275e-02    New Cost =   7.1376e-02  Delta Cost =   1.1004e-03
******************************************************************************

The new set of parameters is valid. Updating the trial wave function!

*****************************************************************************
Applying the update for shift_i =   1.0000e-02     and shift_s =   3.9062e-03
*****************************************************************************
  Execution time = 1.8450e+00
  </log>
  <optVariables href="C.log.s004.opt.xml">
uu_0 3.6241e-01 1 1  ON 0
uu_1 2.6182e-01 1 1  ON 1
uu_2 1.5591e-01 1 1  ON 2
uu_3 7.3525e-02 1 1  ON 3
uu_4 8.2281e-03 1 1  ON 4
uu_5 -3.9349e-02 1 1  ON 5
uu_6 -6.9815e-02 1 1  ON 6
uu_7 -8.4148e-02 1 1  ON 7
uu_8 -7.9462e-02 1 1  ON 8
uu_9 -6.5325e-02 1 1  ON 9
ud_0 6.7731e-01 1 1  ON 10
ud_1 4.3687e-01 1 1  ON 11
ud_2 2.5793e-01 1 1  ON 12
ud_3 1.3062e-01 1 1  ON 13
ud_4 3.5876e-02 1 1  ON 14
ud_5 -3.3731e-02 1 1  ON 15
ud_6 -8.1698e-02 1 1  ON 16
ud_7 -1.1083e-01 1 1  ON 17
ud_8 -1.1396e-01 1 1  ON 18
ud_9 -1.0571e-01 1 1  ON 19
eC_0 -4.2400e-01 1 1  ON 20
eC_1 -3.6362e-01 1 1  ON 21
eC_2 -2.2793e-01 1 1  ON 22
eC_3 -7.0183e-02 1 1  ON 23
eC_4 7.1614e-02 1 1  ON 24
eC_5 1.7992e-01 1 1  ON 25
eC_6 2.3839e-01 1 1  ON 26
eC_7 2.5073e-01 1 1  ON 27
eC_8 2.0562e-01 1 1  ON 28
eC_9 1.2047e-01 1 1  ON 29
  </optVariables>
   Restore the number of walkers to 1, removing 0 walkers.
</opt>
</optimization-report>
  QMC Execution time = 1.8575e+00 secs 
  Reusing QMCFixedSampleLinearOptimize
 Using QMCCostFunction::QMCCostFunction

=========================================================
  Start QMCFixedSampleLinearOptimize
  File Root C.log.s005 append = no 
=========================================================
  Skip QMCDriver::putQMCInfo 
  Resetting Properties of the walkers 1 x 13

=========================================================
  Start VMC
  File Root C.log.s005 append = no 
=========================================================
Using existing walkers 
  Resetting Properties of the walkers 1 x 13

<vmc function="put">
  qmc_counter=4  my_counter=4
  time step      = 1.5000e-01
  blocks         = 200
  steps          = 2
  substeps       = 5
  current        = 0
  target samples = 2.5600e+05
  walkers/mpi    = 1

  stepsbetweensamples = 1
<parameter name="blocks" condition="int">200</parameter>
<parameter name="blocks_between_recompute" condition="int">0</parameter>
<parameter name="check_properties" condition="int">100</parameter>
<parameter name="checkproperties" condition="int">100</parameter>
<parameter name="current" condition="int">0</parameter>
<parameter name="dmcwalkersperthread" condition="real">2.5000e+02</parameter>
<parameter name="maxcpusecs" condition="real">3.6000e+05</parameter>
<parameter name="record_configs" condition="int">0</parameter>
<parameter name="record_walkers" condition="int">1</parameter>
<parameter name="recordconfigs" condition="int">0</parameter>
<parameter name="recordwalkers" condition="int">1</parameter>
<parameter name="rewind" condition="int">0</parameter>
<parameter name="samples" condition="real">2.5600e+05</parameter>
<parameter name="samplesperthread" condition="real">2.5000e+02</parameter>
<parameter name="steps" condition="int">2</parameter>
<parameter name="stepsbetweensamples" condition="int">1</parameter>
<parameter name="store_configs" condition="int">0</parameter>
<parameter name="storeconfigs" condition="int">0</parameter>
<parameter name="sub_steps" condition="int">5</parameter>
<parameter name="substeps" condition="int">5</parameter>
<parameter name="tau" condition="au">1.5000e-01</parameter>
<parameter name="time_step" condition="au">1.5000e-01</parameter>
<parameter name="timestep" condition="au">1.5000e-01</parameter>
<parameter name="use_drift" condition="string">no</parameter>
<parameter name="usedrift" condition="string">no</parameter>
<parameter name="walkers" condition="int">1</parameter>
<parameter name="warmup_steps" condition="int">0</parameter>
<parameter name="warmupsteps" condition="int">0</parameter>
  DumpConfig==false Nothing (configurations, state) will be saved.
  Walker Samples are dumped every 1 steps.
</vmc>
  EstimatorManagerBase::add replace LocalEnergy estimator.
  EstimatorManagerBase::add replace LocalEnergy estimator.
<optimization-report>
<vmc stage="main" blocks="200">
  Cannot make clones again. Use existing 1 clones
  Initial partition of walkers 0 1 
  Using Particle by Particle moves
  Walker moves without drift
  Total Sample Size   =256000
  Walker distribution on root = 0 1 
  Using Locality Approximation
===== Memory Usage after the buffer registration =====
Available memory on node 0, free + buffers : 84467 MB
Memory footprint by rank 0 on node 0       : 80 MB
==================================================
====================================================
  SimpleFixedNodeBranch::finalize after a VMC block
    QMC counter        = 5
    time step          = 0.15
    reference energy   = -5.38339
    reference variance = 0.0688126
====================================================
  Execution time = 1.4731e+00
</vmc>
<opt stage="setup">
  <log>
   Reading configurations from h5FileRoot C.log.s005
  QMCCostFunction is created with 1 threads.
  Using Nonlocal PP in Opt: NonLocalECP
   Number of samples loaded to each thread : 250 
  VMC Eavg = -5.3961e+00
  VMC Evar = 7.2323e-02
  Total weights = 2.5600e+05
  Execution time = 1.9188e-01
  </log>
</opt>
<opt stage="main" walkers="256000">
  <log>

*****************************************
Building overlap and Hamiltonian matrices
*****************************************

Among totally 30 optimized parameters, largest LM parameter change : 3.2345e-02 at parameter 10

******************************************************************************
Init Cost =   7.2323e-02    New Cost =   7.2131e-02  Delta Cost =  -1.9215e-04
******************************************************************************

The new set of parameters is valid. Updating the trial wave function!

*****************************************************************************
Applying the update for shift_i =   1.0000e-02     and shift_s =   3.9062e-03
*****************************************************************************
  Execution time = 1.8741e+00
  </log>
  <optVariables href="C.log.s005.opt.xml">
uu_0 3.8582e-01 1 1  ON 0
uu_1 2.7554e-01 1 1  ON 1
uu_2 1.7086e-01 1 1  ON 2
uu_3 8.7804e-02 1 1  ON 3
uu_4 2.1946e-02 1 1  ON 4
uu_5 -2.6529e-02 1 1  ON 5
uu_6 -5.8601e-02 1 1  ON 6
uu_7 -7.5453e-02 1 1  ON 7
uu_8 -7.4227e-02 1 1  ON 8
uu_9 -6.3072e-02 1 1  ON 9
ud_0 7.0966e-01 1 1  ON 10
ud_1 4.6529e-01 1 1  ON 11
ud_2 2.8596e-01 1 1  ON 12
ud_3 1.5800e-01 1 1  ON 13
ud_4 6.2662e-02 1 1  ON 14
ud_5 -7.7263e-03 1 1  ON 15
ud_6 -5.7189e-02 1 1  ON 16
ud_7 -8.8782e-02 1 1  ON 17
ud_8 -9.5758e-02 1 1  ON 18
ud_9 -9.1380e-02 1 1  ON 19
eC_0 -4.4556e-01 1 1  ON 20
eC_1 -3.8297e-01 1 1  ON 21
eC_2 -2.4626e-01 1 1  ON 22
eC_3 -8.6437e-02 1 1  ON 23
eC_4 5.8416e-02 1 1  ON 24
eC_5 1.7246e-01 1 1  ON 25
eC_6 2.3807e-01 1 1  ON 26
eC_7 2.6086e-01 1 1  ON 27
eC_8 2.2649e-01 1 1  ON 28
eC_9 1.4836e-01 1 1  ON 29
  </optVariables>
   Restore the number of walkers to 1, removing 0 walkers.
</opt>
</optimization-report>
  QMC Execution time = 1.8825e+00 secs 
Loop execution max-interations = 5
  Reusing QMCFixedSampleLinearOptimize
 Using QMCCostFunction::QMCCostFunction

=========================================================
  Start QMCFixedSampleLinearOptimize
  File Root C.log.s006 append = no 
=========================================================
  Skip QMCDriver::putQMCInfo 
  Resetting Properties of the walkers 1 x 13

=========================================================
  Start VMC
  File Root C.log.s006 append = no 
=========================================================
  Using the current 1 walkers.
  Total number of walkers: 1.0240e+03
  Total weight: 1.0240e+03
  Resetting Properties of the walkers 1 x 13

<vmc function="put">
  qmc_counter=0  my_counter=5
  time step      = 1.5000e-01
  blocks         = 200
  steps          = 2
  substeps       = 5
  current        = 0
  target samples = 2.5600e+05
  walkers/mpi    = 1

  stepsbetweensamples = 1
<parameter name="blocks" condition="int">200</parameter>
<parameter name="blocks_between_recompute" condition="int">0</parameter>
<parameter name="check_properties" condition="int">100</parameter>
<parameter name="checkproperties" condition="int">100</parameter>
<parameter name="current" condition="int">0</parameter>
<parameter name="dmcwalkersperthread" condition="real">2.5000e+02</parameter>
<parameter name="maxcpusecs" condition="real">3.6000e+05</parameter>
<parameter name="record_configs" condition="int">0</parameter>
<parameter name="record_walkers" condition="int">1</parameter>
<parameter name="recordconfigs" condition="int">0</parameter>
<parameter name="recordwalkers" condition="int">1</parameter>
<parameter name="rewind" condition="int">0</parameter>
<parameter name="samples" condition="real">2.5600e+05</parameter>
<parameter name="samplesperthread" condition="real">2.5000e+02</parameter>
<parameter name="steps" condition="int">2</parameter>
<parameter name="stepsbetweensamples" condition="int">1</parameter>
<parameter name="store_configs" condition="int">0</parameter>
<parameter name="storeconfigs" condition="int">0</parameter>
<parameter name="sub_steps" condition="int">5</parameter>
<parameter name="substeps" condition="int">5</parameter>
<parameter name="tau" condition="au">1.5000e-01</parameter>
<parameter name="time_step" condition="au">1.5000e-01</parameter>
<parameter name="timestep" condition="au">1.5000e-01</parameter>
<parameter name="use_drift" condition="string">no</parameter>
<parameter name="usedrift" condition="string">no</parameter>
<parameter name="walkers" condition="int">1</parameter>
<parameter name="warmup_steps" condition="int">0</parameter>
<parameter name="warmupsteps" condition="int">0</parameter>
  DumpConfig==false Nothing (configurations, state) will be saved.
  Walker Samples are dumped every 1 steps.
</vmc>
  EstimatorManagerBase::add replace LocalEnergy estimator.
  EstimatorManagerBase::add replace LocalEnergy estimator.
<optimization-report>
<vmc stage="main" blocks="200">
  Cannot make clones again. Use existing 1 clones
  Initial partition of walkers 0 1 
  Using Particle by Particle moves
  Walker moves without drift
  Total Sample Size   =256000
  Walker distribution on root = 0 1 
  Using Locality Approximation
===== Memory Usage after the buffer registration =====
Available memory on node 0, free + buffers : 84465 MB
Memory footprint by rank 0 on node 0       : 82 MB
==================================================
====================================================
  SimpleFixedNodeBranch::finalize after a VMC block
    QMC counter        = 6
    time step          = 0.15
    reference energy   = -5.39735
    reference variance = 0.050931
====================================================
  Execution time = 1.4854e+00
</vmc>
<opt stage="setup">
  <log>
   Reading configurations from h5FileRoot C.log.s006
  QMCCostFunction is created with 1 threads.
  Using Nonlocal PP in Opt: NonLocalECP
   Number of samples loaded to each thread : 250 
  VMC Eavg = -5.3958e+00
  VMC Evar = 6.9644e-02
  Total weights = 2.5600e+05
  Execution time = 2.1008e-01
  </log>
</opt>
<opt stage="main" walkers="256000">
  <log>

*****************************************
Building overlap and Hamiltonian matrices
*****************************************

Among totally 30 optimized parameters, largest LM parameter change : 2.5044e-02 at parameter 10

******************************************************************************
Init Cost =   6.9644e-02    New Cost =   6.9605e-02  Delta Cost =  -3.8297e-05
******************************************************************************

The new set of parameters is valid. Updating the trial wave function!

*****************************************************************************
Applying the update for shift_i =   1.0000e-02     and shift_s =   3.9062e-03
*****************************************************************************
  Execution time = 1.9179e+00
  </log>
  <optVariables href="C.log.s006.opt.xml">
uu_0 4.0298e-01 1 1  ON 0
uu_1 2.9039e-01 1 1  ON 1
uu_2 1.8541e-01 1 1  ON 2
uu_3 1.0104e-01 1 1  ON 3
uu_4 3.4068e-02 1 1  ON 4
uu_5 -1.5610e-02 1 1  ON 5
uu_6 -4.9096e-02 1 1  ON 6
uu_7 -6.8181e-02 1 1  ON 7
uu_8 -6.8589e-02 1 1  ON 8
uu_9 -5.8403e-02 1 1  ON 9
ud_0 7.3470e-01 1 1  ON 10
ud_1 4.8966e-01 1 1  ON 11
ud_2 3.1070e-01 1 1  ON 12
ud_3 1.8209e-01 1 1  ON 13
ud_4 8.5897e-02 1 1  ON 14
ud_5 1.4126e-02 1 1  ON 15
ud_6 -3.7126e-02 1 1  ON 16
ud_7 -7.0699e-02 1 1  ON 17
ud_8 -8.0725e-02 1 1  ON 18
ud_9 -7.9980e-02 1 1  ON 19
eC_0 -4.6227e-01 1 1  ON 20
eC_1 -3.9893e-01 1 1  ON 21
eC_2 -2.6111e-01 1 1  ON 22
eC_3 -9.8743e-02 1 1  ON 23
eC_4 4.9105e-02 1 1  ON 24
eC_5 1.6546e-01 1 1  ON 25
eC_6 2.3577e-01 1 1  ON 26
eC_7 2.6464e-01 1 1  ON 27
eC_8 2.3698e-01 1 1  ON 28
eC_9 1.6695e-01 1 1  ON 29
  </optVariables>
   Restore the number of walkers to 1, removing 0 walkers.
</opt>
</optimization-report>
  QMC Execution time = 1.9262e+00 secs 
  Reusing QMCFixedSampleLinearOptimize
 Using QMCCostFunction::QMCCostFunction

=========================================================
  Start QMCFixedSampleLinearOptimize
  File Root C.log.s007 append = no 
=========================================================
  Skip QMCDriver::putQMCInfo 
  Resetting Properties of the walkers 1 x 13

=========================================================
  Start VMC
  File Root C.log.s007 append = no 
=========================================================
Using existing walkers 
  Resetting Properties of the walkers 1 x 13

<vmc function="put">
  qmc_counter=1  my_counter=6
  time step      = 1.5000e-01
  blocks         = 200
  steps          = 2
  substeps       = 5
  current        = 0
  target samples = 2.5600e+05
  walkers/mpi    = 1

  stepsbetweensamples = 1
<parameter name="blocks" condition="int">200</parameter>
<parameter name="blocks_between_recompute" condition="int">0</parameter>
<parameter name="check_properties" condition="int">100</parameter>
<parameter name="checkproperties" condition="int">100</parameter>
<parameter name="current" condition="int">0</parameter>
<parameter name="dmcwalkersperthread" condition="real">2.5000e+02</parameter>
<parameter name="maxcpusecs" condition="real">3.6000e+05</parameter>
<parameter name="record_configs" condition="int">0</parameter>
<parameter name="record_walkers" condition="int">1</parameter>
<parameter name="recordconfigs" condition="int">0</parameter>
<parameter name="recordwalkers" condition="int">1</parameter>
<parameter name="rewind" condition="int">0</parameter>
<parameter name="samples" condition="real">2.5600e+05</parameter>
<parameter name="samplesperthread" condition="real">2.5000e+02</parameter>
<parameter name="steps" condition="int">2</parameter>
<parameter name="stepsbetweensamples" condition="int">1</parameter>
<parameter name="store_configs" condition="int">0</parameter>
<parameter name="storeconfigs" condition="int">0</parameter>
<parameter name="sub_steps" condition="int">5</parameter>
<parameter name="substeps" condition="int">5</parameter>
<parameter name="tau" condition="au">1.5000e-01</parameter>
<parameter name="time_step" condition="au">1.5000e-01</parameter>
<parameter name="timestep" condition="au">1.5000e-01</parameter>
<parameter name="use_drift" condition="string">no</parameter>
<parameter name="usedrift" condition="string">no</parameter>
<parameter name="walkers" condition="int">1</parameter>
<parameter name="warmup_steps" condition="int">0</parameter>
<parameter name="warmupsteps" condition="int">0</parameter>
  DumpConfig==false Nothing (configurations, state) will be saved.
  Walker Samples are dumped every 1 steps.
</vmc>
  EstimatorManagerBase::add replace LocalEnergy estimator.
  EstimatorManagerBase::add replace LocalEnergy estimator.
<optimization-report>
<vmc stage="main" blocks="200">
  Cannot make clones again. Use existing 1 clones
  Initial partition of walkers 0 1 
  Using Particle by Particle moves
  Walker moves without drift
  Total Sample Size   =256000
  Walker distribution on root = 0 1 
  Using Locality Approximation
===== Memory Usage after the buffer registration =====
Available memory on node 0, free + buffers : 84463 MB
Memory footprint by rank 0 on node 0       : 83 MB
==================================================
====================================================
  SimpleFixedNodeBranch::finalize after a VMC block
    QMC counter        = 7
    time step          = 0.15
    reference energy   = -5.3869
    reference variance = 0.0532229
====================================================
  Execution time = 1.5072e+00
</vmc>
<opt stage="setup">
  <log>
   Reading configurations from h5FileRoot C.log.s007
  QMCCostFunction is created with 1 threads.
  Using Nonlocal PP in Opt: NonLocalECP
   Number of samples loaded to each thread : 250 
  VMC Eavg = -5.3950e+00
  VMC Evar = 6.9425e-02
  Total weights = 2.5600e+05
  Execution time = 2.2477e-01
  </log>
</opt>
<opt stage="main" walkers="256000">
  <log>

*****************************************
Building overlap and Hamiltonian matrices
*****************************************

Among totally 30 optimized parameters, largest LM parameter change : 2.2378e-02 at parameter 10

******************************************************************************
Init Cost =   6.9425e-02    New Cost =   6.9770e-02  Delta Cost =   3.4511e-04
******************************************************************************

The new set of parameters is valid. Updating the trial wave function!

*****************************************************************************
Applying the update for shift_i =   1.0000e-02     and shift_s =   3.9062e-03
*****************************************************************************
  Execution time = 1.9671e+00
  </log>
  <optVariables href="C.log.s007.opt.xml">
uu_0 4.1700e-01 1 1  ON 0
uu_1 2.9969e-01 1 1  ON 1
uu_2 1.9502e-01 1 1  ON 2
uu_3 1.0976e-01 1 1  ON 3
uu_4 4.2303e-02 1 1  ON 4
uu_5 -8.5861e-03 1 1  ON 5
uu_6 -4.3148e-02 1 1  ON 6
uu_7 -6.3087e-02 1 1  ON 7
uu_8 -6.4872e-02 1 1  ON 8
uu_9 -5.5551e-02 1 1  ON 9
ud_0 7.5708e-01 1 1  ON 10
ud_1 5.1062e-01 1 1  ON 11
ud_2 3.3105e-01 1 1  ON 12
ud_3 2.0130e-01 1 1  ON 13
ud_4 1.0448e-01 1 1  ON 14
ud_5 3.2032e-02 1 1  ON 15
ud_6 -2.0157e-02 1 1  ON 16
ud_7 -5.5039e-02 1 1  ON 17
ud_8 -6.7754e-02 1 1  ON 18
ud_9 -6.9494e-02 1 1  ON 19
eC_0 -4.7965e-01 1 1  ON 20
eC_1 -4.1566e-01 1 1  ON 21
eC_2 -2.7627e-01 1 1  ON 22
eC_3 -1.1180e-01 1 1  ON 23
eC_4 3.8636e-02 1 1  ON 24
eC_5 1.5797e-01 1 1  ON 25
eC_6 2.3238e-01 1 1  ON 26
eC_7 2.6658e-01 1 1  ON 27
eC_8 2.4649e-01 1 1  ON 28
eC_9 1.8041e-01 1 1  ON 29
  </optVariables>
   Restore the number of walkers to 1, removing 0 walkers.
</opt>
</optimization-report>
  QMC Execution time = 1.9762e+00 secs 
  Reusing QMCFixedSampleLinearOptimize
 Using QMCCostFunction::QMCCostFunction

=========================================================
  Start QMCFixedSampleLinearOptimize
  File Root C.log.s008 append = no 
=========================================================
  Skip QMCDriver::putQMCInfo 
  Resetting Properties of the walkers 1 x 13

=========================================================
  Start VMC
  File Root C.log.s008 append = no 
=========================================================
Using existing walkers 
  Resetting Properties of the walkers 1 x 13

<vmc function="put">
  qmc_counter=2  my_counter=7
  time step      = 1.5000e-01
  blocks         = 200
  steps          = 2
  substeps       = 5
  current        = 0
  target samples = 2.5600e+05
  walkers/mpi    = 1

  stepsbetweensamples = 1
<parameter name="blocks" condition="int">200</parameter>
<parameter name="blocks_between_recompute" condition="int">0</parameter>
<parameter name="check_properties" condition="int">100</parameter>
<parameter name="checkproperties" condition="int">100</parameter>
<parameter name="current" condition="int">0</parameter>
<parameter name="dmcwalkersperthread" condition="real">2.5000e+02</parameter>
<parameter name="maxcpusecs" condition="real">3.6000e+05</parameter>
<parameter name="record_configs" condition="int">0</parameter>
<parameter name="record_walkers" condition="int">1</parameter>
<parameter name="recordconfigs" condition="int">0</parameter>
<parameter name="recordwalkers" condition="int">1</parameter>
<parameter name="rewind" condition="int">0</parameter>
<parameter name="samples" condition="real">2.5600e+05</parameter>
<parameter name="samplesperthread" condition="real">2.5000e+02</parameter>
<parameter name="steps" condition="int">2</parameter>
<parameter name="stepsbetweensamples" condition="int">1</parameter>
<parameter name="store_configs" condition="int">0</parameter>
<parameter name="storeconfigs" condition="int">0</parameter>
<parameter name="sub_steps" condition="int">5</parameter>
<parameter name="substeps" condition="int">5</parameter>
<parameter name="tau" condition="au">1.5000e-01</parameter>
<parameter name="time_step" condition="au">1.5000e-01</parameter>
<parameter name="timestep" condition="au">1.5000e-01</parameter>
<parameter name="use_drift" condition="string">no</parameter>
<parameter name="usedrift" condition="string">no</parameter>
<parameter name="walkers" condition="int">1</parameter>
<parameter name="warmup_steps" condition="int">0</parameter>
<parameter name="warmupsteps" condition="int">0</parameter>
  DumpConfig==false Nothing (configurations, state) will be saved.
  Walker Samples are dumped every 1 steps.
</vmc>
  EstimatorManagerBase::add replace LocalEnergy estimator.
  EstimatorManagerBase::add replace LocalEnergy estimator.
<optimization-report>
<vmc stage="main" blocks="200">
  Cannot make clones again. Use existing 1 clones
  Initial partition of walkers 0 1 
  Using Particle by Particle moves
  Walker moves without drift
  Total Sample Size   =256000
  Walker distribution on root = 0 1 
  Using Locality Approximation
===== Memory Usage after the buffer registration =====
Available memory on node 0, free + buffers : 84461 MB
Memory footprint by rank 0 on node 0       : 85 MB
==================================================
====================================================
  SimpleFixedNodeBranch::finalize after a VMC block
    QMC counter        = 8
    time step          = 0.15
    reference energy   = -5.39022
    reference variance = 0.115357
====================================================
  Execution time = 1.4967e+00
</vmc>
<opt stage="setup">
  <log>
   Reading configurations from h5FileRoot C.log.s008
  QMCCostFunction is created with 1 threads.
  Using Nonlocal PP in Opt: NonLocalECP
   Number of samples loaded to each thread : 250 
  VMC Eavg = -5.3953e+00
  VMC Evar = 7.2119e-02
  Total weights = 2.5600e+05
  Execution time = 2.2167e-01
  </log>
</opt>
<opt stage="main" walkers="256000">
  <log>

*****************************************
Building overlap and Hamiltonian matrices
*****************************************

Among totally 30 optimized parameters, largest LM parameter change : 1.8590e-02 at parameter 10

******************************************************************************
Init Cost =   7.2119e-02    New Cost =   7.2446e-02  Delta Cost =   3.2629e-04
******************************************************************************

The new set of parameters is valid. Updating the trial wave function!

*****************************************************************************
Applying the update for shift_i =   1.0000e-02     and shift_s =   3.9062e-03
*****************************************************************************
  Execution time = 1.9562e+00
  </log>
  <optVariables href="C.log.s008.opt.xml">
uu_0 4.2629e-01 1 1  ON 0
uu_1 3.0826e-01 1 1  ON 1
uu_2 2.0252e-01 1 1  ON 2
uu_3 1.1711e-01 1 1  ON 3
uu_4 4.9441e-02 1 1  ON 4
uu_5 -1.5335e-03 1 1  ON 5
uu_6 -3.6635e-02 1 1  ON 6
uu_7 -5.7323e-02 1 1  ON 7
uu_8 -5.9964e-02 1 1  ON 8
uu_9 -5.2231e-02 1 1  ON 9
ud_0 7.7567e-01 1 1  ON 10
ud_1 5.2834e-01 1 1  ON 11
ud_2 3.4754e-01 1 1  ON 12
ud_3 2.1755e-01 1 1  ON 13
ud_4 1.1999e-01 1 1  ON 14
ud_5 4.6726e-02 1 1  ON 15
ud_6 -6.4413e-03 1 1  ON 16
ud_7 -4.2595e-02 1 1  ON 17
ud_8 -5.7902e-02 1 1  ON 18
ud_9 -6.0747e-02 1 1  ON 19
eC_0 -4.9262e-01 1 1  ON 20
eC_1 -4.2809e-01 1 1  ON 21
eC_2 -2.8815e-01 1 1  ON 22
eC_3 -1.2337e-01 1 1  ON 23
eC_4 2.8095e-02 1 1  ON 24
eC_5 1.5043e-01 1 1  ON 25
eC_6 2.2688e-01 1 1  ON 26
eC_7 2.6349e-01 1 1  ON 27
eC_8 2.4576e-01 1 1  ON 28
eC_9 1.9210e-01 1 1  ON 29
  </optVariables>
   Restore the number of walkers to 1, removing 0 walkers.
</opt>
</optimization-report>
  QMC Execution time = 1.9652e+00 secs 
  Reusing QMCFixedSampleLinearOptimize
 Using QMCCostFunction::QMCCostFunction

=========================================================
  Start QMCFixedSampleLinearOptimize
  File Root C.log.s009 append = no 
=========================================================
  Skip QMCDriver::putQMCInfo 
  Resetting Properties of the walkers 1 x 13

=========================================================
  Start VMC
  File Root C.log.s009 append = no 
=========================================================
Using existing walkers 
  Resetting Properties of the walkers 1 x 13

<vmc function="put">
  qmc_counter=3  my_counter=8
  time step      = 1.5000e-01
  blocks         = 200
  steps          = 2
  substeps       = 5
  current        = 0
  target samples = 2.5600e+05
  walkers/mpi    = 1

  stepsbetweensamples = 1
<parameter name="blocks" condition="int">200</parameter>
<parameter name="blocks_between_recompute" condition="int">0</parameter>
<parameter name="check_properties" condition="int">100</parameter>
<parameter name="checkproperties" condition="int">100</parameter>
<parameter name="current" condition="int">0</parameter>
<parameter name="dmcwalkersperthread" condition="real">2.5000e+02</parameter>
<parameter name="maxcpusecs" condition="real">3.6000e+05</parameter>
<parameter name="record_configs" condition="int">0</parameter>
<parameter name="record_walkers" condition="int">1</parameter>
<parameter name="recordconfigs" condition="int">0</parameter>
<parameter name="recordwalkers" condition="int">1</parameter>
<parameter name="rewind" condition="int">0</parameter>
<parameter name="samples" condition="real">2.5600e+05</parameter>
<parameter name="samplesperthread" condition="real">2.5000e+02</parameter>
<parameter name="steps" condition="int">2</parameter>
<parameter name="stepsbetweensamples" condition="int">1</parameter>
<parameter name="store_configs" condition="int">0</parameter>
<parameter name="storeconfigs" condition="int">0</parameter>
<parameter name="sub_steps" condition="int">5</parameter>
<parameter name="substeps" condition="int">5</parameter>
<parameter name="tau" condition="au">1.5000e-01</parameter>
<parameter name="time_step" condition="au">1.5000e-01</parameter>
<parameter name="timestep" condition="au">1.5000e-01</parameter>
<parameter name="use_drift" condition="string">no</parameter>
<parameter name="usedrift" condition="string">no</parameter>
<parameter name="walkers" condition="int">1</parameter>
<parameter name="warmup_steps" condition="int">0</parameter>
<parameter name="warmupsteps" condition="int">0</parameter>
  DumpConfig==false Nothing (configurations, state) will be saved.
  Walker Samples are dumped every 1 steps.
</vmc>
  EstimatorManagerBase::add replace LocalEnergy estimator.
  EstimatorManagerBase::add replace LocalEnergy estimator.
<optimization-report>
<vmc stage="main" blocks="200">
  Cannot make clones again. Use existing 1 clones
  Initial partition of walkers 0 1 
  Using Particle by Particle moves
  Walker moves without drift
  Total Sample Size   =256000
  Walker distribution on root = 0 1 
  Using Locality Approximation
===== Memory Usage after the buffer registration =====
Available memory on node 0, free + buffers : 84460 MB
Memory footprint by rank 0 on node 0       : 87 MB
==================================================
====================================================
  SimpleFixedNodeBranch::finalize after a VMC block
    QMC counter        = 9
    time step          = 0.15
    reference energy   = -5.38748
    reference variance = 0.0650743
====================================================
  Execution time = 1.5120e+00
</vmc>
<opt stage="setup">
  <log>
   Reading configurations from h5FileRoot C.log.s009
  QMCCostFunction is created with 1 threads.
  Using Nonlocal PP in Opt: NonLocalECP
   Number of samples loaded to each thread : 250 
  VMC Eavg = -5.3959e+00
  VMC Evar = 6.9537e-02
  Total weights = 2.5600e+05
  Execution time = 2.2500e-01
  </log>
</opt>
<opt stage="main" walkers="256000">
  <log>

*****************************************
Building overlap and Hamiltonian matrices
*****************************************

Among totally 30 optimized parameters, largest LM parameter change : 1.4335e-02 at parameter 20

******************************************************************************
Init Cost =   6.9537e-02    New Cost =   6.9424e-02  Delta Cost =  -1.1315e-04
******************************************************************************

The new set of parameters is valid. Updating the trial wave function!

*****************************************************************************
Applying the update for shift_i =   1.0000e-02     and shift_s =   3.9062e-03
*****************************************************************************
  Execution time = 1.9845e+00
  </log>
  <optVariables href="C.log.s009.opt.xml">
uu_0 4.3336e-01 1 1  ON 0
uu_1 3.1293e-01 1 1  ON 1
uu_2 2.0719e-01 1 1  ON 2
uu_3 1.2136e-01 1 1  ON 3
uu_4 5.3569e-02 1 1  ON 4
uu_5 2.5747e-03 1 1  ON 5
uu_6 -3.2715e-02 1 1  ON 6
uu_7 -5.3337e-02 1 1  ON 7
uu_8 -5.6400e-02 1 1  ON 8
uu_9 -4.8810e-02 1 1  ON 9
ud_0 7.8757e-01 1 1  ON 10
ud_1 5.3963e-01 1 1  ON 11
ud_2 3.5863e-01 1 1  ON 12
ud_3 2.2851e-01 1 1  ON 13
ud_4 1.3096e-01 1 1  ON 14
ud_5 5.7634e-02 1 1  ON 15
ud_6 4.0570e-03 1 1  ON 16
ud_7 -3.1947e-02 1 1  ON 17
ud_8 -4.7781e-02 1 1  ON 18
ud_9 -5.1191e-02 1 1  ON 19
eC_0 -5.0696e-01 1 1  ON 20
eC_1 -4.4207e-01 1 1  ON 21
eC_2 -3.0215e-01 1 1  ON 22
eC_3 -1.3638e-01 1 1  ON 23
eC_4 1.6065e-02 1 1  ON 24
eC_5 1.3943e-01 1 1  ON 25
eC_6 2.1871e-01 1 1  ON 26
eC_7 2.6029e-01 1 1  ON 27
eC_8 2.4670e-01 1 1  ON 28
eC_9 2.0036e-01 1 1  ON 29
  </optVariables>
   Restore the number of walkers to 1, removing 0 walkers.
</opt>
</optimization-report>
  QMC Execution time = 1.9934e+00 secs 
  Reusing QMCFixedSampleLinearOptimize
 Using QMCCostFunction::QMCCostFunction

=========================================================
  Start QMCFixedSampleLinearOptimize
  File Root C.log.s010 append = no 
=========================================================
  Skip QMCDriver::putQMCInfo 
  Resetting Properties of the walkers 1 x 13

=========================================================
  Start VMC
  File Root C.log.s010 append = no 
=========================================================
Using existing walkers 
  Resetting Properties of the walkers 1 x 13

<vmc function="put">
  qmc_counter=4  my_counter=9
  time step      = 1.5000e-01
  blocks         = 200
  steps          = 2
  substeps       = 5
  current        = 0
  target samples = 2.5600e+05
  walkers/mpi    = 1

  stepsbetweensamples = 1
<parameter name="blocks" condition="int">200</parameter>
<parameter name="blocks_between_recompute" condition="int">0</parameter>
<parameter name="check_properties" condition="int">100</parameter>
<parameter name="checkproperties" condition="int">100</parameter>
<parameter name="current" condition="int">0</parameter>
<parameter name="dmcwalkersperthread" condition="real">2.5000e+02</parameter>
<parameter name="maxcpusecs" condition="real">3.6000e+05</parameter>
<parameter name="record_configs" condition="int">0</parameter>
<parameter name="record_walkers" condition="int">1</parameter>
<parameter name="recordconfigs" condition="int">0</parameter>
<parameter name="recordwalkers" condition="int">1</parameter>
<parameter name="rewind" condition="int">0</parameter>
<parameter name="samples" condition="real">2.5600e+05</parameter>
<parameter name="samplesperthread" condition="real">2.5000e+02</parameter>
<parameter name="steps" condition="int">2</parameter>
<parameter name="stepsbetweensamples" condition="int">1</parameter>
<parameter name="store_configs" condition="int">0</parameter>
<parameter name="storeconfigs" condition="int">0</parameter>
<parameter name="sub_steps" condition="int">5</parameter>
<parameter name="substeps" condition="int">5</parameter>
<parameter name="tau" condition="au">1.5000e-01</parameter>
<parameter name="time_step" condition="au">1.5000e-01</parameter>
<parameter name="timestep" condition="au">1.5000e-01</parameter>
<parameter name="use_drift" condition="string">no</parameter>
<parameter name="usedrift" condition="string">no</parameter>
<parameter name="walkers" condition="int">1</parameter>
<parameter name="warmup_steps" condition="int">0</parameter>
<parameter name="warmupsteps" condition="int">0</parameter>
  DumpConfig==false Nothing (configurations, state) will be saved.
  Walker Samples are dumped every 1 steps.
</vmc>
  EstimatorManagerBase::add replace LocalEnergy estimator.
  EstimatorManagerBase::add replace LocalEnergy estimator.
<optimization-report>
<vmc stage="main" blocks="200">
  Cannot make clones again. Use existing 1 clones
  Initial partition of walkers 0 1 
  Using Particle by Particle moves
  Walker moves without drift
  Total Sample Size   =256000
  Walker distribution on root = 0 1 
  Using Locality Approximation
===== Memory Usage after the buffer registration =====
Available memory on node 0, free + buffers : 84458 MB
Memory footprint by rank 0 on node 0       : 88 MB
==================================================
====================================================
  SimpleFixedNodeBranch::finalize after a VMC block
    QMC counter        = 10
    time step          = 0.15
    reference energy   = -5.38974
    reference variance = 0.0963081
====================================================
  Execution time = 1.5095e+00
</vmc>
<opt stage="setup">
  <log>
   Reading configurations from h5FileRoot C.log.s010
  QMCCostFunction is created with 1 threads.
  Using Nonlocal PP in Opt: NonLocalECP
   Number of samples loaded to each thread : 250 
  VMC Eavg = -5.3961e+00
  VMC Evar = 6.9772e-02
  Total weights = 2.5600e+05
  Execution time = 2.4250e-01
  </log>
</opt>
<opt stage="main" walkers="256000">
  <log>

*****************************************
Building overlap and Hamiltonian matrices
*****************************************

Among totally 30 optimized parameters, largest LM parameter change : 1.5477e-02 at parameter 21

******************************************************************************
Init Cost =   6.9772e-02    New Cost =   6.9826e-02  Delta Cost =   5.4103e-05
******************************************************************************

The new set of parameters is valid. Updating the trial wave function!

*****************************************************************************
Applying the update for shift_i =   1.0000e-02     and shift_s =   3.9062e-03
*****************************************************************************
  Execution time = 2.0030e+00
  </log>
  <optVariables href="C.log.s010.opt.xml">
uu_0 4.4079e-01 1 1  ON 0
uu_1 3.1943e-01 1 1  ON 1
uu_2 2.1416e-01 1 1  ON 2
uu_3 1.2828e-01 1 1  ON 3
uu_4 5.9859e-02 1 1  ON 4
uu_5 8.0553e-03 1 1  ON 5
uu_6 -2.8352e-02 1 1  ON 6
uu_7 -5.0178e-02 1 1  ON 7
uu_8 -5.5299e-02 1 1  ON 8
uu_9 -4.9861e-02 1 1  ON 9
ud_0 7.9906e-01 1 1  ON 10
ud_1 5.5051e-01 1 1  ON 11
ud_2 3.6965e-01 1 1  ON 12
ud_3 2.3932e-01 1 1  ON 13
ud_4 1.4154e-01 1 1  ON 14
ud_5 6.7609e-02 1 1  ON 15
ud_6 1.3369e-02 1 1  ON 16
ud_7 -2.3690e-02 1 1  ON 17
ud_8 -4.1393e-02 1 1  ON 18
ud_9 -4.5694e-02 1 1  ON 19
eC_0 -5.2203e-01 1 1  ON 20
eC_1 -4.5755e-01 1 1  ON 21
eC_2 -3.1655e-01 1 1  ON 22
eC_3 -1.4933e-01 1 1  ON 23
eC_4 5.4168e-03 1 1  ON 24
eC_5 1.3150e-01 1 1  ON 25
eC_6 2.1397e-01 1 1  ON 26
eC_7 2.5673e-01 1 1  ON 27
eC_8 2.4623e-01 1 1  ON 28
eC_9 2.0501e-01 1 1  ON 29
  </optVariables>
   Restore the number of walkers to 1, removing 0 walkers.
</opt>
</optimization-report>
  QMC Execution time = 2.0121e+00 secs 
Loop execution max-interations = 10
  Reusing QMCFixedSampleLinearOptimize
 Using QMCCostFunction::QMCCostFunction

=========================================================
  Start QMCFixedSampleLinearOptimize
  File Root C.log.s011 append = no 
=========================================================
  Skip QMCDriver::putQMCInfo 
  Resetting Properties of the walkers 1 x 13

=========================================================
  Start VMC
  File Root C.log.s011 append = no 
=========================================================
  Using the current 1 walkers.
  Total number of walkers: 1.0240e+03
  Total weight: 1.0240e+03
  Resetting Properties of the walkers 1 x 13

<vmc function="put">
  qmc_counter=0  my_counter=10
  time step      = 1.5000e-01
  blocks         = 200
  steps          = 3
  substeps       = 5
  current        = 0
  target samples = 5.1200e+05
  walkers/mpi    = 1

  stepsbetweensamples = 1
<parameter name="blocks" condition="int">200</parameter>
<parameter name="blocks_between_recompute" condition="int">0</parameter>
<parameter name="check_properties" condition="int">100</parameter>
<parameter name="checkproperties" condition="int">100</parameter>
<parameter name="current" condition="int">0</parameter>
<parameter name="dmcwalkersperthread" condition="real">5.0000e+02</parameter>
<parameter name="maxcpusecs" condition="real">3.6000e+05</parameter>
<parameter name="record_configs" condition="int">0</parameter>
<parameter name="record_walkers" condition="int">1</parameter>
<parameter name="recordconfigs" condition="int">0</parameter>
<parameter name="recordwalkers" condition="int">1</parameter>
<parameter name="rewind" condition="int">0</parameter>
<parameter name="samples" condition="real">5.1200e+05</parameter>
<parameter name="samplesperthread" condition="real">5.0000e+02</parameter>
<parameter name="steps" condition="int">3</parameter>
<parameter name="stepsbetweensamples" condition="int">1</parameter>
<parameter name="store_configs" condition="int">0</parameter>
<parameter name="storeconfigs" condition="int">0</parameter>
<parameter name="sub_steps" condition="int">5</parameter>
<parameter name="substeps" condition="int">5</parameter>
<parameter name="tau" condition="au">1.5000e-01</parameter>
<parameter name="time_step" condition="au">1.5000e-01</parameter>
<parameter name="timestep" condition="au">1.5000e-01</parameter>
<parameter name="use_drift" condition="string">no</parameter>
<parameter name="usedrift" condition="string">no</parameter>
<parameter name="walkers" condition="int">1</parameter>
<parameter name="warmup_steps" condition="int">0</parameter>
<parameter name="warmupsteps" condition="int">0</parameter>
  DumpConfig==false Nothing (configurations, state) will be saved.
  Walker Samples are dumped every 1 steps.
</vmc>
  EstimatorManagerBase::add replace LocalEnergy estimator.
  EstimatorManagerBase::add replace LocalEnergy estimator.
<optimization-report>
<vmc stage="main" blocks="200">
  Cannot make clones again. Use existing 1 clones
  Initial partition of walkers 0 1 
  Using Particle by Particle moves
  Walker moves without drift
  Total Sample Size   =512000
  Walker distribution on root = 0 1 
  Using Locality Approximation
===== Memory Usage after the buffer registration =====
Available memory on node 0, free + buffers : 84456 MB
Memory footprint by rank 0 on node 0       : 90 MB
==================================================
====================================================
  SimpleFixedNodeBranch::finalize after a VMC block
    QMC counter        = 11
    time step          = 0.15
    reference energy   = -5.40234
    reference variance = 0.0804273
====================================================
  Execution time = 1.8469e+00
</vmc>
<opt stage="setup">
  <log>
   Reading configurations from h5FileRoot C.log.s011
  QMCCostFunction is created with 1 threads.
  Using Nonlocal PP in Opt: NonLocalECP
   Number of samples loaded to each thread : 500 
  VMC Eavg = -5.3957e+00
  VMC Evar = 7.1325e-02
  Total weights = 5.1200e+05
  Execution time = 4.7417e-01
  </log>
</opt>
<opt stage="main" walkers="512000">
  <log>

*****************************************
Building overlap and Hamiltonian matrices
*****************************************

Among totally 30 optimized parameters, largest LM parameter change : 1.2659e-02 at parameter 20

******************************************************************************
Init Cost =  -5.1224e+00    New Cost =  -5.1224e+00  Delta Cost =  -4.0873e-05
******************************************************************************

The new set of parameters is valid. Updating the trial wave function!

*****************************************************************************
Applying the update for shift_i =   1.0000e-02     and shift_s =   3.9062e-03
*****************************************************************************
  Execution time = 2.8138e+00
  </log>
  <optVariables href="C.log.s011.opt.xml">
uu_0 4.4490e-01 1 1  ON 0
uu_1 3.2224e-01 1 1  ON 1
uu_2 2.1662e-01 1 1  ON 2
uu_3 1.3044e-01 1 1  ON 3
uu_4 6.1830e-02 1 1  ON 4
uu_5 9.9134e-03 1 1  ON 5
uu_6 -2.6272e-02 1 1  ON 6
uu_7 -4.7849e-02 1 1  ON 7
uu_8 -5.2796e-02 1 1  ON 8
uu_9 -4.7531e-02 1 1  ON 9
ud_0 8.0649e-01 1 1  ON 10
ud_1 5.5910e-01 1 1  ON 11
ud_2 3.7856e-01 1 1  ON 12
ud_3 2.4808e-01 1 1  ON 13
ud_4 1.5036e-01 1 1  ON 14
ud_5 7.6288e-02 1 1  ON 15
ud_6 2.2013e-02 1 1  ON 16
ud_7 -1.5840e-02 1 1  ON 17
ud_8 -3.4815e-02 1 1  ON 18
ud_9 -4.1248e-02 1 1  ON 19
eC_0 -5.3469e-01 1 1  ON 20
eC_1 -4.6931e-01 1 1  ON 21
eC_2 -3.2829e-01 1 1  ON 22
eC_3 -1.6104e-01 1 1  ON 23
eC_4 -6.7299e-03 1 1  ON 24
eC_5 1.1942e-01 1 1  ON 25
eC_6 2.0248e-01 1 1  ON 26
eC_7 2.4997e-01 1 1  ON 27
eC_8 2.4390e-01 1 1  ON 28
eC_9 2.0959e-01 1 1  ON 29
  </optVariables>
   Restore the number of walkers to 1, removing 0 walkers.
</opt>
</optimization-report>
  QMC Execution time = 2.8229e+00 secs 
  Reusing QMCFixedSampleLinearOptimize
 Using QMCCostFunction::QMCCostFunction

=========================================================
  Start QMCFixedSampleLinearOptimize
  File Root C.log.s012 append = no 
=========================================================
  Skip QMCDriver::putQMCInfo 
  Resetting Properties of the walkers 1 x 13

=========================================================
  Start VMC
  File Root C.log.s012 append = no 
=========================================================
Using existing walkers 
  Resetting Properties of the walkers 1 x 13

<vmc function="put">
  qmc_counter=1  my_counter=11
  time step      = 1.5000e-01
  blocks         = 200
  steps          = 3
  substeps       = 5
  current        = 0
  target samples = 5.1200e+05
  walkers/mpi    = 1

  stepsbetweensamples = 1
<parameter name="blocks" condition="int">200</parameter>
<parameter name="blocks_between_recompute" condition="int">0</parameter>
<parameter name="check_properties" condition="int">100</parameter>
<parameter name="checkproperties" condition="int">100</parameter>
<parameter name="current" condition="int">0</parameter>
<parameter name="dmcwalkersperthread" condition="real">5.0000e+02</parameter>
<parameter name="maxcpusecs" condition="real">3.6000e+05</parameter>
<parameter name="record_configs" condition="int">0</parameter>
<parameter name="record_walkers" condition="int">1</parameter>
<parameter name="recordconfigs" condition="int">0</parameter>
<parameter name="recordwalkers" condition="int">1</parameter>
<parameter name="rewind" condition="int">0</parameter>
<parameter name="samples" condition="real">5.1200e+05</parameter>
<parameter name="samplesperthread" condition="real">5.0000e+02</parameter>
<parameter name="steps" condition="int">3</parameter>
<parameter name="stepsbetweensamples" condition="int">1</parameter>
<parameter name="store_configs" condition="int">0</parameter>
<parameter name="storeconfigs" condition="int">0</parameter>
<parameter name="sub_steps" condition="int">5</parameter>
<parameter name="substeps" condition="int">5</parameter>
<parameter name="tau" condition="au">1.5000e-01</parameter>
<parameter name="time_step" condition="au">1.5000e-01</parameter>
<parameter name="timestep" condition="au">1.5000e-01</parameter>
<parameter name="use_drift" condition="string">no</parameter>
<parameter name="usedrift" condition="string">no</parameter>
<parameter name="walkers" condition="int">1</parameter>
<parameter name="warmup_steps" condition="int">0</parameter>
<parameter name="warmupsteps" condition="int">0</parameter>
  DumpConfig==false Nothing (configurations, state) will be saved.
  Walker Samples are dumped every 1 steps.
</vmc>
  EstimatorManagerBase::add replace LocalEnergy estimator.
  EstimatorManagerBase::add replace LocalEnergy estimator.
<optimization-report>
<vmc stage="main" blocks="200">
  Cannot make clones again. Use existing 1 clones
  Initial partition of walkers 0 1 
  Using Particle by Particle moves
  Walker moves without drift
  Total Sample Size   =512000
  Walker distribution on root = 0 1 
  Using Locality Approximation
===== Memory Usage after the buffer registration =====
Available memory on node 0, free + buffers : 84439 MB
Memory footprint by rank 0 on node 0       : 92 MB
==================================================
====================================================
  SimpleFixedNodeBranch::finalize after a VMC block
    QMC counter        = 12
    time step          = 0.15
    reference energy   = -5.39651
    reference variance = 0.0820766
====================================================
  Execution time = 1.8361e+00
</vmc>
<opt stage="setup">
  <log>
   Reading configurations from h5FileRoot C.log.s012
  QMCCostFunction is created with 1 threads.
  Using Nonlocal PP in Opt: NonLocalECP
   Number of samples loaded to each thread : 500 
  VMC Eavg = -5.3961e+00
  VMC Evar = 7.2030e-02
[...]
  Execution time = 1.8029e+00
</vmc>
<opt stage="setup">
  <log>
   Reading configurations from h5FileRoot C.log.s017
  QMCCostFunction is created with 1 threads.
  Using Nonlocal PP in Opt: NonLocalECP
   Number of samples loaded to each thread : 500 
  VMC Eavg = -5.3962e+00
  VMC Evar = 7.1605e-02
  Total weights = 5.1200e+05
  Execution time = 4.9224e-01
  </log>
</opt>
<opt stage="main" walkers="512000">
  <log>

*****************************************
Building overlap and Hamiltonian matrices
*****************************************

Among totally 30 optimized parameters, largest LM parameter change : 9.5218e-03 at parameter 24

******************************************************************************
Init Cost =  -5.1228e+00    New Cost =  -5.1228e+00  Delta Cost =  -8.3282e-06
******************************************************************************

The new set of parameters is valid. Updating the trial wave function!

*****************************************************************************
Applying the update for shift_i =   1.0000e-02     and shift_s =   3.9062e-03
*****************************************************************************
  Execution time = 2.7840e+00
  </log>
  <optVariables href="C.log.s017.opt.xml">
uu_0 4.6618e-01 1 1  ON 0
uu_1 3.4097e-01 1 1  ON 1
uu_2 2.3523e-01 1 1  ON 2
uu_3 1.4840e-01 1 1  ON 3
uu_4 7.9257e-02 1 1  ON 4
uu_5 2.6513e-02 1 1  ON 5
uu_6 -1.0920e-02 1 1  ON 6
uu_7 -3.4059e-02 1 1  ON 7
uu_8 -4.1642e-02 1 1  ON 8
uu_9 -3.8946e-02 1 1  ON 9
ud_0 8.3805e-01 1 1  ON 10
ud_1 5.8978e-01 1 1  ON 11
ud_2 4.0915e-01 1 1  ON 12
ud_3 2.7815e-01 1 1  ON 13
ud_4 1.7960e-01 1 1  ON 14
ud_5 1.0453e-01 1 1  ON 15
ud_6 4.8724e-02 1 1  ON 16
ud_7 9.6209e-03 1 1  ON 17
ud_8 -1.2818e-02 1 1  ON 18
ud_9 -2.3395e-02 1 1  ON 19
eC_0 -5.9632e-01 1 1  ON 20
eC_1 -5.3093e-01 1 1  ON 21
eC_2 -3.8846e-01 1 1  ON 22
eC_3 -2.1959e-01 1 1  ON 23
eC_4 -6.2495e-02 1 1  ON 24
eC_5 6.7043e-02 1 1  ON 25
eC_6 1.5453e-01 1 1  ON 26
eC_7 2.0909e-01 1 1  ON 27
eC_8 2.1330e-01 1 1  ON 28
eC_9 1.9686e-01 1 1  ON 29
  </optVariables>
   Restore the number of walkers to 1, removing 0 walkers.
</opt>
</optimization-report>
  QMC Execution time = 2.7934e+00 secs 
  Reusing QMCFixedSampleLinearOptimize
 Using QMCCostFunction::QMCCostFunction

=========================================================
  Start QMCFixedSampleLinearOptimize
  File Root C.log.s018 append = no 
=========================================================
  Skip QMCDriver::putQMCInfo 
  Resetting Properties of the walkers 1 x 13

=========================================================
  Start VMC
  File Root C.log.s018 append = no 
=========================================================
Using existing walkers 
  Resetting Properties of the walkers 1 x 13

<vmc function="put">
  qmc_counter=7  my_counter=17
  time step      = 1.5000e-01
  blocks         = 200
  steps          = 3
  substeps       = 5
  current        = 0
  target samples = 5.1200e+05
  walkers/mpi    = 1

  stepsbetweensamples = 1
<parameter name="blocks" condition="int">200</parameter>
<parameter name="blocks_between_recompute" condition="int">0</parameter>
<parameter name="check_properties" condition="int">100</parameter>
<parameter name="checkproperties" condition="int">100</parameter>
<parameter name="current" condition="int">0</parameter>
<parameter name="dmcwalkersperthread" condition="real">5.0000e+02</parameter>
<parameter name="maxcpusecs" condition="real">3.6000e+05</parameter>
<parameter name="record_configs" condition="int">0</parameter>
<parameter name="record_walkers" condition="int">1</parameter>
<parameter name="recordconfigs" condition="int">0</parameter>
<parameter name="recordwalkers" condition="int">1</parameter>
<parameter name="rewind" condition="int">0</parameter>
<parameter name="samples" condition="real">5.1200e+05</parameter>
<parameter name="samplesperthread" condition="real">5.0000e+02</parameter>
<parameter name="steps" condition="int">3</parameter>
<parameter name="stepsbetweensamples" condition="int">1</parameter>
<parameter name="store_configs" condition="int">0</parameter>
<parameter name="storeconfigs" condition="int">0</parameter>
<parameter name="sub_steps" condition="int">5</parameter>
<parameter name="substeps" condition="int">5</parameter>
<parameter name="tau" condition="au">1.5000e-01</parameter>
<parameter name="time_step" condition="au">1.5000e-01</parameter>
<parameter name="timestep" condition="au">1.5000e-01</parameter>
<parameter name="use_drift" condition="string">no</parameter>
<parameter name="usedrift" condition="string">no</parameter>
<parameter name="walkers" condition="int">1</parameter>
<parameter name="warmup_steps" condition="int">0</parameter>
<parameter name="warmupsteps" condition="int">0</parameter>
  DumpConfig==false Nothing (configurations, state) will be saved.
  Walker Samples are dumped every 1 steps.
</vmc>
  EstimatorManagerBase::add replace LocalEnergy estimator.
  EstimatorManagerBase::add replace LocalEnergy estimator.
<optimization-report>
<vmc stage="main" blocks="200">
  Cannot make clones again. Use existing 1 clones
  Initial partition of walkers 0 1 
  Using Particle by Particle moves
  Walker moves without drift
  Total Sample Size   =512000
  Walker distribution on root = 0 1 
  Using Locality Approximation
===== Memory Usage after the buffer registration =====
Available memory on node 0, free + buffers : 84419 MB
Memory footprint by rank 0 on node 0       : 103 MB
==================================================
====================================================
  SimpleFixedNodeBranch::finalize after a VMC block
    QMC counter        = 18
    time step          = 0.15
    reference energy   = -5.40542
    reference variance = 0.0798757
====================================================
  Execution time = 1.8225e+00
</vmc>
<opt stage="setup">
  <log>
   Reading configurations from h5FileRoot C.log.s018
  QMCCostFunction is created with 1 threads.
  Using Nonlocal PP in Opt: NonLocalECP
   Number of samples loaded to each thread : 500 
  VMC Eavg = -5.3968e+00
  VMC Evar = 7.0273e-02
  Total weights = 5.1200e+05
  Execution time = 4.7292e-01
  </log>
</opt>
<opt stage="main" walkers="512000">
  <log>

*****************************************
Building overlap and Hamiltonian matrices
*****************************************

Among totally 30 optimized parameters, largest LM parameter change : 1.1890e-02 at parameter 20

******************************************************************************
Init Cost =  -5.1235e+00    New Cost =  -5.1235e+00  Delta Cost =  -1.8218e-05
******************************************************************************

The new set of parameters is valid. Updating the trial wave function!

*****************************************************************************
Applying the update for shift_i =   1.0000e-02     and shift_s =   3.9062e-03
*****************************************************************************
  Execution time = 2.7718e+00
  </log>
  <optVariables href="C.log.s018.opt.xml">
uu_0 4.6919e-01 1 1  ON 0
uu_1 3.4356e-01 1 1  ON 1
uu_2 2.3774e-01 1 1  ON 2
uu_3 1.5064e-01 1 1  ON 3
uu_4 8.1365e-02 1 1  ON 4
uu_5 2.8370e-02 1 1  ON 5
uu_6 -8.6959e-03 1 1  ON 6
uu_7 -3.2138e-02 1 1  ON 7
uu_8 -3.9819e-02 1 1  ON 8
uu_9 -3.7815e-02 1 1  ON 9
ud_0 8.4229e-01 1 1  ON 10
ud_1 5.9327e-01 1 1  ON 11
ud_2 4.1262e-01 1 1  ON 12
ud_3 2.8196e-01 1 1  ON 13
ud_4 1.8314e-01 1 1  ON 14
ud_5 1.0812e-01 1 1  ON 15
ud_6 5.2200e-02 1 1  ON 16
ud_7 1.2385e-02 1 1  ON 17
ud_8 -1.0897e-02 1 1  ON 18
ud_9 -2.1944e-02 1 1  ON 19
eC_0 -6.0821e-01 1 1  ON 20
eC_1 -5.4123e-01 1 1  ON 21
eC_2 -3.9825e-01 1 1  ON 22
eC_3 -2.2840e-01 1 1  ON 23
eC_4 -7.0872e-02 1 1  ON 24
eC_5 5.9642e-02 1 1  ON 25
eC_6 1.4873e-01 1 1  ON 26
eC_7 2.0510e-01 1 1  ON 27
eC_8 2.1134e-01 1 1  ON 28
eC_9 1.9458e-01 1 1  ON 29
  </optVariables>
   Restore the number of walkers to 1, removing 0 walkers.
</opt>
</optimization-report>
  QMC Execution time = 2.7806e+00 secs 
  Reusing QMCFixedSampleLinearOptimize
 Using QMCCostFunction::QMCCostFunction

=========================================================
  Start QMCFixedSampleLinearOptimize
  File Root C.log.s019 append = no 
=========================================================
  Skip QMCDriver::putQMCInfo 
  Resetting Properties of the walkers 1 x 13

=========================================================
  Start VMC
  File Root C.log.s019 append = no 
=========================================================
Using existing walkers 
  Resetting Properties of the walkers 1 x 13

<vmc function="put">
  qmc_counter=8  my_counter=18
  time step      = 1.5000e-01
  blocks         = 200
  steps          = 3
  substeps       = 5
  current        = 0
  target samples = 5.1200e+05
  walkers/mpi    = 1

  stepsbetweensamples = 1
<parameter name="blocks" condition="int">200</parameter>
<parameter name="blocks_between_recompute" condition="int">0</parameter>
<parameter name="check_properties" condition="int">100</parameter>
<parameter name="checkproperties" condition="int">100</parameter>
<parameter name="current" condition="int">0</parameter>
<parameter name="dmcwalkersperthread" condition="real">5.0000e+02</parameter>
<parameter name="maxcpusecs" condition="real">3.6000e+05</parameter>
<parameter name="record_configs" condition="int">0</parameter>
<parameter name="record_walkers" condition="int">1</parameter>
<parameter name="recordconfigs" condition="int">0</parameter>
<parameter name="recordwalkers" condition="int">1</parameter>
<parameter name="rewind" condition="int">0</parameter>
<parameter name="samples" condition="real">5.1200e+05</parameter>
<parameter name="samplesperthread" condition="real">5.0000e+02</parameter>
<parameter name="steps" condition="int">3</parameter>
<parameter name="stepsbetweensamples" condition="int">1</parameter>
<parameter name="store_configs" condition="int">0</parameter>
<parameter name="storeconfigs" condition="int">0</parameter>
<parameter name="sub_steps" condition="int">5</parameter>
<parameter name="substeps" condition="int">5</parameter>
<parameter name="tau" condition="au">1.5000e-01</parameter>
<parameter name="time_step" condition="au">1.5000e-01</parameter>
<parameter name="timestep" condition="au">1.5000e-01</parameter>
<parameter name="use_drift" condition="string">no</parameter>
<parameter name="usedrift" condition="string">no</parameter>
<parameter name="walkers" condition="int">1</parameter>
<parameter name="warmup_steps" condition="int">0</parameter>
<parameter name="warmupsteps" condition="int">0</parameter>
  DumpConfig==false Nothing (configurations, state) will be saved.
  Walker Samples are dumped every 1 steps.
</vmc>
  EstimatorManagerBase::add replace LocalEnergy estimator.
  EstimatorManagerBase::add replace LocalEnergy estimator.
<optimization-report>
<vmc stage="main" blocks="200">
  Cannot make clones again. Use existing 1 clones
  Initial partition of walkers 0 1 
  Using Particle by Particle moves
  Walker moves without drift
  Total Sample Size   =512000
  Walker distribution on root = 0 1 
  Using Locality Approximation
===== Memory Usage after the buffer registration =====
Available memory on node 0, free + buffers : 84417 MB
Memory footprint by rank 0 on node 0       : 105 MB
==================================================
====================================================
  SimpleFixedNodeBranch::finalize after a VMC block
    QMC counter        = 19
    time step          = 0.15
    reference energy   = -5.38979
    reference variance = 0.092124
====================================================
  Execution time = 1.7973e+00
</vmc>
<opt stage="setup">
  <log>
   Reading configurations from h5FileRoot C.log.s019
  QMCCostFunction is created with 1 threads.
  Using Nonlocal PP in Opt: NonLocalECP
   Number of samples loaded to each thread : 500 
  VMC Eavg = -5.3967e+00
  VMC Evar = 1.0350e-01
  Total weights = 5.1200e+05
  Execution time = 4.7442e-01
  </log>
</opt>
<opt stage="main" walkers="512000">
  <log>

*****************************************
Building overlap and Hamiltonian matrices
*****************************************

Among totally 30 optimized parameters, largest LM parameter change : 9.6206e-03 at parameter 27

******************************************************************************
Init Cost =  -5.1217e+00    New Cost =  -5.1217e+00  Delta Cost =  -2.2362e-05
******************************************************************************

The new set of parameters is valid. Updating the trial wave function!

*****************************************************************************
Applying the update for shift_i =   1.0000e-02     and shift_s =   3.9062e-03
*****************************************************************************
  Execution time = 2.7657e+00
  </log>
  <optVariables href="C.log.s019.opt.xml">
uu_0 4.7017e-01 1 1  ON 0
uu_1 3.4328e-01 1 1  ON 1
uu_2 2.3884e-01 1 1  ON 2
uu_3 1.5199e-01 1 1  ON 3
uu_4 8.2966e-02 1 1  ON 4
uu_5 3.0336e-02 1 1  ON 5
uu_6 -6.6951e-03 1 1  ON 6
uu_7 -2.9833e-02 1 1  ON 7
uu_8 -3.7731e-02 1 1  ON 8
uu_9 -3.5900e-02 1 1  ON 9
ud_0 8.4543e-01 1 1  ON 10
ud_1 5.9730e-01 1 1  ON 11
ud_2 4.1646e-01 1 1  ON 12
ud_3 2.8534e-01 1 1  ON 13
ud_4 1.8661e-01 1 1  ON 14
ud_5 1.1127e-01 1 1  ON 15
ud_6 5.5263e-02 1 1  ON 16
ud_7 1.4947e-02 1 1  ON 17
ud_8 -9.2313e-03 1 1  ON 18
ud_9 -1.9482e-02 1 1  ON 19
eC_0 -6.1391e-01 1 1  ON 20
eC_1 -5.4735e-01 1 1  ON 21
eC_2 -4.0496e-01 1 1  ON 22
eC_3 -2.3577e-01 1 1  ON 23
eC_4 -7.8356e-02 1 1  ON 24
eC_5 5.1987e-02 1 1  ON 25
eC_6 1.4011e-01 1 1  ON 26
eC_7 1.9548e-01 1 1  ON 27
eC_8 2.0302e-01 1 1  ON 28
eC_9 1.8849e-01 1 1  ON 29
  </optVariables>
   Restore the number of walkers to 1, removing 0 walkers.
</opt>
</optimization-report>
  QMC Execution time = 2.7752e+00 secs 
  Reusing QMCFixedSampleLinearOptimize
 Using QMCCostFunction::QMCCostFunction

=========================================================
  Start QMCFixedSampleLinearOptimize
  File Root C.log.s020 append = no 
=========================================================
  Skip QMCDriver::putQMCInfo 
  Resetting Properties of the walkers 1 x 13

=========================================================
  Start VMC
  File Root C.log.s020 append = no 
=========================================================
Using existing walkers 
  Resetting Properties of the walkers 1 x 13

<vmc function="put">
  qmc_counter=9  my_counter=19
  time step      = 1.5000e-01
  blocks         = 200
  steps          = 3
  substeps       = 5
  current        = 0
  target samples = 5.1200e+05
  walkers/mpi    = 1

  stepsbetweensamples = 1
<parameter name="blocks" condition="int">200</parameter>
<parameter name="blocks_between_recompute" condition="int">0</parameter>
<parameter name="check_properties" condition="int">100</parameter>
<parameter name="checkproperties" condition="int">100</parameter>
<parameter name="current" condition="int">0</parameter>
<parameter name="dmcwalkersperthread" condition="real">5.0000e+02</parameter>
<parameter name="maxcpusecs" condition="real">3.6000e+05</parameter>
<parameter name="record_configs" condition="int">0</parameter>
<parameter name="record_walkers" condition="int">1</parameter>
<parameter name="recordconfigs" condition="int">0</parameter>
<parameter name="recordwalkers" condition="int">1</parameter>
<parameter name="rewind" condition="int">0</parameter>
<parameter name="samples" condition="real">5.1200e+05</parameter>
<parameter name="samplesperthread" condition="real">5.0000e+02</parameter>
<parameter name="steps" condition="int">3</parameter>
<parameter name="stepsbetweensamples" condition="int">1</parameter>
<parameter name="store_configs" condition="int">0</parameter>
<parameter name="storeconfigs" condition="int">0</parameter>
<parameter name="sub_steps" condition="int">5</parameter>
<parameter name="substeps" condition="int">5</parameter>
<parameter name="tau" condition="au">1.5000e-01</parameter>
<parameter name="time_step" condition="au">1.5000e-01</parameter>
<parameter name="timestep" condition="au">1.5000e-01</parameter>
<parameter name="use_drift" condition="string">no</parameter>
<parameter name="usedrift" condition="string">no</parameter>
<parameter name="walkers" condition="int">1</parameter>
<parameter name="warmup_steps" condition="int">0</parameter>
<parameter name="warmupsteps" condition="int">0</parameter>
  DumpConfig==false Nothing (configurations, state) will be saved.
  Walker Samples are dumped every 1 steps.
</vmc>
  EstimatorManagerBase::add replace LocalEnergy estimator.
  EstimatorManagerBase::add replace LocalEnergy estimator.
<optimization-report>
<vmc stage="main" blocks="200">
  Cannot make clones again. Use existing 1 clones
  Initial partition of walkers 0 1 
  Using Particle by Particle moves
  Walker moves without drift
  Total Sample Size   =512000
  Walker distribution on root = 0 1 
  Using Locality Approximation
===== Memory Usage after the buffer registration =====
Available memory on node 0, free + buffers : 84415 MB
Memory footprint by rank 0 on node 0       : 106 MB
==================================================
====================================================
  SimpleFixedNodeBranch::finalize after a VMC block
    QMC counter        = 20
    time step          = 0.15
    reference energy   = -5.385
    reference variance = 0.0669341
====================================================
  Execution time = 1.7972e+00
</vmc>
<opt stage="setup">
  <log>
   Reading configurations from h5FileRoot C.log.s020
  QMCCostFunction is created with 1 threads.
  Using Nonlocal PP in Opt: NonLocalECP
   Number of samples loaded to each thread : 500 
  VMC Eavg = -5.3962e+00
  VMC Evar = 7.2331e-02
  Total weights = 5.1200e+05
  Execution time = 4.7979e-01
  </log>
</opt>
<opt stage="main" walkers="512000">
  <log>

*****************************************
Building overlap and Hamiltonian matrices
*****************************************

Among totally 30 optimized parameters, largest LM parameter change : 1.0278e-02 at parameter 20

******************************************************************************
Init Cost =  -5.1228e+00    New Cost =  -5.1228e+00  Delta Cost =  -1.0976e-05
******************************************************************************

The new set of parameters is valid. Updating the trial wave function!

*****************************************************************************
Applying the update for shift_i =   1.0000e-02     and shift_s =   3.9062e-03
*****************************************************************************
  Execution time = 2.7548e+00
  </log>
  <optVariables href="C.log.s020.opt.xml">
uu_0 4.6927e-01 1 1  ON 0
uu_1 3.4465e-01 1 1  ON 1
uu_2 2.3942e-01 1 1  ON 2
uu_3 1.5268e-01 1 1  ON 3
uu_4 8.3797e-02 1 1  ON 4
uu_5 3.1120e-02 1 1  ON 5
uu_6 -6.2595e-03 1 1  ON 6
uu_7 -3.0092e-02 1 1  ON 7
uu_8 -3.7806e-02 1 1  ON 8
uu_9 -3.6160e-02 1 1  ON 9
ud_0 8.4994e-01 1 1  ON 10
ud_1 6.0060e-01 1 1  ON 11
ud_2 4.1977e-01 1 1  ON 12
ud_3 2.8876e-01 1 1  ON 13
ud_4 1.8989e-01 1 1  ON 14
ud_5 1.1441e-01 1 1  ON 15
ud_6 5.8011e-02 1 1  ON 16
ud_7 1.7502e-02 1 1  ON 17
ud_8 -5.9725e-03 1 1  ON 18
ud_9 -1.8175e-02 1 1  ON 19
eC_0 -6.2418e-01 1 1  ON 20
eC_1 -5.5721e-01 1 1  ON 21
eC_2 -4.1481e-01 1 1  ON 22
eC_3 -2.4542e-01 1 1  ON 23
eC_4 -8.7102e-02 1 1  ON 24
eC_5 4.4846e-02 1 1  ON 25
eC_6 1.3489e-01 1 1  ON 26
eC_7 1.9204e-01 1 1  ON 27
eC_8 2.0039e-01 1 1  ON 28
eC_9 1.8644e-01 1 1  ON 29
  </optVariables>
   Restore the number of walkers to 1, removing 0 walkers.
</opt>
</optimization-report>
  QMC Execution time = 2.7632e+00 secs 
  Total Execution time = 4.6869e+01 secs

=========================================================
  A new xml input file : C.log.s020.cont.xml
TACC:  Shutdown complete. Exiting. 
