
 Primary working directories    : /global/cscratch1/sd/aannabe
 Secondary working directories  : /global/cscratch1/sd/aannabe
 Wavefunction directory         : /global/homes/a/aannabe/wfu/
 Main file repository           : /global/cscratch1/sd/aannabe/

 SHA1      : 19cd028119e0e09f93f0674bd8af7968d9b3eff6
 NAME      : 2015.1.36
 ARCHNAME  : linux/x86_64
 FC        : /opt/cray/pe/craype/2.5.14/bin/ftn
 BLASLIB   : -L/opt/intel/compilers_and_libraries_2018.1.163/linux/mkl/lib/intel64 -Wl,-_start-group -lmkl_intel_ilp64 -lmkl_intel_thread -lmkl_core -Wl,-_end-group -liomp5
 id        : lbl

 Nodes     nprocs
 nid00457     1

 Using customized tuning parameters: mindgm=7; mindgv=16; mindgc=1; mindgr=1; noblas=0; minvec=7
 default implementation of scratch files=df  

 ***,Ga
 memory,8,g
 gthresh,twoint=1.e-12
 
 gprint,basis,orbitals
 gexpec,ekin,pot
 
 angstrom
 geometry={
 1                                                                               ! Number of atoms
 Ga 0.0 0.0 0.0
 }
 
 basis={
 
 Including file /global/homes/a/aannabe/repos/pseudopotentiallibrary/recipes/Ga/ccECP/Ga.ccECP.molpro
 
                                   !include,/global/homes/a/aannabe/repos/pseudopotentiallibrary/recipes/Ga/ccECP/Ga.cc-pVDZ.molpro
                                  !include,/global/homes/a/aannabe/repos/pseudopotentiallibrary/recipes/Ga/ccECP/Ga.cc-pCVDZ.molpro
 Including file /global/homes/a/aannabe/repos/pseudopotentiallibrary/recipes/Ga/ccECP/Ga.aug-cc-pVDZ.molpro
 
 
 }
 
 {hf
 wf,3,2,1
 occ,1,1,0,0,0,0,0,0
                                                                                 !open,1.2
 closed,1,0,0,0,0,0,0,0
                                                                                 !sym,
 }
 scf(i)=energy
 
 _CC_NORM_MAX=2.0
 {rccsd(t)
 maxit,100
 core
 }
 posthf(i)=energy
 
 table,scf,posthf,ekin,pot
 save,2.csv,new
 
 

 Variables initialized (889), CPU time= 0.00 sec
 Commands  initialized (702), CPU time= 0.01 sec, 572 directives.
 Default parameters read. Elapsed time= 0.13 sec

 Checking input...
 Passed
1


                                         ***  PROGRAM SYSTEM MOLPRO  ***
                                       Copyright, TTI GmbH Stuttgart, 2015
                                    Version 2015.1 linked Dec 29 2018 15:55:43


 **********************************************************************************************************************************
 LABEL *   Ga                                                                            
  64 bit serial version                                                                  DATE: 25-Jun-19          TIME: 12:02:39  
 **********************************************************************************************************************************

 SHA1:             19cd028119e0e09f93f0674bd8af7968d9b3eff6
 **********************************************************************************************************************************

 THRESHOLDS:

 ZERO    =  1.00D-12  ONEINT  =  1.00D-12  TWOINT  =  1.00D-12  PREFAC  =  1.00D-14  LOCALI  =  1.00D-09  EORDER  =  1.00D-04
 ENERGY  =  0.00D+00  ETEST   =  0.00D+00  EDENS   =  0.00D+00  THRDEDEF=  1.00D-06  GRADIENT=  1.00D-02  STEP    =  1.00D-03
 ORBITAL =  1.00D-05  CIVEC   =  1.00D-05  COEFF   =  1.00D-04  PRINTCI =  5.00D-02  PUNCHCI =  9.90D+01  OPTGRAD =  3.00D-04
 OPTENERG=  1.00D-06  OPTSTEP =  3.00D-04  THRGRAD =  1.00D-10  COMPRESS=  1.00D-11  VARMIN  =  1.00D-07  VARMAX  =  1.00D-03
 THRDOUB =  0.00D+00  THRDIV  =  1.00D-05  THRRED  =  1.00D-07  THRPSP  =  1.00D+00  THRDC   =  1.00D-10  THRCS   =  1.00D-10
 THRNRM  =  1.00D-08  THREQ   =  0.00D+00  THRDE   =  1.00D+00  THRREF  =  1.00D-05  SPARFAC =  1.00D+00  THRDLP  =  1.00D-07
 THRDIA  =  1.00D-10  THRDLS  =  1.00D-07  THRGPS  =  0.00D+00  THRKEX  =  0.00D+00  THRDIS  =  2.00D-01  THRVAR  =  1.00D-10
 THRLOC  =  1.00D-06  THRGAP  =  1.00D-06  THRLOCT = -1.00D+00  THRGAPT = -1.00D+00  THRORB  =  1.00D-06  THRMLTP =  0.00D+00
 THRCPQCI=  1.00D-10  KEXTA   =  0.00D+00  THRCOARS=  0.00D+00  SYMTOL  =  1.00D-06  GRADTOL =  1.00D-06  THROVL  =  1.00D-08
 THRORTH =  1.00D-08  GRID    =  1.00D-06  GRIDMAX =  1.00D-03  DTMAX   =  0.00D+00  THROCCDE=  1.00D-01  THROCCDE=  1.00D-01



 ZUNIT=ANG
 

Geometry recognized as XYZ


 Variable memory set to 8000000000 words,  buffer space   230000 words

 SETTING BASIS          =    USERDEF


 Recomputing integrals since basis changed


 Using spherical harmonics



 PROGRAM * SEWARD (Integral evaluation for generally contracted gaussian basis sets)     Author: Roland Lindh, 1990

 Geometry written to block  1 of record 700

 Orientation using atomic masses  
 Molecule type: Atom
 Symmetry elements: X,Y,Z
 Rotational constants:       0.0000000      0.0000000      0.0000000 GHz  (calculated with average atomic masses)

 Point group  D2h 



 ATOMIC COORDINATES

 NR  ATOM    CHARGE       X              Y              Z

   1  GA      3.00    0.000000000    0.000000000    0.000000000


          GA  CORE POTENTIAL

          f POTENTIAL

 POWERS             1              3              2              2
 EXPONENTIALS   17.00474       14.99962       11.99279       14.99282    
 COEFFICIENTS   3.000000       51.01422      -39.00063       35.44659    

          s - f POTENTIAL

 POWERS             2              2
 EXPONENTIALS   1.857811      0.9195059    
 COEFFICIENTS   21.78931      -2.866851    

          p - f POTENTIAL

 POWERS             2              2
 EXPONENTIALS   1.920302       1.008959    
 COEFFICIENTS   18.63986      -1.633697    

          d - f POTENTIAL

 POWERS             2              2
 EXPONENTIALS  0.6275088      0.3261903    
 COEFFICIENTS   2.035237     -8.5323757E-02


 BASIS DATA

   Nr Sym  Nuc  Type         Exponents   Contraction coefficients

    1.1 Ag    1  1s          31.011369    -0.000046
                             13.757663     0.000207
                              6.103352    -0.008282
                              2.707648     0.085722
                              1.201202    -0.350699
                              0.532893     0.004567
                              0.236409     0.452968
                              0.104879     0.558187
                              0.046528     0.163319
    2.1 Ag    1  1s           0.043204     1.000000
    3.1 Ag    1  1s           0.017282     1.000000
    4.1 Ag    1  3d0          0.186277     1.000000
    5.1 Ag    1  3d2+         0.186277     1.000000
    6.1 Ag    1  3d0          0.074511     1.000000
    7.1 Ag    1  3d2+         0.074511     1.000000
    1.2 B3u   1  2px         15.391968    -0.000120
                              6.919798    -0.000202
                              3.110948     0.008853
                              1.398595    -0.073708
                              0.628769     0.028260
                              0.282677     0.221463
                              0.127084     0.413320
                              0.057133     0.385686
                              0.025686     0.112292
    2.2 B3u   1  2px          0.054969     1.000000
    3.2 B3u   1  2px          0.021988     1.000000
    1.3 B2u   1  2py         15.391968    -0.000120
                              6.919798    -0.000202
                              3.110948     0.008853
                              1.398595    -0.073708
                              0.628769     0.028260
                              0.282677     0.221463
                              0.127084     0.413320
                              0.057133     0.385686
                              0.025686     0.112292
    2.3 B2u   1  2py          0.054969     1.000000
    3.3 B2u   1  2py          0.021988     1.000000
    1.4 B1g   1  3d2-         0.186277     1.000000
    2.4 B1g   1  3d2-         0.074511     1.000000
    1.5 B1u   1  2pz         15.391968    -0.000120
                              6.919798    -0.000202
                              3.110948     0.008853
                              1.398595    -0.073708
                              0.628769     0.028260
                              0.282677     0.221463
                              0.127084     0.413320
                              0.057133     0.385686
                              0.025686     0.112292
    2.5 B1u   1  2pz          0.054969     1.000000
    3.5 B1u   1  2pz          0.021988     1.000000
    1.6 B2g   1  3d1+         0.186277     1.000000
    2.6 B2g   1  3d1+         0.074511     1.000000
    1.7 B3g   1  3d1-         0.186277     1.000000
    2.7 B3g   1  3d1-         0.074511     1.000000

 NUCLEAR CHARGE:                    3
 NUMBER OF PRIMITIVE AOS:          56
 NUMBER OF SYMMETRY AOS:           54
 NUMBER OF CONTRACTIONS:           22   (   7Ag  +   3B3u +   3B2u +   2B1g +   3B1u +   2B2g +   2B3g +   0Au  )
 NUMBER OF CORE ORBITALS:           0   (   0Ag  +   0B3u +   0B2u +   0B1g +   0B1u +   0B2g +   0B3g +   0Au  )
 NUMBER OF VALENCE ORBITALS:        4   (   1Ag  +   1B3u +   1B2u +   0B1g +   1B1u +   0B2g +   0B3g +   0Au  )


 NUCLEAR REPULSION ENERGY    0.00000000

 EXTRA SYMMETRY OF AOS IN SYMMETRY 1:   1 1 1 2 3 2 3

 Eigenvalues of metric

         1 0.444E-01 0.299E+00 0.299E+00 0.411E+00 0.170E+01 0.170E+01 0.255E+01
         2 0.548E-01 0.395E+00 0.255E+01
         3 0.548E-01 0.395E+00 0.255E+01
         4 0.299E+00 0.170E+01
         5 0.548E-01 0.395E+00 0.255E+01
         6 0.299E+00 0.170E+01
         7 0.299E+00 0.170E+01


 Contracted 2-electron integrals neglected if value below      1.0D-12
 AO integral compression algorithm  1   Integral accuracy      1.0D-12

     0.262 MB (compressed) written to integral file (100.0%)


 NUMBER OF SORTED TWO-ELECTRON INTEGRALS:       5272.     BUFFER LENGTH:  32768
 NUMBER OF SEGMENTS:   1  SEGMENT LENGTH:       5272      RECORD LENGTH: 524288

 Memory used in sort:       0.56 MW

 SORT1 READ       12220. AND WROTE        4734. INTEGRALS IN      1 RECORDS. CPU TIME:     0.00 SEC, REAL TIME:     0.01 SEC
 SORT2 READ        4734. AND WROTE        5272. INTEGRALS IN      1 RECORDS. CPU TIME:     0.00 SEC, REAL TIME:     0.00 SEC

 FILE SIZES:   FILE 1:    20.1 MBYTE,  FILE 4:     4.2 MBYTE,   TOTAL:     24.4 MBYTE

 OPERATOR DM      FOR CENTER  0  COORDINATES:    0.000000    0.000000    0.000000
 OPERATOR EKIN    FOR CENTER  0  COORDINATES:    0.000000    0.000000    0.000000
 OPERATOR POT     FOR CENTER  0  COORDINATES:    0.000000    0.000000    0.000000


 **********************************************************************************************************************************
 DATASETS  * FILE   NREC   LENGTH (MB)   RECORD NAMES
              1      20       19.92       500      610      700      900      950      970     1000      129      960     1100   
                                          VAR    BASINP    GEOM    SYMINP    ZMAT    AOBASIS   BASIS     P2S    ABASIS      S 
                                         1400     1410     1420     1200     1210     1080     1600     1650     1300     1700   
                                         EKIN       V       ECP      H0       H01     AOSYM     SMH    MOLCAS    ERIS     OPER   

 PROGRAMS   *        TOTAL       INT
 CPU TIMES  *         2.15      2.00
 REAL TIME  *        16.84 SEC
 DISK USED  *        24.63 MB      
 **********************************************************************************************************************************


 PROGRAM * RHF-SCF (OPEN SHELL)       Authors: W. Meyer, H.-J. Werner


 NUMBER OF ELECTRONS:       2+    1-    SPACE SYMMETRY=2    SPIN SYMMETRY: Doublet 
 CONVERGENCE THRESHOLDS:    1.00E-05 (Density)    1.00E-07 (Energy)
 MAX. NUMBER OF ITERATIONS:       60
 INTERPOLATION TYPE:            DIIS
 INTERPOLATION STEPS:              2 (START)      1 (STEP)
 LEVEL SHIFTS:                 -0.60 (CLOSED) -0.30 (OPEN) 

 Number of closed-shell orbitals:    1 (   1   0   0   0   0   0   0 )
 Number of open-shell orbitals:      1 (   0   1   0   0   0   0   0 )



   Atom=GA basis=ECP28MWB_GUESS    lmin=0  lmax=1

 Orbital guess generated from atomic densities. Full valence occupancy:    1   1   1   0   1   0   0   0


 Molecular orbital dump at record        2100.2

 ITERATION    DDIFF          GRAD             ENERGY        2-EL.EN.            DIPOLE MOMENTS         DIIS   ORB.
    1      0.000D+00      0.000D+00        -1.96793065      1.654220    0.00000    0.00000    0.00000    0    start
    2      0.000D+00      0.928D-02        -1.97510335      1.708980    0.00000    0.00000    0.00000    1    diag,B
    3      0.238D-01      0.653D-02        -1.98222421      1.785108    0.00000    0.00000    0.00000    2    diag,B
    4      0.361D-01      0.337D-02        -1.98420023      1.826685    0.00000    0.00000    0.00000    3    diag,B
    5      0.306D-01      0.458D-03        -1.98420807      1.825300    0.00000    0.00000    0.00000    4    diag,B
    6      0.161D-02      0.203D-03        -1.98421004      1.825876    0.00000    0.00000    0.00000    5    diag,B
    7      0.114D-02      0.176D-04        -1.98421007      1.825778    0.00000    0.00000    0.00000    6    fixocc
    8      0.129D-03      0.118D-04        -1.98421008      1.825763    0.00000    0.00000    0.00000    7    diag,B
    9      0.659D-04      0.130D-05        -1.98421008      1.825761    0.00000    0.00000    0.00000    8    diag,B
   10      0.645D-05      0.474D-06        -1.98421008      1.825761    0.00000    0.00000    0.00000    0    orth

 Final alpha occupancy:   1   1   0   0   0   0   0
 Final beta  occupancy:   1   0   0   0   0   0   0

 !RHF STATE 1.2 Energy                 -1.984210076625
 Nuclear energy                         0.00000000
 One-electron energy                   -2.89709038
 Two-electron energy                    0.91288030
 Virial quotient                       -2.76802181
 !RHF STATE 1.2 Dipole moment           0.00000000     0.00000000     0.00000000
 Dipole moment /Debye                   0.00000000     0.00000000     0.00000000
 

 !RHF expec          <1.2|EKIN|1.2>     0.716833251767
 
 !RHF expec           <1.2|POT|1.2>    -1.287614653996

 ELECTRON ORBITALS
 =================


   Orb  Occ    Energy  Couls-En    Coefficients

                                   1 1s      1 1s      1 1s      1 3d0     1 3d2+    1 3d0     1 3d2+ 

   1.1   2    -0.4319   -1.5039  1.000297 -0.000788  0.000566  0.001098 -0.001902 -0.005554  0.009620

                                   1 2px     1 2px     1 2px  

   1.2   +    -0.2076   -0.9605  0.999627  0.000381  0.000037

 HOMO      1.2    -0.207614 =      -5.6495eV
 LUMO      1.3     0.012393 =       0.3372eV
 LUMO-HOMO         0.220007 =       5.9867eV


 **********************************************************************************************************************************
 DATASETS  * FILE   NREC   LENGTH (MB)   RECORD NAMES
              1      20       19.92       500      610      700      900      950      970     1000      129      960     1100   
                                          VAR    BASINP    GEOM    SYMINP    ZMAT    AOBASIS   BASIS     P2S    ABASIS      S 
                                         1400     1410     1420     1200     1210     1080     1600     1650     1300     1700   
                                         EKIN       V       ECP      H0       H01     AOSYM     SMH    MOLCAS    ERIS     OPER   

              2       4        2.75       700     1000      520     2100   
                                         GEOM     BASIS   MCVARS     RHF  

 PROGRAMS   *        TOTAL        HF       INT
 CPU TIMES  *         2.20      0.05      2.00
 REAL TIME  *        17.22 SEC
 DISK USED  *        24.63 MB      
 **********************************************************************************************************************************
 SETTING SCF(I)         =        -1.98421008  AU                              
 SETTING _CC_NORM_MAX   =         2.00000000                                  


 PROGRAM * CCSD (Restricted open-shell coupled cluster)     Authors: C. Hampel, H.-J. Werner, 1991, M. Deegan, P.J. Knowles, 1992


 Convergence thresholds:  THRVAR = 1.00D-08  THRDEN = 1.00D-06

 CCSD(T)     terms to be evaluated (factor= 1.000)


 Number of closed-shell orbitals:   1 (   1   0   0   0   0   0   0 )
 Number of active  orbitals:        1 (   0   1   0   0   0   0   0 )
 Number of external orbitals:      20 (   6   2   3   2   3   2   2 )

 Memory could be reduced to 0.30 Mwords without degradation in triples

 Number of N-1 electron functions:               3
 Number of N-2 electron functions:               3
 Number of singly external CSFs:                15
 Number of doubly external CSFs:               165
 Total number of CSFs:                         180

 Molecular orbitals read from record     2100.2  Type=RHF/CANONICAL (state 1.2)

 Integral transformation finished. Total CPU:   0.00 sec, npass=  1  Memory used:   0.07 MW

 Starting RMP2 calculation

 Wavefunction is spin-projected

 ITER.      SQ.NORM     CORR.ENERGY   TOTAL ENERGY   ENERGY CHANGE        DEN1      VAR(S)    VAR(P)  DIIS     TIME
   1      1.02664435    -0.03207954    -2.01628961    -0.03207954    -0.00051075  0.29D-04  0.38D-03  1  1     0.01
   2      1.02775251    -0.03267342    -2.01688350    -0.00059389    -0.00000080  0.37D-07  0.60D-06  2  2     0.01
   3      1.02777318    -0.03267945    -2.01688952    -0.00000602    -0.00000000  0.95D-10  0.97D-09  3  3     0.01
   4      1.02777337    -0.03267947    -2.01688955    -0.00000003    -0.00000000  0.59D-12  0.26D-11  4  4     0.01

 Norm of t1 vector:      0.03888200      S-energy:    -0.00150691      T1 diagnostic:  0.00010786
 Norm of t2 vector:      0.16205419      P-energy:    -0.03117256
                                         Alpha-Beta:  -0.02892874
                                         Alpha-Alpha: -0.00224382
                                         Beta-Beta:    0.00000000

 Spin contamination <S**2-Sz**2-Sz>     0.00000000
  Reference energy                     -1.984210076625
  RHF-RMP2 correlation energy          -0.032679473549
 !RHF-RMP2 energy                      -2.016889550174
 (NB above energy spin projected)

 Starting RCCSD calculation

 ITER.      SQ.NORM     CORR.ENERGY   TOTAL ENERGY   ENERGY CHANGE        DEN1      VAR(S)    VAR(P)  DIIS     TIME
   1      1.04095398    -0.03936720    -2.02357728    -0.03936720    -0.00464726  0.33D-03  0.33D-02  1  1     0.01
   2      1.05933806    -0.04638138    -2.03059146    -0.00701418    -0.00021350  0.36D-04  0.13D-03  2  2     0.01
   3      1.06261801    -0.04704991    -2.03125999    -0.00066853    -0.00000992  0.21D-05  0.68D-05  3  3     0.01
   4      1.06364316    -0.04730702    -2.03151710    -0.00025711    -0.00000042  0.18D-06  0.24D-06  4  4     0.01
   5      1.06333467    -0.04719950    -2.03140958     0.00010752    -0.00000004  0.34D-07  0.14D-07  5  5     0.01
   6      1.06351326    -0.04725611    -2.03146619    -0.00005661    -0.00000001  0.70D-08  0.14D-08  6  6     0.01
   7      1.06346556    -0.04723996    -2.03145004     0.00001615    -0.00000000  0.55D-09  0.13D-09  6  1     0.01
   8      1.06346852    -0.04724061    -2.03145069    -0.00000065    -0.00000000  0.93D-10  0.27D-10  6  2     0.01

 Norm of t1 vector:      0.06135017      S-energy:    -0.00212859      T1 diagnostic:  0.01097107
                                                                       D1 diagnostic:  0.01596217
 Norm of t2 vector:      0.24434540      P-energy:    -0.04511203
                                         Alpha-Beta:  -0.04261857
                                         Alpha-Alpha: -0.00249345
                                         Beta-Beta:    0.00000000

 Doubles amplitudes (print threshold =  0.500E-01):

         I         J         SYM. A    SYM. B    A         B      T(IJ, AB) [Alpha-Beta]

         1         1         3         3         1         1     -0.06200259
         1         1         3         3         1         2      0.05018811
         1         1         3         3         2         1      0.05018811
         1         1         5         5         1         1     -0.06200259
         1         1         5         5         1         2      0.05018811
         1         1         5         5         2         1      0.05018811
         2         1         1         2         2         1     -0.06189822

 Spin contamination <S**2-Sz**2-Sz>     0.00000000

 Memory could be reduced to 0.30 Mwords without degradation in triples
 

 RESULTS
 =======

  Reference energy                     -1.984210076625
  RCCSD singles energy                 -0.002128585769
  RCCSD pair energy                    -0.045112027694
  RCCSD correlation energy             -0.047240613463
  Triples (T) contribution             -0.000700275773
  Total correlation energy             -0.047940889236
 
  RHF-RCCSD energy                     -2.031450690089
  RHF-RCCSD[T] energy                  -2.032111297702
  RHF-RCCSD-T energy                   -2.032155269563
 !RHF-RCCSD(T) energy                  -2.032150965861

 Program statistics:

 Available memory in ccsd:              7999999848
 Min. memory needed in ccsd:                  2925
 Max. memory used in ccsd:                    2972
 Max. memory used in cckext:                 35027 ( 8 integral passes)
 Max. memory used in cckint:                 67196 ( 1 integral passes)



 **********************************************************************************************************************************
 DATASETS  * FILE   NREC   LENGTH (MB)   RECORD NAMES
              1      20       19.92       500      610      700      900      950      970     1000      129      960     1100   
                                          VAR    BASINP    GEOM    SYMINP    ZMAT    AOBASIS   BASIS     P2S    ABASIS      S 
                                         1400     1410     1420     1200     1210     1080     1600     1650     1300     1700   
                                         EKIN       V       ECP      H0       H01     AOSYM     SMH    MOLCAS    ERIS     OPER   

              2       4        2.75       700     1000      520     2100   
                                         GEOM     BASIS   MCVARS     RHF  

 PROGRAMS   *        TOTAL  RCCSD(T)        HF       INT
 CPU TIMES  *         2.24      0.03      0.05      2.00
 REAL TIME  *        18.13 SEC
 DISK USED  *        24.63 MB      
 **********************************************************************************************************************************
 SETTING POSTHF(I)      =        -2.03215097  AU                              
                                                                                                                                                                                                                                                                

       SCF           POSTHF       EKIN          POT
    -1.98421008   -2.03215097   0.71683325   -1.28761465
                                                  

 RCCSD(T)/USERDEF energy=     -2.032150965861

        RCCSD(T)        HF-SCF  
     -2.03215097     -1.98421008
 **********************************************************************************************************************************
 Molpro calculation terminated
 Variable memory released
