
 Primary working directories    : /global/cscratch1/sd/aannabe
 Secondary working directories  : /global/cscratch1/sd/aannabe
 Wavefunction directory         : /global/homes/a/aannabe/wfu/
 Main file repository           : /global/cscratch1/sd/aannabe/

 SHA1      : 19cd028119e0e09f93f0674bd8af7968d9b3eff6
 NAME      : 2015.1.36
 ARCHNAME  : linux/x86_64
 FC        : /opt/cray/pe/craype/2.5.14/bin/ftn
 BLASLIB   : -L/opt/intel/compilers_and_libraries_2018.1.163/linux/mkl/lib/intel64 -Wl,-_start-group -lmkl_intel_ilp64 -lmkl_intel_thread -lmkl_core -Wl,-_end-group -liomp5
 id        : lbl

 Nodes     nprocs
 nid00457     1

 Using customized tuning parameters: mindgm=7; mindgv=16; mindgc=1; mindgr=1; noblas=0; minvec=7
 default implementation of scratch files=df  

 ***,Ga
 memory,8,g
 gthresh,twoint=1.e-12
 
 gprint,basis,orbitals
 gexpec,ekin,pot
 
 angstrom
 geometry={
 1                                                                               ! Number of atoms
 Ga 0.0 0.0 0.0
 }
 
 basis={
 
 Including file /global/homes/a/aannabe/repos/pseudopotentiallibrary/recipes/Ga/ccECP/Ga.ccECP.molpro
 
                                   !include,/global/homes/a/aannabe/repos/pseudopotentiallibrary/recipes/Ga/ccECP/Ga.cc-pV6Z.molpro
                                  !include,/global/homes/a/aannabe/repos/pseudopotentiallibrary/recipes/Ga/ccECP/Ga.cc-pCV6Z.molpro
 Including file /global/homes/a/aannabe/repos/pseudopotentiallibrary/recipes/Ga/ccECP/Ga.aug-cc-pV6Z.molpro
 
 
 }
 
 {hf
 wf,3,2,1
 occ,1,1,0,0,0,0,0,0
                                                                                 !open,1.2
 closed,1,0,0,0,0,0,0,0
                                                                                 !sym,
 }
 scf(i)=energy
 
 _CC_NORM_MAX=2.0
 {rccsd(t)
 maxit,100
 core
 }
 posthf(i)=energy
 
 table,scf,posthf,ekin,pot
 save,6.csv,new
 
 

 Variables initialized (889), CPU time= 0.01 sec
 Commands  initialized (702), CPU time= 0.00 sec, 572 directives.
 Default parameters read. Elapsed time= 0.13 sec

 Checking input...
 Passed
1


                                         ***  PROGRAM SYSTEM MOLPRO  ***
                                       Copyright, TTI GmbH Stuttgart, 2015
                                    Version 2015.1 linked Dec 29 2018 15:55:43


 **********************************************************************************************************************************
 LABEL *   Ga                                                                            
  64 bit serial version                                                                  DATE: 25-Jun-19          TIME: 12:04:43  
 **********************************************************************************************************************************

 SHA1:             19cd028119e0e09f93f0674bd8af7968d9b3eff6
 **********************************************************************************************************************************

 THRESHOLDS:

 ZERO    =  1.00D-12  ONEINT  =  1.00D-12  TWOINT  =  1.00D-12  PREFAC  =  1.00D-14  LOCALI  =  1.00D-09  EORDER  =  1.00D-04
 ENERGY  =  0.00D+00  ETEST   =  0.00D+00  EDENS   =  0.00D+00  THRDEDEF=  1.00D-06  GRADIENT=  1.00D-02  STEP    =  1.00D-03
 ORBITAL =  1.00D-05  CIVEC   =  1.00D-05  COEFF   =  1.00D-04  PRINTCI =  5.00D-02  PUNCHCI =  9.90D+01  OPTGRAD =  3.00D-04
 OPTENERG=  1.00D-06  OPTSTEP =  3.00D-04  THRGRAD =  1.00D-10  COMPRESS=  1.00D-11  VARMIN  =  1.00D-07  VARMAX  =  1.00D-03
 THRDOUB =  0.00D+00  THRDIV  =  1.00D-05  THRRED  =  1.00D-07  THRPSP  =  1.00D+00  THRDC   =  1.00D-10  THRCS   =  1.00D-10
 THRNRM  =  1.00D-08  THREQ   =  0.00D+00  THRDE   =  1.00D+00  THRREF  =  1.00D-05  SPARFAC =  1.00D+00  THRDLP  =  1.00D-07
 THRDIA  =  1.00D-10  THRDLS  =  1.00D-07  THRGPS  =  0.00D+00  THRKEX  =  0.00D+00  THRDIS  =  2.00D-01  THRVAR  =  1.00D-10
 THRLOC  =  1.00D-06  THRGAP  =  1.00D-06  THRLOCT = -1.00D+00  THRGAPT = -1.00D+00  THRORB  =  1.00D-06  THRMLTP =  0.00D+00
 THRCPQCI=  1.00D-10  KEXTA   =  0.00D+00  THRCOARS=  0.00D+00  SYMTOL  =  1.00D-06  GRADTOL =  1.00D-06  THROVL  =  1.00D-08
 THRORTH =  1.00D-08  GRID    =  1.00D-06  GRIDMAX =  1.00D-03  DTMAX   =  0.00D+00  THROCCDE=  1.00D-01  THROCCDE=  1.00D-01



 ZUNIT=ANG
 

Geometry recognized as XYZ


 Variable memory set to 8000000000 words,  buffer space   230000 words

 SETTING BASIS          =    USERDEF


 Recomputing integrals since basis changed


 Using spherical harmonics



 PROGRAM * SEWARD (Integral evaluation for generally contracted gaussian basis sets)     Author: Roland Lindh, 1990

 Geometry written to block  1 of record 700

 Orientation using atomic masses  
 Molecule type: Atom
 Symmetry elements: X,Y,Z
 Rotational constants:       0.0000000      0.0000000      0.0000000 GHz  (calculated with average atomic masses)

 Point group  D2h 



 ATOMIC COORDINATES

 NR  ATOM    CHARGE       X              Y              Z

   1  GA      3.00    0.000000000    0.000000000    0.000000000


          GA  CORE POTENTIAL

          f POTENTIAL

 POWERS             1              3              2              2
 EXPONENTIALS   17.00474       14.99962       11.99279       14.99282    
 COEFFICIENTS   3.000000       51.01422      -39.00063       35.44659    

          s - f POTENTIAL

 POWERS             2              2
 EXPONENTIALS   1.857811      0.9195059    
 COEFFICIENTS   21.78931      -2.866851    

          p - f POTENTIAL

 POWERS             2              2
 EXPONENTIALS   1.920302       1.008959    
 COEFFICIENTS   18.63986      -1.633697    

          d - f POTENTIAL

 POWERS             2              2
 EXPONENTIALS  0.6275088      0.3261903    
 COEFFICIENTS   2.035237     -8.5323757E-02


 BASIS DATA

   Nr Sym  Nuc  Type         Exponents   Contraction coefficients

    1.1 Ag    1  1s          31.011369    -0.000046
                             13.757663     0.000207
                              6.103352    -0.008282
                              2.707648     0.085722
                              1.201202    -0.350699
                              0.532893     0.004567
                              0.236409     0.452968
                              0.104879     0.558187
                              0.046528     0.163319
    2.1 Ag    1  1s           1.209705     1.000000
    3.1 Ag    1  1s           0.548033     1.000000
    4.1 Ag    1  1s           0.248275     1.000000
    5.1 Ag    1  1s           0.112476     1.000000
    6.1 Ag    1  1s           0.050955     1.000000
    7.1 Ag    1  1s           0.020382     1.000000
    8.1 Ag    1  3d0          1.099247     1.000000
    9.1 Ag    1  3d2+         1.099247     1.000000
   10.1 Ag    1  3d0          0.542908     1.000000
   11.1 Ag    1  3d2+         0.542908     1.000000
   12.1 Ag    1  3d0          0.268137     1.000000
   13.1 Ag    1  3d2+         0.268137     1.000000
   14.1 Ag    1  3d0          0.132430     1.000000
   15.1 Ag    1  3d2+         0.132430     1.000000
   16.1 Ag    1  3d0          0.065406     1.000000
   17.1 Ag    1  3d2+         0.065406     1.000000
   18.1 Ag    1  3d0          0.026162     1.000000
   19.1 Ag    1  3d2+         0.026162     1.000000
   20.1 Ag    1  5g0          0.707451     1.000000
   21.1 Ag    1  5g4+         0.707451     1.000000
   22.1 Ag    1  5g2+         0.707451     1.000000
   23.1 Ag    1  5g0          0.405193     1.000000
   24.1 Ag    1  5g4+         0.405193     1.000000
   25.1 Ag    1  5g2+         0.405193     1.000000
   26.1 Ag    1  5g0          0.232074     1.000000
   27.1 Ag    1  5g4+         0.232074     1.000000
   28.1 Ag    1  5g2+         0.232074     1.000000
   29.1 Ag    1  5g0          0.092830     1.000000
   30.1 Ag    1  5g4+         0.092830     1.000000
   31.1 Ag    1  5g2+         0.092830     1.000000
   32.1 Ag    1  7i6+         0.651434     1.000000
   33.1 Ag    1  7i4+         0.651434     1.000000
   34.1 Ag    1  7i2+         0.651434     1.000000
   35.1 Ag    1  7i0          0.651434     1.000000
   36.1 Ag    1  7i6+         0.260574     1.000000
   37.1 Ag    1  7i4+         0.260574     1.000000
   38.1 Ag    1  7i2+         0.260574     1.000000
   39.1 Ag    1  7i0          0.260574     1.000000
    1.2 B3u   1  2px         15.391968    -0.000120
                              6.919798    -0.000202
                              3.110948     0.008853
                              1.398595    -0.073708
                              0.628769     0.028260
                              0.282677     0.221463
                              0.127084     0.413320
                              0.057133     0.385686
                              0.025686     0.112292
    2.2 B3u   1  2px          0.786858     1.000000
    3.2 B3u   1  2px          0.347047     1.000000
    4.2 B3u   1  2px          0.153067     1.000000
    5.2 B3u   1  2px          0.067511     1.000000
    6.2 B3u   1  2px          0.029776     1.000000
    7.2 B3u   1  2px          0.011910     1.000000
    8.2 B3u   1  4f1+         0.721935     1.000000
    9.2 B3u   1  4f3+         0.721935     1.000000
   10.2 B3u   1  4f1+         0.400373     1.000000
   11.2 B3u   1  4f3+         0.400373     1.000000
   12.2 B3u   1  4f1+         0.222041     1.000000
   13.2 B3u   1  4f3+         0.222041     1.000000
   14.2 B3u   1  4f1+         0.123140     1.000000
   15.2 B3u   1  4f3+         0.123140     1.000000
   16.2 B3u   1  4f1+         0.049256     1.000000
   17.2 B3u   1  4f3+         0.049256     1.000000
   18.2 B3u   1  6h1+         0.653822     1.000000
   19.2 B3u   1  6h3+         0.653822     1.000000
   20.2 B3u   1  6h5+         0.653822     1.000000
   21.2 B3u   1  6h1+         0.366953     1.000000
   22.2 B3u   1  6h3+         0.366953     1.000000
   23.2 B3u   1  6h5+         0.366953     1.000000
   24.2 B3u   1  6h1+         0.146781     1.000000
   25.2 B3u   1  6h3+         0.146781     1.000000
   26.2 B3u   1  6h5+         0.146781     1.000000
    1.3 B2u   1  2py         15.391968    -0.000120
                              6.919798    -0.000202
                              3.110948     0.008853
                              1.398595    -0.073708
                              0.628769     0.028260
                              0.282677     0.221463
                              0.127084     0.413320
                              0.057133     0.385686
                              0.025686     0.112292
    2.3 B2u   1  2py          0.786858     1.000000
    3.3 B2u   1  2py          0.347047     1.000000
    4.3 B2u   1  2py          0.153067     1.000000
    5.3 B2u   1  2py          0.067511     1.000000
    6.3 B2u   1  2py          0.029776     1.000000
    7.3 B2u   1  2py          0.011910     1.000000
    8.3 B2u   1  4f1-         0.721935     1.000000
    9.3 B2u   1  4f3-         0.721935     1.000000
   10.3 B2u   1  4f1-         0.400373     1.000000
   11.3 B2u   1  4f3-         0.400373     1.000000
   12.3 B2u   1  4f1-         0.222041     1.000000
   13.3 B2u   1  4f3-         0.222041     1.000000
   14.3 B2u   1  4f1-         0.123140     1.000000
   15.3 B2u   1  4f3-         0.123140     1.000000
   16.3 B2u   1  4f1-         0.049256     1.000000
   17.3 B2u   1  4f3-         0.049256     1.000000
   18.3 B2u   1  6h1-         0.653822     1.000000
   19.3 B2u   1  6h3-         0.653822     1.000000
   20.3 B2u   1  6h5-         0.653822     1.000000
   21.3 B2u   1  6h1-         0.366953     1.000000
   22.3 B2u   1  6h3-         0.366953     1.000000
   23.3 B2u   1  6h5-         0.366953     1.000000
   24.3 B2u   1  6h1-         0.146781     1.000000
   25.3 B2u   1  6h3-         0.146781     1.000000
   26.3 B2u   1  6h5-         0.146781     1.000000
    1.4 B1g   1  3d2-         1.099247     1.000000
    2.4 B1g   1  3d2-         0.542908     1.000000
    3.4 B1g   1  3d2-         0.268137     1.000000
    4.4 B1g   1  3d2-         0.132430     1.000000
    5.4 B1g   1  3d2-         0.065406     1.000000
    6.4 B1g   1  3d2-         0.026162     1.000000
    7.4 B1g   1  5g2-         0.707451     1.000000
    8.4 B1g   1  5g4-         0.707451     1.000000
    9.4 B1g   1  5g2-         0.405193     1.000000
   10.4 B1g   1  5g4-         0.405193     1.000000
   11.4 B1g   1  5g2-         0.232074     1.000000
   12.4 B1g   1  5g4-         0.232074     1.000000
   13.4 B1g   1  5g2-         0.092830     1.000000
   14.4 B1g   1  5g4-         0.092830     1.000000
   15.4 B1g   1  7i2-         0.651434     1.000000
   16.4 B1g   1  7i6-         0.651434     1.000000
   17.4 B1g   1  7i4-         0.651434     1.000000
   18.4 B1g   1  7i2-         0.260574     1.000000
   19.4 B1g   1  7i6-         0.260574     1.000000
   20.4 B1g   1  7i4-         0.260574     1.000000
    1.5 B1u   1  2pz         15.391968    -0.000120
                              6.919798    -0.000202
                              3.110948     0.008853
                              1.398595    -0.073708
                              0.628769     0.028260
                              0.282677     0.221463
                              0.127084     0.413320
                              0.057133     0.385686
                              0.025686     0.112292
    2.5 B1u   1  2pz          0.786858     1.000000
    3.5 B1u   1  2pz          0.347047     1.000000
    4.5 B1u   1  2pz          0.153067     1.000000
    5.5 B1u   1  2pz          0.067511     1.000000
    6.5 B1u   1  2pz          0.029776     1.000000
    7.5 B1u   1  2pz          0.011910     1.000000
    8.5 B1u   1  4f0          0.721935     1.000000
    9.5 B1u   1  4f2+         0.721935     1.000000
   10.5 B1u   1  4f0          0.400373     1.000000
   11.5 B1u   1  4f2+         0.400373     1.000000
   12.5 B1u   1  4f0          0.222041     1.000000
   13.5 B1u   1  4f2+         0.222041     1.000000
   14.5 B1u   1  4f0          0.123140     1.000000
   15.5 B1u   1  4f2+         0.123140     1.000000
   16.5 B1u   1  4f0          0.049256     1.000000
   17.5 B1u   1  4f2+         0.049256     1.000000
   18.5 B1u   1  6h2+         0.653822     1.000000
   19.5 B1u   1  6h4+         0.653822     1.000000
   20.5 B1u   1  6h0          0.653822     1.000000
   21.5 B1u   1  6h2+         0.366953     1.000000
   22.5 B1u   1  6h4+         0.366953     1.000000
   23.5 B1u   1  6h0          0.366953     1.000000
   24.5 B1u   1  6h2+         0.146781     1.000000
   25.5 B1u   1  6h4+         0.146781     1.000000
   26.5 B1u   1  6h0          0.146781     1.000000
    1.6 B2g   1  3d1+         1.099247     1.000000
    2.6 B2g   1  3d1+         0.542908     1.000000
    3.6 B2g   1  3d1+         0.268137     1.000000
    4.6 B2g   1  3d1+         0.132430     1.000000
    5.6 B2g   1  3d1+         0.065406     1.000000
    6.6 B2g   1  3d1+         0.026162     1.000000
    7.6 B2g   1  5g1+         0.707451     1.000000
    8.6 B2g   1  5g3+         0.707451     1.000000
    9.6 B2g   1  5g1+         0.405193     1.000000
   10.6 B2g   1  5g3+         0.405193     1.000000
   11.6 B2g   1  5g1+         0.232074     1.000000
   12.6 B2g   1  5g3+         0.232074     1.000000
   13.6 B2g   1  5g1+         0.092830     1.000000
   14.6 B2g   1  5g3+         0.092830     1.000000
   15.6 B2g   1  7i5+         0.651434     1.000000
   16.6 B2g   1  7i3+         0.651434     1.000000
   17.6 B2g   1  7i1+         0.651434     1.000000
   18.6 B2g   1  7i5+         0.260574     1.000000
   19.6 B2g   1  7i3+         0.260574     1.000000
   20.6 B2g   1  7i1+         0.260574     1.000000
    1.7 B3g   1  3d1-         1.099247     1.000000
    2.7 B3g   1  3d1-         0.542908     1.000000
    3.7 B3g   1  3d1-         0.268137     1.000000
    4.7 B3g   1  3d1-         0.132430     1.000000
    5.7 B3g   1  3d1-         0.065406     1.000000
    6.7 B3g   1  3d1-         0.026162     1.000000
    7.7 B3g   1  5g1-         0.707451     1.000000
    8.7 B3g   1  5g3-         0.707451     1.000000
    9.7 B3g   1  5g1-         0.405193     1.000000
   10.7 B3g   1  5g3-         0.405193     1.000000
   11.7 B3g   1  5g1-         0.232074     1.000000
   12.7 B3g   1  5g3-         0.232074     1.000000
   13.7 B3g   1  5g1-         0.092830     1.000000
   14.7 B3g   1  5g3-         0.092830     1.000000
   15.7 B3g   1  7i5-         0.651434     1.000000
   16.7 B3g   1  7i3-         0.651434     1.000000
   17.7 B3g   1  7i1-         0.651434     1.000000
   18.7 B3g   1  7i5-         0.260574     1.000000
   19.7 B3g   1  7i3-         0.260574     1.000000
   20.7 B3g   1  7i1-         0.260574     1.000000
    1.8 Au    1  4f2-         0.721935     1.000000
    2.8 Au    1  4f2-         0.400373     1.000000
    3.8 Au    1  4f2-         0.222041     1.000000
    4.8 Au    1  4f2-         0.123140     1.000000
    5.8 Au    1  4f2-         0.049256     1.000000
    6.8 Au    1  6h4-         0.653822     1.000000
    7.8 Au    1  6h2-         0.653822     1.000000
    8.8 Au    1  6h4-         0.366953     1.000000
    9.8 Au    1  6h2-         0.366953     1.000000
   10.8 Au    1  6h4-         0.146781     1.000000
   11.8 Au    1  6h2-         0.146781     1.000000

 NUCLEAR CHARGE:                    3
 NUMBER OF PRIMITIVE AOS:         325
 NUMBER OF SYMMETRY AOS:          220
 NUMBER OF CONTRACTIONS:          188   (  39Ag  +  26B3u +  26B2u +  20B1g +  26B1u +  20B2g +  20B3g +  11Au  )
 NUMBER OF CORE ORBITALS:           0   (   0Ag  +   0B3u +   0B2u +   0B1g +   0B1u +   0B2g +   0B3g +   0Au  )
 NUMBER OF VALENCE ORBITALS:        4   (   1Ag  +   1B3u +   1B2u +   0B1g +   1B1u +   0B2g +   0B3g +   0Au  )


 NUCLEAR REPULSION ENERGY    0.00000000

 EXTRA SYMMETRY OF AOS IN SYMMETRY 1:   1 1 1 1 1 1 1 2 3 2   3 2 3 2 3 2 3 2 3 4   5 6 4 5 6 4 5 6 4 5   6 7 8 910 7 8 910
 EXTRA SYMMETRY OF AOS IN SYMMETRY 2:   1 1 1 1 1 1 1 2 3 2   3 2 3 2 3 2 3 4 5 6   4 5 6 4 5 6
 EXTRA SYMMETRY OF AOS IN SYMMETRY 3:   1 1 1 1 1 1 1 2 3 2   3 2 3 2 3 2 3 4 5 6   4 5 6 4 5 6
 EXTRA SYMMETRY OF AOS IN SYMMETRY 4:   1 1 1 1 1 1 2 3 2 3   2 3 2 3 4 5 6 4 5 6
 EXTRA SYMMETRY OF AOS IN SYMMETRY 5:   1 1 1 1 1 1 1 2 3 2   3 2 3 2 3 2 3 4 5 6   4 5 6 4 5 6
 EXTRA SYMMETRY OF AOS IN SYMMETRY 6:   1 1 1 1 1 1 2 3 2 3   2 3 2 3 4 5 6 4 5 6
 EXTRA SYMMETRY OF AOS IN SYMMETRY 7:   1 1 1 1 1 1 2 3 2 3   2 3 2 3 4 5 6 4 5 6
 EXTRA SYMMETRY OF AOS IN SYMMETRY 8:   1 1 1 1 1 2 3 2 3 2   3

 Eigenvalues of metric

         1 0.192E-03 0.262E-02 0.111E-01 0.111E-01 0.191E-01 0.385E-01 0.385E-01 0.385E-01
         2 0.137E-03 0.111E-01 0.136E-01 0.136E-01 0.560E-01 0.119E+00 0.119E+00 0.156E+00
         3 0.137E-03 0.111E-01 0.136E-01 0.136E-01 0.560E-01 0.119E+00 0.119E+00 0.156E+00
         4 0.111E-01 0.385E-01 0.385E-01 0.645E-01 0.260E+00 0.345E+00 0.345E+00 0.533E+00
         5 0.137E-03 0.111E-01 0.136E-01 0.136E-01 0.560E-01 0.119E+00 0.119E+00 0.156E+00
         6 0.111E-01 0.385E-01 0.385E-01 0.645E-01 0.260E+00 0.345E+00 0.345E+00 0.533E+00
         7 0.111E-01 0.385E-01 0.385E-01 0.645E-01 0.260E+00 0.345E+00 0.345E+00 0.533E+00
         8 0.136E-01 0.119E+00 0.156E+00 0.156E+00 0.526E+00 0.826E+00 0.826E+00 0.134E+01


 Contracted 2-electron integrals neglected if value below      1.0D-12
 AO integral compression algorithm  1   Integral accuracy      1.0D-12

     116.130 MB (compressed) written to integral file ( 45.8%)


 NUMBER OF SORTED TWO-ELECTRON INTEGRALS:   20212815.     BUFFER LENGTH:  32768
 NUMBER OF SEGMENTS:   2  SEGMENT LENGTH:   15998787      RECORD LENGTH: 524288

 Memory used in sort:      16.56 MW

 SORT1 READ    31710950. AND WROTE    13213985. INTEGRALS IN     39 RECORDS. CPU TIME:     0.94 SEC, REAL TIME:     1.27 SEC
 SORT2 READ    13213985. AND WROTE    20212815. INTEGRALS IN    443 RECORDS. CPU TIME:     0.65 SEC, REAL TIME:     1.08 SEC

 FILE SIZES:   FILE 1:   136.8 MBYTE,  FILE 4:   163.6 MBYTE,   TOTAL:    300.4 MBYTE

 OPERATOR DM      FOR CENTER  0  COORDINATES:    0.000000    0.000000    0.000000
 OPERATOR EKIN    FOR CENTER  0  COORDINATES:    0.000000    0.000000    0.000000
 OPERATOR POT     FOR CENTER  0  COORDINATES:    0.000000    0.000000    0.000000


 **********************************************************************************************************************************
 DATASETS  * FILE   NREC   LENGTH (MB)   RECORD NAMES
              1      20       95.67       500      610      700      900      950      970     1000      129      960     1100   
                                          VAR    BASINP    GEOM    SYMINP    ZMAT    AOBASIS   BASIS     P2S    ABASIS      S 
                                         1400     1410     1420     1200     1210     1080     1600     1650     1300     1700   
                                         EKIN       V       ECP      H0       H01     AOSYM     SMH    MOLCAS    ERIS     OPER   

 PROGRAMS   *        TOTAL       INT
 CPU TIMES  *         8.34      8.22
 REAL TIME  *        20.71 SEC
 DISK USED  *       300.78 MB      
 **********************************************************************************************************************************


 PROGRAM * RHF-SCF (OPEN SHELL)       Authors: W. Meyer, H.-J. Werner


 NUMBER OF ELECTRONS:       2+    1-    SPACE SYMMETRY=2    SPIN SYMMETRY: Doublet 
 CONVERGENCE THRESHOLDS:    1.00E-05 (Density)    1.00E-07 (Energy)
 MAX. NUMBER OF ITERATIONS:       60
 INTERPOLATION TYPE:            DIIS
 INTERPOLATION STEPS:              2 (START)      1 (STEP)
 LEVEL SHIFTS:                 -0.60 (CLOSED) -0.30 (OPEN) 

 Number of closed-shell orbitals:    1 (   1   0   0   0   0   0   0   0 )
 Number of open-shell orbitals:      1 (   0   1   0   0   0   0   0   0 )



   Atom=GA basis=ECP28MWB_GUESS    lmin=0  lmax=1

 Orbital guess generated from atomic densities. Full valence occupancy:    1   1   1   0   1   0   0   0


 Molecular orbital dump at record        2100.2

 ITERATION    DDIFF          GRAD             ENERGY        2-EL.EN.            DIPOLE MOMENTS         DIIS   ORB.
    1      0.000D+00      0.000D+00        -1.96286592      1.620501    0.00000    0.00000    0.00000    0    start
    2      0.000D+00      0.426D-02        -1.97212933      1.689721    0.00000    0.00000    0.00000    1    diag,B
    3      0.330D-02      0.259D-02        -1.97922668      1.755871    0.00000    0.00000    0.00000    2    diag,B
    4      0.348D-02      0.167D-02        -1.98341429      1.808189    0.00000    0.00000    0.00000    3    diag,B
    5      0.358D-02      0.819D-03        -1.98419660      1.825322    0.00000    0.00000    0.00000    4    diag,B
    6      0.211D-02      0.189D-03        -1.98421095      1.825296    0.00000    0.00000    0.00000    5    diag,B
    7      0.570D-03      0.543D-04        -1.98421221      1.825791    0.00000    0.00000    0.00000    6    fixocc
    8      0.189D-03      0.157D-04        -1.98421232      1.825735    0.00000    0.00000    0.00000    7    diag,B
    9      0.368D-04      0.509D-05        -1.98421233      1.825804    0.00000    0.00000    0.00000    8    diag,B
   10      0.238D-04      0.123D-05        -1.98421233      1.825790    0.00000    0.00000    0.00000    9    orth
   11      0.419D-05      0.225D-06        -1.98421233      1.825790    0.00000    0.00000    0.00000    0    orth

 Final alpha occupancy:   1   1   0   0   0   0   0   0
 Final beta  occupancy:   1   0   0   0   0   0   0   0

 !RHF STATE 1.2 Energy                 -1.984212331145
 Nuclear energy                         0.00000000
 One-electron energy                   -2.89710739
 Two-electron energy                    0.91289505
 Virial quotient                       -2.76813496
 !RHF STATE 1.2 Dipole moment           0.00000000     0.00000000     0.00000000
 Dipole moment /Debye                   0.00000000     0.00000000     0.00000000
 

 !RHF expec          <1.2|EKIN|1.2>     0.716804766364
 
 !RHF expec           <1.2|POT|1.2>    -1.287648870264

 ELECTRON ORBITALS
 =================


   Orb  Occ    Energy  Couls-En    Coefficients

                                   1 1s      1 1s      1 1s      1 1s      1 1s      1 1s      1 1s      1 3d0     1 3d2+    1 3d0  
                                   1 3d2+    1 3d0     1 3d2+    1 3d0     1 3d2+    1 3d0     1 3d2+    1 3d0     1 3d2+    1 5g0  
                                   1 5g4+    1 5g2+    1 5g0     1 5g4+    1 5g2+    1 5g0     1 5g4+    1 5g2+    1 5g0     1 5g4+ 
                                   1 5g2+    1 7i6+    1 7i4+    1 7i2+    1 7i0     1 7i6+    1 7i4+    1 7i2+    1 7i0  

   1.1   2    -0.4319   -1.5040  1.000503  0.000000  0.000408 -0.001090  0.001544 -0.002189  0.000928 -0.000130  0.000225  0.000082
                                -0.000141  0.001192 -0.002065 -0.001456  0.002522 -0.003826  0.006627 -0.000615  0.001065 -0.000001
                                -0.000003  0.000002  0.000009  0.000017 -0.000013 -0.000020 -0.000039  0.000030 -0.000039 -0.000078
                                 0.000059 -0.000000  0.000000 -0.000000  0.000000  0.000001 -0.000000  0.000000 -0.000000

                                   1 2px     1 2px     1 2px     1 2px     1 2px     1 2px     1 2px     1 4f1+    1 4f3+    1 4f1+ 
                                   1 4f3+    1 4f1+    1 4f3+    1 4f1+    1 4f3+    1 4f1+    1 4f3+    1 6h1+    1 6h3+    1 6h5+ 
                                   1 6h1+    1 6h3+    1 6h5+    1 6h1+    1 6h3+    1 6h5+ 

   1.2   +    -0.2076   -0.9605  0.997657 -0.000314  0.000896 -0.000223  0.002465 -0.000904  0.000900  0.000001 -0.000001  0.000021
                                -0.000027  0.000084 -0.000108 -0.000045  0.000059 -0.000114  0.000148 -0.000000  0.000000 -0.000000
                                 0.000000 -0.000000  0.000000 -0.000002  0.000002 -0.000003

 HOMO      1.2    -0.207606 =      -5.6492eV
 LUMO      1.3     0.009272 =       0.2523eV
 LUMO-HOMO         0.216877 =       5.9015eV


 **********************************************************************************************************************************
 DATASETS  * FILE   NREC   LENGTH (MB)   RECORD NAMES
              1      20       95.67       500      610      700      900      950      970     1000      129      960     1100   
                                          VAR    BASINP    GEOM    SYMINP    ZMAT    AOBASIS   BASIS     P2S    ABASIS      S 
                                         1400     1410     1420     1200     1210     1080     1600     1650     1300     1700   
                                         EKIN       V       ECP      H0       H01     AOSYM     SMH    MOLCAS    ERIS     OPER   

              2       4        2.92       700     1000      520     2100   
                                         GEOM     BASIS   MCVARS     RHF  

 PROGRAMS   *        TOTAL        HF       INT
 CPU TIMES  *         9.11      0.78      8.22
 REAL TIME  *        21.72 SEC
 DISK USED  *       300.78 MB      
 **********************************************************************************************************************************
 SETTING SCF(I)         =        -1.98421233  AU                              
 SETTING _CC_NORM_MAX   =         2.00000000                                  


 PROGRAM * CCSD (Restricted open-shell coupled cluster)     Authors: C. Hampel, H.-J. Werner, 1991, M. Deegan, P.J. Knowles, 1992


 Convergence thresholds:  THRVAR = 1.00D-08  THRDEN = 1.00D-06

 CCSD(T)     terms to be evaluated (factor= 1.000)


 Number of closed-shell orbitals:   1 (   1   0   0   0   0   0   0   0 )
 Number of active  orbitals:        1 (   0   1   0   0   0   0   0   0 )
 Number of external orbitals:     186 (  38  25  26  20  26  20  20  11 )

 Memory could be reduced to 7.14 Mwords without degradation in triples

 Number of N-1 electron functions:               3
 Number of N-2 electron functions:               3
 Number of singly external CSFs:               102
 Number of doubly external CSFs:             11537
 Total number of CSFs:                       11639

 Molecular orbitals read from record     2100.2  Type=RHF/CANONICAL (state 1.2)

 Integral transformation finished. Total CPU:   0.18 sec, npass=  1  Memory used:   0.81 MW

 Starting RMP2 calculation

 Wavefunction is spin-projected

 ITER.      SQ.NORM     CORR.ENERGY   TOTAL ENERGY   ENERGY CHANGE        DEN1      VAR(S)    VAR(P)  DIIS     TIME
   1      1.03036453    -0.04299638    -2.02720872    -0.04299638    -0.00053763  0.29D-04  0.39D-03  1  1     0.19
   2      1.03148836    -0.04361389    -2.02782622    -0.00061751    -0.00000115  0.59D-07  0.82D-06  2  2     0.19
   3      1.03152060    -0.04362465    -2.02783698    -0.00001076    -0.00000000  0.31D-09  0.26D-08  3  3     0.19
   4      1.03152100    -0.04362467    -2.02783700    -0.00000002    -0.00000000  0.23D-11  0.11D-10  4  4     0.19

 Norm of t1 vector:      0.03922149      S-energy:    -0.00155845      T1 diagnostic:  0.00013894
 Norm of t2 vector:      0.17315507      P-energy:    -0.04206623
                                         Alpha-Beta:  -0.03900395
                                         Alpha-Alpha: -0.00306228
                                         Beta-Beta:    0.00000000

 Spin contamination <S**2-Sz**2-Sz>     0.00000000
  Reference energy                     -1.984212331145
  RHF-RMP2 correlation energy          -0.043624671584
 !RHF-RMP2 energy                      -2.027837002729
 (NB above energy spin projected)

 Starting RCCSD calculation

 ITER.      SQ.NORM     CORR.ENERGY   TOTAL ENERGY   ENERGY CHANGE        DEN1      VAR(S)    VAR(P)  DIIS     TIME
   1      1.04083731    -0.04723057    -2.03144290    -0.04723057    -0.00384360  0.34D-03  0.26D-02  1  1     0.34
   2      1.05513294    -0.05252209    -2.03673442    -0.00529153    -0.00027686  0.29D-04  0.18D-03  2  2     0.47
   3      1.05978494    -0.05373278    -2.03794511    -0.00121068    -0.00002543  0.42D-05  0.16D-04  3  3     0.60
   4      1.06070648    -0.05388138    -2.03809371    -0.00014861    -0.00000203  0.46D-06  0.13D-05  4  4     0.74
   5      1.06095262    -0.05392575    -2.03813808    -0.00004436    -0.00000014  0.88D-07  0.73D-07  5  5     0.87
   6      1.06095777    -0.05392258    -2.03813491     0.00000317    -0.00000002  0.16D-07  0.55D-08  6  6     1.01
   7      1.06096785    -0.05392456    -2.03813689    -0.00000197    -0.00000000  0.34D-08  0.84D-09  6  1     1.15
   8      1.06097096    -0.05392490    -2.03813723    -0.00000034    -0.00000000  0.26D-09  0.53D-10  6  2     1.29

 Norm of t1 vector:      0.06110574      S-energy:    -0.00205806      T1 diagnostic:  0.01302106
                                                                       D1 diagnostic:  0.01710141
 Norm of t2 vector:      0.23924266      P-energy:    -0.05186683
                                         Alpha-Beta:  -0.04857740
                                         Alpha-Alpha: -0.00328943
                                         Beta-Beta:    0.00000000

 Doubles amplitudes (print threshold =  0.500E-01):

         I         J         SYM. A    SYM. B    A         B      T(IJ, AB) [Alpha-Beta]

         2         1         1         2         5         1     -0.05147056

 Spin contamination <S**2-Sz**2-Sz>     0.00000000

 Memory could be reduced to 7.07 Mwords without degradation in triples
 

 RESULTS
 =======

  Reference energy                     -1.984212331145
  RCCSD singles energy                 -0.002058062879
  RCCSD pair energy                    -0.051866833053
  RCCSD correlation energy             -0.053924895932
  Triples (T) contribution             -0.001263184958
  Total correlation energy             -0.055188080890
 
  RHF-RCCSD energy                     -2.038137227076
  RHF-RCCSD[T] energy                  -2.039353310024
  RHF-RCCSD-T energy                   -2.039403184049
 !RHF-RCCSD(T) energy                  -2.039400412034

 Program statistics:

 Available memory in ccsd:              7999999848
 Min. memory needed in ccsd:                161305
 Max. memory used in ccsd:                  165689
 Max. memory used in cckext:                182827 ( 8 integral passes)
 Max. memory used in cckint:                808258 ( 1 integral passes)



 **********************************************************************************************************************************
 DATASETS  * FILE   NREC   LENGTH (MB)   RECORD NAMES
              1      20       95.67       500      610      700      900      950      970     1000      129      960     1100   
                                          VAR    BASINP    GEOM    SYMINP    ZMAT    AOBASIS   BASIS     P2S    ABASIS      S 
                                         1400     1410     1420     1200     1210     1080     1600     1650     1300     1700   
                                         EKIN       V       ECP      H0       H01     AOSYM     SMH    MOLCAS    ERIS     OPER   

              2       4        2.92       700     1000      520     2100   
                                         GEOM     BASIS   MCVARS     RHF  

 PROGRAMS   *        TOTAL  RCCSD(T)        HF       INT
 CPU TIMES  *        10.55      1.44      0.78      8.22
 REAL TIME  *        24.13 SEC
 DISK USED  *       300.78 MB      
 **********************************************************************************************************************************
 SETTING POSTHF(I)      =        -2.03940041  AU                              
                                                                                                                                                                                                                                                                

       SCF           POSTHF       EKIN          POT
    -1.98421233   -2.03940041   0.71680477   -1.28764887
                                                  

 RCCSD(T)/USERDEF energy=     -2.039400412034

        RCCSD(T)        HF-SCF  
     -2.03940041     -1.98421233
 **********************************************************************************************************************************
 Molpro calculation terminated
 Variable memory released
