
 Primary working directories    : /global/cscratch1/sd/aannabe
 Secondary working directories  : /global/cscratch1/sd/aannabe
 Wavefunction directory         : /global/homes/a/aannabe/wfu/
 Main file repository           : /global/cscratch1/sd/aannabe/

 SHA1      : 2873118e99aab1bc19f5b6fc1784693c06d15c95
 NAME      : 2015.1.8
 ARCHNAME  : linux/x86_64
 FC        : /opt/cray/pe/craype/2.5.5/bin/ftn
 BLASLIB   : -Wl,-_start-group /opt/intel/compilers_and_libraries_2016.3.210/linux/mkl/lib/intel64/libmkl_intel_ilp64.a /opt/intel/compilers_and_libraries_2016.3.210/linux/mkl/lib/intel64/libmkl_intel_thread.a /opt/intel/compilers_and_libraries_2016.3.210/linux/mkl/lib/intel64/libmkl_core.a -Wl,-_end-group
 id        : lbl

 Nodes     nprocs
 nid00466     1

 Using customized tuning parameters: mindgm=8; mindgv=16; mindgc=4; mindgr=1; noblas=0; minvec=7
 default implementation of scratch files=df  

 ***,Cl
 memory,512,m
 gthresh,twoint=1.e-12
 
 gprint,basis,orbitals
 gexpec,ekin,pot
 
 angstrom
 geometry={
 1                                                                               ! Number of atoms
 Cl 0.0 0.0 0.0
 }
 
 basis={
 Including file /global/homes/a/aannabe/docs/accurate/ccECP_Kh/pps/Cl.pp
 Including file /global/homes/a/aannabe/docs/accurate/ccECP_Kh/basis/aug-cc-pVnZ/Cl_qz.basis
 }
 
 {rhf
  start,atden
  wf,7,3,1
  occ,1,1,1,0,1,0,0,0
  open,1.3
  orbital,4202.2
 }
 {multi
  maxiter,40
  start,4202.2
  occ,1,1,1,0,1,0,0,0
  closed,1,0,0,0,0,0,0
  wf,7,3,1;state,1
  wf,7,5,1;state,1
  wf,7,2,1;state,1
  natorb,ci,print
  orbital,5202.2
 }
 {rhf,nitord=1,maxit=0
  start,5202.2
  wf,7,3,1
  occ,1,1,1,0,1,0,0,0
  open,1.3
 }
 
 scf(i)=energy
 
 _CC_NORM_MAX=2.0
 {uccsd(t)
 maxit,100
 core
 }
 posthf(i)=energy
 
 table,scf,posthf,ekin,pot
 save,4.csv,new
 
 

 Variables initialized (889), CPU time= 0.00 sec
 Commands  initialized (702), CPU time= 0.01 sec, 572 directives.
 Default parameters read. Elapsed time= 0.16 sec

 Checking input...
 Passed
1


                                         ***  PROGRAM SYSTEM MOLPRO  ***
                                       Copyright, TTI GmbH Stuttgart, 2015
                                    Version 2015.1 linked Sep  7 2016 23:09:38


 **********************************************************************************************************************************
 LABEL *   Cl                                                                            
  64 bit serial version                                                                  DATE: 30-Oct-18          TIME: 12:26:30  
 **********************************************************************************************************************************

 SHA1:             2873118e99aab1bc19f5b6fc1784693c06d15c95
 **********************************************************************************************************************************

 THRESHOLDS:

 ZERO    =  1.00D-12  ONEINT  =  1.00D-12  TWOINT  =  1.00D-12  PREFAC  =  1.00D-14  LOCALI  =  1.00D-09  EORDER  =  1.00D-04
 ENERGY  =  0.00D+00  ETEST   =  0.00D+00  EDENS   =  0.00D+00  THRDEDEF=  1.00D-06  GRADIENT=  1.00D-02  STEP    =  1.00D-03
 ORBITAL =  1.00D-05  CIVEC   =  1.00D-05  COEFF   =  1.00D-04  PRINTCI =  5.00D-02  PUNCHCI =  9.90D+01  OPTGRAD =  3.00D-04
 OPTENERG=  1.00D-06  OPTSTEP =  3.00D-04  THRGRAD =  1.00D-10  COMPRESS=  1.00D-11  VARMIN  =  1.00D-07  VARMAX  =  1.00D-03
 THRDOUB =  0.00D+00  THRDIV  =  1.00D-05  THRRED  =  1.00D-07  THRPSP  =  1.00D+00  THRDC   =  1.00D-10  THRCS   =  1.00D-10
 THRNRM  =  1.00D-08  THREQ   =  0.00D+00  THRDE   =  1.00D+00  THRREF  =  1.00D-05  SPARFAC =  1.00D+00  THRDLP  =  1.00D-07
 THRDIA  =  1.00D-10  THRDLS  =  1.00D-07  THRGPS  =  0.00D+00  THRKEX  =  0.00D+00  THRDIS  =  2.00D-01  THRVAR  =  1.00D-10
 THRLOC  =  1.00D-06  THRGAP  =  1.00D-06  THRLOCT = -1.00D+00  THRGAPT = -1.00D+00  THRORB  =  1.00D-06  THRMLTP =  0.00D+00
 THRCPQCI=  1.00D-10  KEXTA   =  0.00D+00  THRCOARS=  0.00D+00  SYMTOL  =  1.00D-06  GRADTOL =  1.00D-06  THROVL  =  1.00D-08
 THRORTH =  1.00D-08  GRID    =  1.00D-06  GRIDMAX =  1.00D-03  DTMAX   =  0.00D+00  THROCCDE=  1.00D-01  THROCCDE=  1.00D-01



 ZUNIT=ANG
 

Geometry recognized as XYZ


 Variable memory set to  512000000 words,  buffer space   230000 words

 SETTING BASIS          =    USERDEF


 Recomputing integrals since basis changed


 Using spherical harmonics



 PROGRAM * SEWARD (Integral evaluation for generally contracted gaussian basis sets)     Author: Roland Lindh, 1990

 Geometry written to block  1 of record 700

 Orientation using atomic masses  
 Molecule type: Atom
 Symmetry elements: X,Y,Z
 Rotational constants:       0.0000000      0.0000000      0.0000000 GHz  (calculated with average atomic masses)

 Point group  D2h 



 ATOMIC COORDINATES

 NR  ATOM    CHARGE       X              Y              Z

   1  CL      7.00    0.000000000    0.000000000    0.000000000


          CL  CORE POTENTIAL

          d POTENTIAL

 POWERS             1              3              2
 EXPONENTIALS   22.71655       78.57186       7.473524    
 COEFFICIENTS   7.000000       159.0159      -15.65311    

          s - d POTENTIAL

 POWERS             2              2
 EXPONENTIALS   17.23709       4.311484    
 COEFFICIENTS   6.508887       46.76347    

          p - d POTENTIAL

 POWERS             2              2
 EXPONENTIALS   11.38276       3.832188    
 COEFFICIENTS   2.994648       28.01703    


 BASIS DATA

   Nr Sym  Nuc  Type         Exponents   Contraction coefficients

    1.1 Ag    1  1s         121.784657    -0.000084
                             56.497265     0.000344
                             26.209713    -0.001779
                             12.158979    -0.008113
                              5.640687     0.080978
                              2.616778    -0.349434
                              1.213952    -0.003247
                              0.563166     0.523459
                              0.261259     0.512037
                              0.121201     0.155551
    2.1 Ag    1  1s           1.098961     1.000000
    3.1 Ag    1  1s           0.458128     1.000000
    4.1 Ag    1  1s           0.190982     1.000000
    5.1 Ag    1  1s           0.079615     1.000000
    6.1 Ag    1  3d0          4.774443     1.000000
    7.1 Ag    1  3d2+         4.774443     1.000000
    8.1 Ag    1  3d0          1.818366     1.000000
    9.1 Ag    1  3d2+         1.818366     1.000000
   10.1 Ag    1  3d0          0.692532     1.000000
   11.1 Ag    1  3d2+         0.692532     1.000000
   12.1 Ag    1  3d0          0.263754     1.000000
   13.1 Ag    1  3d2+         0.263754     1.000000
   14.1 Ag    1  5g0          1.387697     1.000000
   15.1 Ag    1  5g4+         1.387697     1.000000
   16.1 Ag    1  5g2+         1.387697     1.000000
   17.1 Ag    1  5g0          0.571043     1.000000
   18.1 Ag    1  5g4+         0.571043     1.000000
   19.1 Ag    1  5g2+         0.571043     1.000000
    1.2 B3u   1  2px         54.697219     0.000609
                             26.221027    -0.003171
                             12.569967     0.004954
                              6.025854     0.008120
                              2.888704    -0.068073
                              1.384801     0.098087
                              0.663853     0.338027
                              0.318241     0.393784
                              0.152560     0.266541
                              0.073135     0.073962
    2.2 B3u   1  2px          1.289083     1.000000
    3.2 B3u   1  2px          0.541677     1.000000
    4.2 B3u   1  2px          0.227615     1.000000
    5.2 B3u   1  2px          0.095645     1.000000
    6.2 B3u   1  4f1+         1.593023     1.000000
    7.2 B3u   1  4f3+         1.593023     1.000000
    8.2 B3u   1  4f1+         0.721301     1.000000
    9.2 B3u   1  4f3+         0.721301     1.000000
   10.2 B3u   1  4f1+         0.326596     1.000000
   11.2 B3u   1  4f3+         0.326596     1.000000
    1.3 B2u   1  2py         54.697219     0.000609
                             26.221027    -0.003171
                             12.569967     0.004954
                              6.025854     0.008120
                              2.888704    -0.068073
                              1.384801     0.098087
                              0.663853     0.338027
                              0.318241     0.393784
                              0.152560     0.266541
                              0.073135     0.073962
    2.3 B2u   1  2py          1.289083     1.000000
    3.3 B2u   1  2py          0.541677     1.000000
    4.3 B2u   1  2py          0.227615     1.000000
    5.3 B2u   1  2py          0.095645     1.000000
    6.3 B2u   1  4f1-         1.593023     1.000000
    7.3 B2u   1  4f3-         1.593023     1.000000
    8.3 B2u   1  4f1-         0.721301     1.000000
    9.3 B2u   1  4f3-         0.721301     1.000000
   10.3 B2u   1  4f1-         0.326596     1.000000
   11.3 B2u   1  4f3-         0.326596     1.000000
    1.4 B1g   1  3d2-         4.774443     1.000000
    2.4 B1g   1  3d2-         1.818366     1.000000
    3.4 B1g   1  3d2-         0.692532     1.000000
    4.4 B1g   1  3d2-         0.263754     1.000000
    5.4 B1g   1  5g2-         1.387697     1.000000
    6.4 B1g   1  5g4-         1.387697     1.000000
    7.4 B1g   1  5g2-         0.571043     1.000000
    8.4 B1g   1  5g4-         0.571043     1.000000
    1.5 B1u   1  2pz         54.697219     0.000609
                             26.221027    -0.003171
                             12.569967     0.004954
                              6.025854     0.008120
                              2.888704    -0.068073
                              1.384801     0.098087
                              0.663853     0.338027
                              0.318241     0.393784
                              0.152560     0.266541
                              0.073135     0.073962
    2.5 B1u   1  2pz          1.289083     1.000000
    3.5 B1u   1  2pz          0.541677     1.000000
    4.5 B1u   1  2pz          0.227615     1.000000
    5.5 B1u   1  2pz          0.095645     1.000000
    6.5 B1u   1  4f0          1.593023     1.000000
    7.5 B1u   1  4f2+         1.593023     1.000000
    8.5 B1u   1  4f0          0.721301     1.000000
    9.5 B1u   1  4f2+         0.721301     1.000000
   10.5 B1u   1  4f0          0.326596     1.000000
   11.5 B1u   1  4f2+         0.326596     1.000000
    1.6 B2g   1  3d1+         4.774443     1.000000
    2.6 B2g   1  3d1+         1.818366     1.000000
    3.6 B2g   1  3d1+         0.692532     1.000000
    4.6 B2g   1  3d1+         0.263754     1.000000
    5.6 B2g   1  5g1+         1.387697     1.000000
    6.6 B2g   1  5g3+         1.387697     1.000000
    7.6 B2g   1  5g1+         0.571043     1.000000
    8.6 B2g   1  5g3+         0.571043     1.000000
    1.7 B3g   1  3d1-         4.774443     1.000000
    2.7 B3g   1  3d1-         1.818366     1.000000
    3.7 B3g   1  3d1-         0.692532     1.000000
    4.7 B3g   1  3d1-         0.263754     1.000000
    5.7 B3g   1  5g1-         1.387697     1.000000
    6.7 B3g   1  5g3-         1.387697     1.000000
    7.7 B3g   1  5g1-         0.571043     1.000000
    8.7 B3g   1  5g3-         0.571043     1.000000
    1.8 Au    1  4f2-         1.593023     1.000000
    2.8 Au    1  4f2-         0.721301     1.000000
    3.8 Au    1  4f2-         0.326596     1.000000

 NUCLEAR CHARGE:                    7
 NUMBER OF PRIMITIVE AOS:         140
 NUMBER OF SYMMETRY AOS:          115
 NUMBER OF CONTRACTIONS:           79   (  19Ag  +  11B3u +  11B2u +   8B1g +  11B1u +   8B2g +   8B3g +   3Au  )
 NUMBER OF CORE ORBITALS:           0   (   0Ag  +   0B3u +   0B2u +   0B1g +   0B1u +   0B2g +   0B3g +   0Au  )
 NUMBER OF VALENCE ORBITALS:        4   (   1Ag  +   1B3u +   1B2u +   0B1g +   1B1u +   0B2g +   0B3g +   0Au  )


 NUCLEAR REPULSION ENERGY    0.00000000

 EXTRA SYMMETRY OF AOS IN SYMMETRY 1:   1 1 1 1 1 2 3 2 3 2   3 2 3 4 5 6 4 5 6
 EXTRA SYMMETRY OF AOS IN SYMMETRY 2:   1 1 1 1 1 2 3 2 3 2   3
 EXTRA SYMMETRY OF AOS IN SYMMETRY 3:   1 1 1 1 1 2 3 2 3 2   3
 EXTRA SYMMETRY OF AOS IN SYMMETRY 4:   1 1 1 1 2 3 2 3
 EXTRA SYMMETRY OF AOS IN SYMMETRY 5:   1 1 1 1 1 2 3 2 3 2   3
 EXTRA SYMMETRY OF AOS IN SYMMETRY 6:   1 1 1 1 2 3 2 3
 EXTRA SYMMETRY OF AOS IN SYMMETRY 7:   1 1 1 1 2 3 2 3

 Eigenvalues of metric

         1 0.204E-02 0.180E-01 0.998E-01 0.998E-01 0.181E+00 0.401E+00 0.401E+00 0.409E+00
         2 0.363E-03 0.341E-01 0.126E+00 0.126E+00 0.236E+00 0.724E+00 0.724E+00 0.988E+00
         3 0.363E-03 0.341E-01 0.126E+00 0.126E+00 0.236E+00 0.724E+00 0.724E+00 0.988E+00
         4 0.998E-01 0.401E+00 0.409E+00 0.409E+00 0.117E+01 0.159E+01 0.159E+01 0.233E+01
         5 0.363E-03 0.341E-01 0.126E+00 0.126E+00 0.236E+00 0.724E+00 0.724E+00 0.988E+00
         6 0.998E-01 0.401E+00 0.409E+00 0.409E+00 0.117E+01 0.159E+01 0.159E+01 0.233E+01
         7 0.998E-01 0.401E+00 0.409E+00 0.409E+00 0.117E+01 0.159E+01 0.159E+01 0.233E+01
         8 0.126E+00 0.724E+00 0.215E+01


 Contracted 2-electron integrals neglected if value below      1.0D-12
 AO integral compression algorithm  1   Integral accuracy      1.0D-12

     6.816 MB (compressed) written to integral file ( 71.6%)


 NUMBER OF SORTED TWO-ELECTRON INTEGRALS:     665704.     BUFFER LENGTH:  32768
 NUMBER OF SEGMENTS:   1  SEGMENT LENGTH:     665704      RECORD LENGTH: 524288

 Memory used in sort:       1.22 MW

 SORT1 READ     1222209. AND WROTE      500866. INTEGRALS IN      2 RECORDS. CPU TIME:     0.04 SEC, REAL TIME:     0.06 SEC
 SORT2 READ      500866. AND WROTE      665704. INTEGRALS IN     26 RECORDS. CPU TIME:     0.06 SEC, REAL TIME:     0.13 SEC

 FILE SIZES:   FILE 1:    26.0 MBYTE,  FILE 4:     8.4 MBYTE,   TOTAL:     34.5 MBYTE

 OPERATOR DM      FOR CENTER  0  COORDINATES:    0.000000    0.000000    0.000000
 OPERATOR EKIN    FOR CENTER  0  COORDINATES:    0.000000    0.000000    0.000000
 OPERATOR POT     FOR CENTER  0  COORDINATES:    0.000000    0.000000    0.000000


 **********************************************************************************************************************************
 DATASETS  * FILE   NREC   LENGTH (MB)   RECORD NAMES
              1      20       22.89       500      610      700      900      950      970     1000      129      960     1100   
                                          VAR    BASINP    GEOM    SYMINP    ZMAT    AOBASIS   BASIS     P2S    ABASIS      S 
                                         1400     1410     1420     1200     1210     1080     1600     1650     1300     1700   
                                         EKIN       V       ECP      H0       H01     AOSYM     SMH    MOLCAS    ERIS     OPER   

 PROGRAMS   *        TOTAL       INT
 CPU TIMES  *         0.78      0.64
 REAL TIME  *         2.66 SEC
 DISK USED  *        34.76 MB      
 **********************************************************************************************************************************


 PROGRAM * RHF-SCF (OPEN SHELL)       Authors: W. Meyer, H.-J. Werner


 NUMBER OF ELECTRONS:       4+    3-    SPACE SYMMETRY=3    SPIN SYMMETRY: Doublet 
 CONVERGENCE THRESHOLDS:    1.00E-05 (Density)    1.00E-07 (Energy)
 MAX. NUMBER OF ITERATIONS:       60
 INTERPOLATION TYPE:            DIIS
 INTERPOLATION STEPS:              2 (START)      1 (STEP)
 LEVEL SHIFTS:                 -0.60 (CLOSED) -0.30 (OPEN) 


 Singly occupied orbitals:      1.3

   Atom=CL basis=ECP10MWB_GUESS    lmin=0  lmax=1

 Orbital guess generated from atomic densities. Full valence occupancy:    1   1   1   0   1   0   0   0


 Molecular orbital dump at record        4202.2

 ITERATION    DDIFF          GRAD             ENERGY        2-EL.EN.            DIPOLE MOMENTS         DIIS   ORB.
    1      0.000D+00      0.000D+00       -14.73972817     19.879119    0.00000    0.00000    0.00000    0    start
    2      0.000D+00      0.611D-02       -14.74249069     20.016409    0.00000    0.00000    0.00000    1    diag,B
    3      0.356D-02      0.160D-02       -14.74281350     20.052920    0.00000    0.00000    0.00000    2    diag,B
    4      0.138D-02      0.479D-03       -14.74285107     20.060356    0.00000    0.00000    0.00000    3    diag,B
    5      0.810D-03      0.892D-04       -14.74285261     20.061372    0.00000    0.00000    0.00000    4    diag,B
    6      0.230D-03      0.154D-04       -14.74285265     20.061293    0.00000    0.00000    0.00000    5    diag,B
    7      0.192D-04      0.390D-05       -14.74285265     20.061235    0.00000    0.00000    0.00000    6    fixocc
    8      0.116D-04      0.918D-06       -14.74285265     20.061217    0.00000    0.00000    0.00000    7    diag,B
    9      0.224D-05      0.160D-06       -14.74285265     20.061215    0.00000    0.00000    0.00000    0    orth

 Final alpha occupancy:   1   1   1   0   1   0   0   0
 Final beta  occupancy:   1   1   0   0   1   0   0   0

 !RHF STATE 1.3 Energy                -14.742852650154
 Nuclear energy                         0.00000000
 One-electron energy                  -24.77346017
 Two-electron energy                   10.03060752
 Virial quotient                       -2.69678846
 !RHF STATE 1.3 Dipole moment           0.00000000     0.00000000     0.00000000
 Dipole moment /Debye                   0.00000000     0.00000000     0.00000000
 

 !RHF expec          <1.3|EKIN|1.3>     5.466818360268
 
 !RHF expec           <1.3|POT|1.3>    -4.735237352988

 ELECTRON ORBITALS
 =================


   Orb  Occ    Energy  Couls-En    Coefficients

                                   1 1s      1 1s      1 1s      1 1s      1 1s      1 3d0     1 3d2+    1 3d0     1 3d2+    1 3d0  
                                   1 3d2+    1 3d0     1 3d2+    1 5g0     1 5g4+    1 5g2+    1 5g0     1 5g4+    1 5g2+ 

   1.1   2    -1.0907   -5.1304  1.000678  0.000436 -0.000913 -0.000096 -0.000045  0.000163  0.000283  0.000539  0.000933 -0.000259
                                -0.000448  0.002834  0.004908  0.000001  0.000002  0.000002 -0.000009 -0.000018 -0.000013

                                   1 2px     1 2px     1 2px     1 2px     1 2px     1 4f1+    1 4f3+    1 4f1+    1 4f3+    1 4f1+ 
                                   1 4f3+ 

   1.2   2    -0.4901   -3.8219  0.999625  0.000861 -0.005583 -0.000280  0.007354 -0.000273 -0.001056 -0.000718 -0.002783 -0.001166
                                -0.004518

                                   1 2py     1 2py     1 2py     1 2py     1 2py     1 4f1-    1 4f3-    1 4f1-    1 4f3-    1 4f1- 
                                   1 4f3- 

   1.3   +    -0.5703   -3.9372  1.032136 -0.003294  0.002996 -0.006309 -0.038439 -0.001799 -0.002322 -0.005094 -0.006576 -0.007044
                                -0.009093

                                   1 2pz     1 2pz     1 2pz     1 2pz     1 2pz     1 4f0     1 4f2+    1 4f0     1 4f2+    1 4f0  
                                   1 4f2+ 

   1.5   2    -0.4901   -3.8219  0.999625  0.000861 -0.005583 -0.000280  0.007354 -0.000668 -0.000862 -0.001760 -0.002272 -0.002857
                                -0.003689

 HOMO      1.2    -0.490113 =     -13.3366eV
 LUMO      2.1     0.160526 =       4.3681eV
 LUMO-HOMO         0.650639 =      17.7048eV


 **********************************************************************************************************************************
 DATASETS  * FILE   NREC   LENGTH (MB)   RECORD NAMES
              1      20       22.89       500      610      700      900      950      970     1000      129      960     1100   
                                          VAR    BASINP    GEOM    SYMINP    ZMAT    AOBASIS   BASIS     P2S    ABASIS      S 
                                         1400     1410     1420     1200     1210     1080     1600     1650     1300     1700   
                                         EKIN       V       ECP      H0       H01     AOSYM     SMH    MOLCAS    ERIS     OPER   

              2       4        2.78       700     1000      520     4202   
                                         GEOM     BASIS   MCVARS     RHF  

 PROGRAMS   *        TOTAL       RHF       INT
 CPU TIMES  *         0.87      0.09      0.64
 REAL TIME  *         2.93 SEC
 DISK USED  *        34.76 MB      
 **********************************************************************************************************************************


 PROGRAM * MULTI (Direct Multiconfiguration SCF)       Authors: P.J. Knowles, H.-J. Werner (1984)     S.T. Elbert (1988)


 Number of closed-shell orbitals:   1 (   1   0   0   0   0   0   0   0 )
 Number of active  orbitals:        3 (   0   1   1   0   1   0   0   0 )
 Number of external orbitals:      75 (  18  10  10   8  10   8   8   3 )

 State symmetry 1

 Number of electrons:     5    Spin symmetry=Doublet   Space symmetry=3
 Number of states:        1
 Number of CSFs:          1   (1 determinants, 3 intermediate states)

 State symmetry 2

 Number of electrons:     5    Spin symmetry=Doublet   Space symmetry=5
 Number of states:        1
 Number of CSFs:          1   (1 determinants, 3 intermediate states)

 State symmetry 3

 Number of electrons:     5    Spin symmetry=Doublet   Space symmetry=2
 Number of states:        1
 Number of CSFs:          1   (1 determinants, 3 intermediate states)

 Iteration controls:
             1  2  3  4  5  6  7  8  9 10 11 12 13 14 15 16 17 18 19 20 21 22 23 24 25 26 27 28 29 30 31 32 33 34 35 36 37 38 39
 DIAGCI      T  T  T  T  T  T  T  T  T  T  T  T  T  T  T  T  T  T  T  T  T  T  T  T  T  T  T  T  T  T  T  T  T  T  T  T  T  T  T
 WERNER      T  T  T  T  T  T  T  T  T  T  T  T  T  T  T  T  T  T  T  T  T  T  T  T  T  T  T  T  T  T  T  T  T  T  T  T  T  T  T
 INTERNAL    F  T  T  T  T  T  T  T  T  T  T  T  T  T  T  T  T  T  T  T  T  T  T  T  T  T  T  T  T  T  T  T  T  T  T  T  T  T  T

 Molecular orbitals read from record     4202.2  Type=RHF/CANONICAL (state 1.3)
 *** IN SYMMETRY 1 ORBITAL  1 SYMMETRY CONTAMINATION OF 0.103D-01 HAS BEEN REMOVED

 EXTRA SYMMETRY OF MOS IN SYMMETRY 1:   1 1 3 2 1 3 2 5 4 6   1 3 2 5 4 6 3 2 1
 *** IN SYMMETRY 2 ORBITAL  1 SYMMETRY CONTAMINATION OF 0.103D-01 HAS BEEN REMOVED
 EXTRA SYMMETRY OF MOS IN SYMMETRY 2:   1 1 3 2 1 3 2 1 3 2   1
 *** IN SYMMETRY 3 ORBITAL  1 SYMMETRY CONTAMINATION OF 0.286D-01 HAS BEEN REMOVED
 EXTRA SYMMETRY OF MOS IN SYMMETRY 3:   1 1 1 2 1 3 2 1 3 2   3
 EXTRA SYMMETRY OF MOS IN SYMMETRY 4:   1 1 3 2 1 3 2 1
 *** IN SYMMETRY 5 ORBITAL  1 SYMMETRY CONTAMINATION OF 0.118D-01 HAS BEEN REMOVED
 EXTRA SYMMETRY OF MOS IN SYMMETRY 5:   1 1 3 2 1 3 2 1 3 2   1
 EXTRA SYMMETRY OF MOS IN SYMMETRY 6:   1 1 3 2 1 3 2 1
 EXTRA SYMMETRY OF MOS IN SYMMETRY 7:   1 1 2 3 1 2 3 1

 Wavefunction dump at record             5202.2

 Convergence thresholds  0.10E-01 (gradient)  0.10E-05 (energy)  0.10E-02 (step length)

 Weight factors for state symmetry  1:    0.33333
 Weight factors for state symmetry  2:    0.33333
 Weight factors for state symmetry  3:    0.33333

 Number of orbital rotations:       48   (     0 Core/Active     18 Core/Virtual   0 Active/Active     30 Active/Virtual)
 Total number of variables:         51


 ITER. MIC  NCI  NEG     ENERGY(VAR)     ENERGY(PROJ)   ENERGY CHANGE     GRAD(0)  GRAD(ORB)   GRAD(CI)     STEP       TIME

   1   26   12    0     -14.74014123     -14.74100272   -0.00086149    0.03466789 0.00000000 0.00000000  0.29D-01      0.04
   2   12   12    0     -14.74100298     -14.74100298   -0.00000001    0.00011278 0.00000000 0.00000000  0.59D-04      0.05

 ** WVFN ****  CONVERGENCE REACHED, FINAL GRADIENT:  0.20D-08



 Results for state 1.3
 =====================

 !MCSCF STATE 1.3 Energy              -14.741002980975
 Nuclear energy                         0.00000000
 Kinetic energy                         5.46490492
 One electron energy                  -24.77537501
 Two electron energy                   10.03437203
 Virial ratio                           3.69739423

 !MCSCF STATE 1.3 Dipole moment         0.00000000     0.00000000     0.00000000
 Dipole moment /Debye                   0.00000000     0.00000000     0.00000000



 Results for state 1.5
 =====================

 !MCSCF STATE 1.5 Energy              -14.741002980973
 Nuclear energy                         0.00000000
 Kinetic energy                         5.46490492
 One electron energy                  -24.77537501
 Two electron energy                   10.03437203
 Virial ratio                           3.69739423

 !MCSCF STATE 1.5 Dipole moment         0.00000000     0.00000000     0.00000000
 Dipole moment /Debye                   0.00000000     0.00000000     0.00000000



 Results for state 1.2
 =====================

 !MCSCF STATE 1.2 Energy              -14.741002980973
 Nuclear energy                         0.00000000
 Kinetic energy                         5.46490492
 One electron energy                  -24.77537501
 Two electron energy                   10.03437203
 Virial ratio                           3.69739423

 !MCSCF STATE 1.2 Dipole moment         0.00000000     0.00000000     0.00000000
 Dipole moment /Debye                   0.00000000     0.00000000     0.00000000

 State-averaged charge density matrix saved on record  5202.2 (density set 1)

 !MCSCF expec        <1.3|EKIN|1.3>     5.464904921685
 !MCSCF expec        <1.5|EKIN|1.5>     5.464904921774
 !MCSCF expec        <1.2|EKIN|1.2>     5.464904921774

 !MCSCF expec         <1.3|POT|1.3>    -4.735243742816
 !MCSCF expec         <1.5|POT|1.5>    -4.735243742847
 !MCSCF expec         <1.2|POT|1.2>    -4.735243742847


 NATURAL ORBITALS (state averaged)
 =================================

   Orb     Occ        Energy       Coefficients

                                   1 1s      1 1s      1 1s      1 1s      1 1s      1 3d0     1 3d2+    1 3d0     1 3d2+    1 3d0  
                                   1 3d2+    1 3d0     1 3d2+    1 5g0     1 5g4+    1 5g2+    1 5g0     1 5g4+    1 5g2+ 

   1.1  2.00000    -1.090698     1.000704  0.000490 -0.001085  0.000037 -0.000062  0.000000  0.000000  0.000000  0.000000  0.000000
                                 0.000000  0.000000  0.000000  0.000000  0.000000  0.000000  0.000000  0.000000  0.000000

                                   1 2px     1 2px     1 2px     1 2px     1 2px     1 4f1+    1 4f3+    1 4f1+    1 4f3+    1 4f1+ 
                                   1 4f3+ 

   1.2  1.66667    -0.426360     1.006235  0.000132 -0.004309 -0.000936 -0.001987  0.000000  0.000000  0.000000  0.000000  0.000000
                                 0.000000

                                   1 2py     1 2py     1 2py     1 2py     1 2py     1 4f1-    1 4f3-    1 4f1-    1 4f3-    1 4f1- 
                                   1 4f3- 

   1.3  1.66667    -0.426360     1.006235  0.000132 -0.004309 -0.000936 -0.001987  0.000000  0.000000  0.000000  0.000000  0.000000
                                 0.000000

                                   1 2pz     1 2pz     1 2pz     1 2pz     1 2pz     1 4f0     1 4f2+    1 4f0     1 4f2+    1 4f0  
                                   1 4f2+ 

   1.5  1.66667    -0.426360     1.006235  0.000132 -0.004309 -0.000936 -0.001987  0.000000  0.000000  0.000000  0.000000  0.000000
                                 0.000000
 

 EXTRA SYMMETRY OF MOS IN SYMMETRY 1:   1 1 2 3 1 3 2 6 5 4   1 2 3 4 6 5 2 3 1
 EXTRA SYMMETRY OF MOS IN SYMMETRY 2:   1 1 2 3 1 2 3 1 2 3   1
 EXTRA SYMMETRY OF MOS IN SYMMETRY 3:   1 1 2 3 1 2 3 1 2 3   1
 EXTRA SYMMETRY OF MOS IN SYMMETRY 4:   1 1 2 3 1 2 3 1
 EXTRA SYMMETRY OF MOS IN SYMMETRY 5:   1 1 3 2 1 2 3 1 2 3   1
 EXTRA SYMMETRY OF MOS IN SYMMETRY 6:   1 1 3 2 1 2 3 1
 EXTRA SYMMETRY OF MOS IN SYMMETRY 7:   1 1 2 3 1 3 2 1

 Natural orbital dump (state averaged) at molpro section  5202.2    (Orbital set 2)


 CI vector for state symmetry 1
 ==============================

 2 a 2           1.0000000

 TOTAL ENERGIES                       -14.74100298

 CI vector for state symmetry 2
 ==============================

 2 2 a           1.0000000

 TOTAL ENERGIES                       -14.74100298

 CI vector for state symmetry 3
 ==============================

 a 2 2           1.0000000

 TOTAL ENERGIES                       -14.74100298



 **********************************************************************************************************************************
 DATASETS  * FILE   NREC   LENGTH (MB)   RECORD NAMES
              1      21       23.01       500      610      700      900      950      970     1000      129      960     1100   
                                          VAR    BASINP    GEOM    SYMINP    ZMAT    AOBASIS   BASIS     P2S    ABASIS      S 
                                         1400     1410     1420     1200     1210     1080     1600     1650     1300     1700   
                                         EKIN       V       ECP      H0       H01     AOSYM     SMH    MOLCAS    ERIS     OPER   
                                         1380   
                                         JKOP   

              2       5        5.31       700     1000      520     4202     5202   
                                         GEOM     BASIS   MCVARS     RHF     MCSCF   

 PROGRAMS   *        TOTAL     MULTI       RHF       INT
 CPU TIMES  *         0.96      0.09      0.09      0.64
 REAL TIME  *         4.13 SEC
 DISK USED  *        37.85 MB      
 **********************************************************************************************************************************


 PROGRAM * RHF-SCF (OPEN SHELL)       Authors: W. Meyer, H.-J. Werner


 NUMBER OF ELECTRONS:       4+    3-    SPACE SYMMETRY=3    SPIN SYMMETRY: Doublet 
 CONVERGENCE THRESHOLDS:    1.00E-05 (Density)    1.00E-07 (Energy)
 MAX. NUMBER OF ITERATIONS:        0
 INTERPOLATION TYPE:            DIIS
 INTERPOLATION STEPS:              2 (START)      1 (STEP)
 LEVEL SHIFTS:                 -0.60 (CLOSED) -0.30 (OPEN) 


 Singly occupied orbitals:      1.3
 Molecular orbitals read from record     5202.2  Type=MCSCF/NATURAL (state averaged)

 Molecular orbital dump at record        2101.2

 ITERATION    DDIFF          GRAD             ENERGY        2-EL.EN.            DIPOLE MOMENTS         DIIS   ORB.
    1      0.000D+00      0.000D+00       -14.74100298     20.068744    0.00000    0.00000    0.00000    0    start

 Final alpha occupancy:   1   1   1   0   1   0   0   0
 Final beta  occupancy:   1   1   0   0   1   0   0   0

 !RHF STATE 1.3 Energy                -14.741002980975
 Nuclear energy                         0.00000000
 One-electron energy                  -24.77537501
 Two-electron energy                   10.03437203
 Virial quotient                       -2.69739423
 !RHF STATE 1.3 Dipole moment           0.00000000     0.00000000     0.00000000
 Dipole moment /Debye                   0.00000000     0.00000000     0.00000000
 

 !RHF expec          <1.3|EKIN|1.3>     5.464904921685
 
 !RHF expec           <1.3|POT|1.3>    -4.735243742816

 ELECTRON ORBITALS
 =================


   Orb  Occ    Energy  Couls-En    Coefficients

                                   1 1s      1 1s      1 1s      1 1s      1 1s      1 3d0     1 3d2+    1 3d0     1 3d2+    1 3d0  
                                   1 3d2+    1 3d0     1 3d2+    1 5g0     1 5g4+    1 5g2+    1 5g0     1 5g4+    1 5g2+ 

   1.1   2    -1.0907   -5.1304  1.000704  0.000490 -0.001085  0.000037 -0.000062  0.000000  0.000000  0.000000  0.000000  0.000000
                                 0.000000  0.000000  0.000000  0.000000  0.000000  0.000000  0.000000  0.000000  0.000000

                                   1 2px     1 2px     1 2px     1 2px     1 2px     1 4f1+    1 4f3+    1 4f1+    1 4f3+    1 4f1+ 
                                   1 4f3+ 

   1.2   2    -0.4264   -3.7656  1.006235  0.000132 -0.004309 -0.000936 -0.001987  0.000000  0.000000  0.000000  0.000000  0.000000
                                 0.000000

                                   1 2py     1 2py     1 2py     1 2py     1 2py     1 4f1-    1 4f3-    1 4f1-    1 4f3-    1 4f1- 
                                   1 4f3- 

   1.3   +    -0.4264   -3.7656  1.006235  0.000132 -0.004309 -0.000936 -0.001987  0.000000  0.000000  0.000000  0.000000  0.000000
                                 0.000000

                                   1 2pz     1 2pz     1 2pz     1 2pz     1 2pz     1 4f0     1 4f2+    1 4f0     1 4f2+    1 4f0  
                                   1 4f2+ 

   1.5   2    -0.4264   -3.7656  1.006235  0.000132 -0.004309 -0.000936 -0.001987  0.000000  0.000000  0.000000  0.000000  0.000000
                                 0.000000

 HOMO      1.2    -0.426360 =     -11.6019eV
 LUMO      2.1     0.164734 =       4.4826eV
 LUMO-HOMO         0.591094 =      16.0845eV


 **********************************************************************************************************************************
 DATASETS  * FILE   NREC   LENGTH (MB)   RECORD NAMES
              1      21       23.01       500      610      700      900      950      970     1000      129      960     1100   
                                          VAR    BASINP    GEOM    SYMINP    ZMAT    AOBASIS   BASIS     P2S    ABASIS      S 
                                         1400     1410     1420     1200     1210     1080     1600     1650     1300     1700   
                                         EKIN       V       ECP      H0       H01     AOSYM     SMH    MOLCAS    ERIS     OPER   
                                         1380   
                                         JKOP   

              2       6        7.84       700     1000      520     4202     5202     2101   
                                         GEOM     BASIS   MCVARS     RHF     MCSCF     RHF  

 PROGRAMS   *        TOTAL       RHF     MULTI       RHF       INT
 CPU TIMES  *         0.99      0.03      0.09      0.09      0.64
 REAL TIME  *         4.34 SEC
 DISK USED  *        37.85 MB      
 **********************************************************************************************************************************
 SETTING SCF(I)         =       -14.74100298  AU                              
 SETTING _CC_NORM_MAX   =         2.00000000                                  


 PROGRAM * CCSD (Unrestricted open-shell coupled cluster)     Authors: C. Hampel, H.-J. Werner, 1991, M. Deegan, P.J. Knowles, 1992


 Convergence thresholds:  THRVAR = 1.00D-08  THRDEN = 1.00D-06

 CCSD(T)     terms to be evaluated (factor= 1.000)


 Number of closed-shell orbitals:   3 (   1   1   0   0   1   0   0   0 )
 Number of active  orbitals:        1 (   0   0   1   0   0   0   0   0 )
 Number of external orbitals:      75 (  18  10  10   8  10   8   8   3 )

 Memory could be reduced to 0.95 Mwords without degradation in triples

 Number of N-1 electron functions:               7
 Number of N-2 electron functions:              21
 Number of singly external CSFs:                87
 Number of doubly external CSFs:             12282
 Total number of CSFs:                       12369

 Molecular orbitals read from record     2101.2  Type=RHF/CANONICAL (state 1.3)

 Integral transformation finished. Total CPU:   0.01 sec, npass=  1  Memory used:   0.17 MW

 Starting RMP2 calculation

 ITER.      SQ.NORM     CORR.ENERGY   TOTAL ENERGY   ENERGY CHANGE        DEN1      VAR(S)    VAR(P)  DIIS     TIME
   1      1.06607460    -0.19746086   -14.93846384    -0.19746086    -0.00084188  0.22D-04  0.31D-03  1  1     0.02
   2      1.06688759    -0.19837533   -14.93937831    -0.00091447    -0.00000072  0.70D-07  0.23D-06  2  2     0.02
   3      1.06690019    -0.19838290   -14.93938588    -0.00000757    -0.00000000  0.47D-09  0.31D-09  3  3     0.02
   4      1.06690038    -0.19838295   -14.93938593    -0.00000006    -0.00000000  0.22D-11  0.83D-12  4  4     0.02

 Norm of t1 vector:      0.05443397      S-energy:    -0.00515637      T1 diagnostic:  0.00795627
 Norm of t2 vector:      0.25285831      P-energy:    -0.19322658
                                         Alpha-Beta:  -0.15213449
                                         Alpha-Alpha: -0.02784694
                                         Beta-Beta:   -0.01324516

 Spin contamination <S**2-Sz**2-Sz>     0.00322148
  Reference energy                    -14.741002980975
  RHF-RMP2 correlation energy          -0.198382953147
 !RHF-RMP2 energy                     -14.939385934122

 Starting UCCSD calculation

 ITER.      SQ.NORM     CORR.ENERGY   TOTAL ENERGY   ENERGY CHANGE        DEN1      VAR(S)    VAR(P)  DIIS     TIME
   1      1.07737835    -0.21127871   -14.95228169    -0.21127871    -0.00628534  0.36D-03  0.18D-02  1  1     0.05
   2      1.08444045    -0.21828911   -14.95929209    -0.00701040    -0.00018735  0.88D-05  0.60D-04  2  2     0.07
   3      1.08550995    -0.21889968   -14.95990266    -0.00061056    -0.00001137  0.83D-06  0.39D-05  3  3     0.09
   4      1.08575891    -0.21901069   -14.96001367    -0.00011101    -0.00000071  0.19D-07  0.29D-06  4  4     0.11
   5      1.08580768    -0.21902948   -14.96003246    -0.00001879    -0.00000006  0.14D-08  0.30D-07  5  5     0.13
   6      1.08581028    -0.21902799   -14.96003097     0.00000149    -0.00000001  0.20D-09  0.34D-08  6  6     0.16
   7      1.08581151    -0.21902825   -14.96003123    -0.00000026    -0.00000000  0.41D-10  0.26D-09  6  1     0.18

 Norm of t1 vector:      0.06681390      S-energy:    -0.00592626      T1 diagnostic:  0.01183708
                                                                       D1 diagnostic:  0.02698271
 Norm of t2 vector:      0.28521469      P-energy:    -0.21310199
                                         Alpha-Beta:  -0.17279892
                                         Alpha-Alpha: -0.02745524
                                         Beta-Beta:   -0.01284783

 Doubles amplitudes (print threshold =  0.500E-01):

         I         J         SYM. A    SYM. B    A         B      T(IJ, AB) [Alpha-Beta]

         4         4         1         1         2         2     -0.05039135

 Spin contamination <S**2-Sz**2-Sz>     0.00166614

 Memory could be reduced to 0.94 Mwords without degradation in triples
 

 RESULTS
 =======

  Reference energy                    -14.741002980975
  UCCSD singles energy                 -0.005926262949
  UCCSD pair energy                    -0.213101988218
  UCCSD correlation energy             -0.219028251167
  Triples (T) contribution             -0.008494567025
  Total correlation energy             -0.227522818192
 
  RHF-UCCSD energy                    -14.960031232142
  RHF-UCCSD[T] energy                 -14.968531531022
  RHF-UCCSD-T energy                  -14.968497691171
 !RHF-UCCSD(T) energy                 -14.968525799167

 Program statistics:

 Available memory in ccsd:               511999732
 Min. memory needed in ccsd:                 58356
 Max. memory used in ccsd:                   70506
 Max. memory used in cckext:                 86669 ( 7 integral passes)
 Max. memory used in cckint:                165397 ( 1 integral passes)



 **********************************************************************************************************************************
 DATASETS  * FILE   NREC   LENGTH (MB)   RECORD NAMES
              1      21       23.01       500      610      700      900      950      970     1000      129      960     1100   
                                          VAR    BASINP    GEOM    SYMINP    ZMAT    AOBASIS   BASIS     P2S    ABASIS      S 
                                         1400     1410     1420     1200     1210     1080     1600     1650     1300     1700   
                                         EKIN       V       ECP      H0       H01     AOSYM     SMH    MOLCAS    ERIS     OPER   
                                         1380   
                                         JKOP   

              2       6        7.84       700     1000      520     4202     5202     2101   
                                         GEOM     BASIS   MCVARS     RHF     MCSCF     RHF  

 PROGRAMS   *        TOTAL  UCCSD(T)       RHF     MULTI       RHF       INT
 CPU TIMES  *         1.33      0.34      0.03      0.09      0.09      0.64
 REAL TIME  *         6.38 SEC
 DISK USED  *        38.49 MB      
 **********************************************************************************************************************************
 SETTING POSTHF(I)      =       -14.96852580  AU                              
                                                                                                                                                                                                                                                                

        SCF            POSTHF       EKIN          POT
    -14.74100298   -14.96852580   5.46490492   -4.73524374
                                                  

 UCCSD(T)/USERDEF energy=    -14.968525799167

        UCCSD(T)        RHF-SCF         MULTI           RHF-SCF 
    -14.96852580    -14.74100298    -14.74100298    -14.74285265
 **********************************************************************************************************************************
 Variable memory released
