
 Primary working directories    : /global/cscratch1/sd/aannabe
 Secondary working directories  : /global/cscratch1/sd/aannabe
 Wavefunction directory         : /global/homes/a/aannabe/wfu/
 Main file repository           : /global/cscratch1/sd/aannabe/

 SHA1      : 2873118e99aab1bc19f5b6fc1784693c06d15c95
 NAME      : 2015.1.8
 ARCHNAME  : linux/x86_64
 FC        : /opt/cray/pe/craype/2.5.5/bin/ftn
 BLASLIB   : -Wl,-_start-group /opt/intel/compilers_and_libraries_2016.3.210/linux/mkl/lib/intel64/libmkl_intel_ilp64.a /opt/intel/compilers_and_libraries_2016.3.210/linux/mkl/lib/intel64/libmkl_intel_thread.a /opt/intel/compilers_and_libraries_2016.3.210/linux/mkl/lib/intel64/libmkl_core.a -Wl,-_end-group
 id        : lbl

 Nodes     nprocs
 nid00681     1

 Using customized tuning parameters: mindgm=8; mindgv=16; mindgc=4; mindgr=1; noblas=0; minvec=7
 default implementation of scratch files=df  

 ***,Fe
 memory,512,m
 gthresh,twoint=1.e-12
 
 gprint,basis,orbitals
 gexpec,ekin,pot
 
 angstrom
 geometry={
 1                                                                               ! Number of atoms
 Fe 0.0 0.0 0.0
 }
 
 basis={
 Including file /global/homes/a/aannabe/docs/totals_stu_d2h/pps/Fe.pp
 Including file /global/homes/a/aannabe/docs/totals_stu_d2h/basis/unc-aug-cc-pwCVnZ/Fe_5z.basis
 }
 
 {hf; shift,-1.0,-0.5
 wf,16,1,4
 occ,4,1,1,1,1,1,1,0
 open,4.1,1.4,1.6,1.7
 sym,1,1,1,3
 }
 scf(i)=energy
 
 _CC_NORM_MAX=2.0
 {uccsd(t)
 maxit,100
 core
 }
 posthf(i)=energy
 
 table,scf,posthf,ekin,pot
 save,5.csv,new
 
 

 Variables initialized (889), CPU time= 0.00 sec
 Commands  initialized (702), CPU time= 0.01 sec, 572 directives.
 Default parameters read. Elapsed time= 0.09 sec

 Checking input...
 Passed
1


                                         ***  PROGRAM SYSTEM MOLPRO  ***
                                       Copyright, TTI GmbH Stuttgart, 2015
                                    Version 2015.1 linked Sep  7 2016 23:09:38


 **********************************************************************************************************************************
 LABEL *   Fe                                                                            
  64 bit serial version                                                                  DATE: 04-Oct-18          TIME: 15:12:13  
 **********************************************************************************************************************************

 SHA1:             2873118e99aab1bc19f5b6fc1784693c06d15c95
 **********************************************************************************************************************************

 THRESHOLDS:

 ZERO    =  1.00D-12  ONEINT  =  1.00D-12  TWOINT  =  1.00D-12  PREFAC  =  1.00D-14  LOCALI  =  1.00D-09  EORDER  =  1.00D-04
 ENERGY  =  0.00D+00  ETEST   =  0.00D+00  EDENS   =  0.00D+00  THRDEDEF=  1.00D-06  GRADIENT=  1.00D-02  STEP    =  1.00D-03
 ORBITAL =  1.00D-05  CIVEC   =  1.00D-05  COEFF   =  1.00D-04  PRINTCI =  5.00D-02  PUNCHCI =  9.90D+01  OPTGRAD =  3.00D-04
 OPTENERG=  1.00D-06  OPTSTEP =  3.00D-04  THRGRAD =  1.00D-10  COMPRESS=  1.00D-11  VARMIN  =  1.00D-07  VARMAX  =  1.00D-03
 THRDOUB =  0.00D+00  THRDIV  =  1.00D-05  THRRED  =  1.00D-07  THRPSP  =  1.00D+00  THRDC   =  1.00D-10  THRCS   =  1.00D-10
 THRNRM  =  1.00D-08  THREQ   =  0.00D+00  THRDE   =  1.00D+00  THRREF  =  1.00D-05  SPARFAC =  1.00D+00  THRDLP  =  1.00D-07
 THRDIA  =  1.00D-10  THRDLS  =  1.00D-07  THRGPS  =  0.00D+00  THRKEX  =  0.00D+00  THRDIS  =  2.00D-01  THRVAR  =  1.00D-10
 THRLOC  =  1.00D-06  THRGAP  =  1.00D-06  THRLOCT = -1.00D+00  THRGAPT = -1.00D+00  THRORB  =  1.00D-06  THRMLTP =  0.00D+00
 THRCPQCI=  1.00D-10  KEXTA   =  0.00D+00  THRCOARS=  0.00D+00  SYMTOL  =  1.00D-06  GRADTOL =  1.00D-06  THROVL  =  1.00D-08
 THRORTH =  1.00D-08  GRID    =  1.00D-06  GRIDMAX =  1.00D-03  DTMAX   =  0.00D+00  THROCCDE=  1.00D-01  THROCCDE=  1.00D-01



 ZUNIT=ANG
 

Geometry recognized as XYZ


 Variable memory set to  512000000 words,  buffer space   230000 words

 SETTING BASIS          =    USERDEF


 Recomputing integrals since basis changed


 Using spherical harmonics



 PROGRAM * SEWARD (Integral evaluation for generally contracted gaussian basis sets)     Author: Roland Lindh, 1990

 Geometry written to block  1 of record 700

 Orientation using atomic masses  
 Molecule type: Atom
 Symmetry elements: X,Y,Z
 Rotational constants:       0.0000000      0.0000000      0.0000000 GHz  (calculated with average atomic masses)

 Point group  D2h 



 ATOMIC COORDINATES

 NR  ATOM    CHARGE       X              Y              Z

   1  FE     16.00    0.000000000    0.000000000    0.000000000


          FE  CORE POTENTIAL

          f POTENTIAL

 POWERS             2
 EXPONENTIALS   1.000000    
 COEFFICIENTS   0.000000    

          s - f POTENTIAL

 POWERS             2              2
 EXPONENTIALS   20.93000       9.445000    
 COEFFICIENTS   253.7496       37.92285    

          p - f POTENTIAL

 POWERS             2              2
 EXPONENTIALS   21.76000       9.178000    
 COEFFICIENTS   161.0368       27.65130    

          d - f POTENTIAL

 POWERS             2              2
 EXPONENTIALS   25.90000       8.835000    
 COEFFICIENTS  -24.43128      -1.434251    


 BASIS DATA

   Nr Sym  Nuc  Type         Exponents   Contraction coefficients

    1.1 Ag    1  1s   149769000.000000     1.000000
    2.1 Ag    1  1s    26722500.000000     1.000000
    3.1 Ag    1  1s     5959000.000000     1.000000
    4.1 Ag    1  1s     1593610.000000     1.000000
    5.1 Ag    1  1s      493464.000000     1.000000
    6.1 Ag    1  1s      171790.000000     1.000000
    7.1 Ag    1  1s       65620.900000     1.000000
    8.1 Ag    1  1s       26965.600000     1.000000
    9.1 Ag    1  1s       11735.300000     1.000000
   10.1 Ag    1  1s        5343.430000     1.000000
   11.1 Ag    1  1s        2522.500000     1.000000
   12.1 Ag    1  1s        1226.430000     1.000000
   13.1 Ag    1  1s         611.269000     1.000000
   14.1 Ag    1  1s         311.308000     1.000000
   15.1 Ag    1  1s         161.624000     1.000000
   16.1 Ag    1  1s          85.376700     1.000000
   17.1 Ag    1  1s          45.791100     1.000000
   18.1 Ag    1  1s          24.867700     1.000000
   19.1 Ag    1  1s          13.620200     1.000000
   20.1 Ag    1  1s           7.481060     1.000000
   21.1 Ag    1  1s           4.088170     1.000000
   22.1 Ag    1  1s           2.199050     1.000000
   23.1 Ag    1  1s           1.148150     1.000000
   24.1 Ag    1  1s           0.577265     1.000000
   25.1 Ag    1  1s           0.197635     1.000000
   26.1 Ag    1  1s           0.108986     1.000000
   27.1 Ag    1  1s           0.053216     1.000000
   28.1 Ag    1  1s           0.025571     1.000000
   29.1 Ag    1  1s           6.622400     1.000000
   30.1 Ag    1  1s           0.012290     1.000000
   31.1 Ag    1  3d0        518.416000     1.000000
   32.1 Ag    1  3d2+       518.416000     1.000000
   33.1 Ag    1  3d0        152.819000     1.000000
   34.1 Ag    1  3d2+       152.819000     1.000000
   35.1 Ag    1  3d0         58.586900     1.000000
   36.1 Ag    1  3d2+        58.586900     1.000000
   37.1 Ag    1  3d0         25.456400     1.000000
   38.1 Ag    1  3d2+        25.456400     1.000000
   39.1 Ag    1  3d0         11.786800     1.000000
   40.1 Ag    1  3d2+        11.786800     1.000000
   41.1 Ag    1  3d0          5.718610     1.000000
   42.1 Ag    1  3d2+         5.718610     1.000000
   43.1 Ag    1  3d0          2.824170     1.000000
   44.1 Ag    1  3d2+         2.824170     1.000000
   45.1 Ag    1  3d0          1.379850     1.000000
   46.1 Ag    1  3d2+         1.379850     1.000000
   47.1 Ag    1  3d0          0.656160     1.000000
   48.1 Ag    1  3d2+         0.656160     1.000000
   49.1 Ag    1  3d0          0.299609     1.000000
   50.1 Ag    1  3d2+         0.299609     1.000000
   51.1 Ag    1  3d0          0.129361     1.000000
   52.1 Ag    1  3d2+         0.129361     1.000000
   53.1 Ag    1  3d0          0.051155     1.000000
   54.1 Ag    1  3d2+         0.051155     1.000000
   55.1 Ag    1  3d0          7.098200     1.000000
   56.1 Ag    1  3d2+         7.098200     1.000000
   57.1 Ag    1  3d0          4.277200     1.000000
   58.1 Ag    1  3d2+         4.277200     1.000000
   59.1 Ag    1  3d0          0.020230     1.000000
   60.1 Ag    1  3d2+         0.020230     1.000000
   61.1 Ag    1  5g0          7.547500     1.000000
   62.1 Ag    1  5g4+         7.547500     1.000000
   63.1 Ag    1  5g2+         7.547500     1.000000
   64.1 Ag    1  5g0          3.673700     1.000000
   65.1 Ag    1  5g4+         3.673700     1.000000
   66.1 Ag    1  5g2+         3.673700     1.000000
   67.1 Ag    1  5g0          1.788100     1.000000
   68.1 Ag    1  5g4+         1.788100     1.000000
   69.1 Ag    1  5g2+         1.788100     1.000000
   70.1 Ag    1  5g0          0.656400     1.000000
   71.1 Ag    1  5g4+         0.656400     1.000000
   72.1 Ag    1  5g2+         0.656400     1.000000
   73.1 Ag    1  5g0          0.240960     1.000000
   74.1 Ag    1  5g4+         0.240960     1.000000
   75.1 Ag    1  5g2+         0.240960     1.000000
   76.1 Ag    1  7i6+         7.056900     1.000000
   77.1 Ag    1  7i4+         7.056900     1.000000
   78.1 Ag    1  7i2+         7.056900     1.000000
   79.1 Ag    1  7i0          7.056900     1.000000
   80.1 Ag    1  7i6+         1.377650     1.000000
   81.1 Ag    1  7i4+         1.377650     1.000000
   82.1 Ag    1  7i2+         1.377650     1.000000
   83.1 Ag    1  7i0          1.377650     1.000000
    1.2 B3u   1  2px      86947.300000     1.000000
    2.2 B3u   1  2px      21254.000000     1.000000
    3.2 B3u   1  2px       6741.140000     1.000000
    4.2 B3u   1  2px       2557.160000     1.000000
    5.2 B3u   1  2px       1093.510000     1.000000
    6.2 B3u   1  2px        506.161000     1.000000
    7.2 B3u   1  2px        247.139000     1.000000
    8.2 B3u   1  2px        125.415000     1.000000
    9.2 B3u   1  2px         65.651200     1.000000
   10.2 B3u   1  2px         35.307900     1.000000
   11.2 B3u   1  2px         19.426000     1.000000
   12.2 B3u   1  2px         10.843800     1.000000
   13.2 B3u   1  2px          6.043590     1.000000
   14.2 B3u   1  2px          3.302450     1.000000
   15.2 B3u   1  2px          1.763890     1.000000
   16.2 B3u   1  2px          0.921386     1.000000
   17.2 B3u   1  2px          0.460373     1.000000
   18.2 B3u   1  2px          0.183772     1.000000
   19.2 B3u   1  2px          0.075833     1.000000
   20.2 B3u   1  2px          0.031099     1.000000
   21.2 B3u   1  2px         10.012800     1.000000
   22.2 B3u   1  2px          3.186900     1.000000
   23.2 B3u   1  2px          0.012750     1.000000
   24.2 B3u   1  4f1+        11.047100     1.000000
   25.2 B3u   1  4f3+        11.047100     1.000000
   26.2 B3u   1  4f1+         4.854100     1.000000
   27.2 B3u   1  4f3+         4.854100     1.000000
   28.2 B3u   1  4f1+         2.132900     1.000000
   29.2 B3u   1  4f3+         2.132900     1.000000
   30.2 B3u   1  4f1+         0.937200     1.000000
   31.2 B3u   1  4f3+         0.937200     1.000000
   32.2 B3u   1  4f1+         0.314100     1.000000
   33.2 B3u   1  4f3+         0.314100     1.000000
   34.2 B3u   1  4f1+         0.105270     1.000000
   35.2 B3u   1  4f3+         0.105270     1.000000
   36.2 B3u   1  6h1+         6.926300     1.000000
   37.2 B3u   1  6h3+         6.926300     1.000000
   38.2 B3u   1  6h5+         6.926300     1.000000
   39.2 B3u   1  6h1+         3.252700     1.000000
   40.2 B3u   1  6h3+         3.252700     1.000000
   41.2 B3u   1  6h5+         3.252700     1.000000
   42.2 B3u   1  6h1+         1.296400     1.000000
   43.2 B3u   1  6h3+         1.296400     1.000000
   44.2 B3u   1  6h5+         1.296400     1.000000
   45.2 B3u   1  6h1+         0.516690     1.000000
   46.2 B3u   1  6h3+         0.516690     1.000000
   47.2 B3u   1  6h5+         0.516690     1.000000
    1.3 B2u   1  2py      86947.300000     1.000000
    2.3 B2u   1  2py      21254.000000     1.000000
    3.3 B2u   1  2py       6741.140000     1.000000
    4.3 B2u   1  2py       2557.160000     1.000000
    5.3 B2u   1  2py       1093.510000     1.000000
    6.3 B2u   1  2py        506.161000     1.000000
    7.3 B2u   1  2py        247.139000     1.000000
    8.3 B2u   1  2py        125.415000     1.000000
    9.3 B2u   1  2py         65.651200     1.000000
   10.3 B2u   1  2py         35.307900     1.000000
   11.3 B2u   1  2py         19.426000     1.000000
   12.3 B2u   1  2py         10.843800     1.000000
   13.3 B2u   1  2py          6.043590     1.000000
   14.3 B2u   1  2py          3.302450     1.000000
   15.3 B2u   1  2py          1.763890     1.000000
   16.3 B2u   1  2py          0.921386     1.000000
   17.3 B2u   1  2py          0.460373     1.000000
   18.3 B2u   1  2py          0.183772     1.000000
   19.3 B2u   1  2py          0.075833     1.000000
   20.3 B2u   1  2py          0.031099     1.000000
   21.3 B2u   1  2py         10.012800     1.000000
   22.3 B2u   1  2py          3.186900     1.000000
   23.3 B2u   1  2py          0.012750     1.000000
   24.3 B2u   1  4f1-        11.047100     1.000000
   25.3 B2u   1  4f3-        11.047100     1.000000
   26.3 B2u   1  4f1-         4.854100     1.000000
   27.3 B2u   1  4f3-         4.854100     1.000000
   28.3 B2u   1  4f1-         2.132900     1.000000
   29.3 B2u   1  4f3-         2.132900     1.000000
   30.3 B2u   1  4f1-         0.937200     1.000000
   31.3 B2u   1  4f3-         0.937200     1.000000
   32.3 B2u   1  4f1-         0.314100     1.000000
   33.3 B2u   1  4f3-         0.314100     1.000000
   34.3 B2u   1  4f1-         0.105270     1.000000
   35.3 B2u   1  4f3-         0.105270     1.000000
   36.3 B2u   1  6h1-         6.926300     1.000000
   37.3 B2u   1  6h3-         6.926300     1.000000
   38.3 B2u   1  6h5-         6.926300     1.000000
   39.3 B2u   1  6h1-         3.252700     1.000000
   40.3 B2u   1  6h3-         3.252700     1.000000
   41.3 B2u   1  6h5-         3.252700     1.000000
   42.3 B2u   1  6h1-         1.296400     1.000000
   43.3 B2u   1  6h3-         1.296400     1.000000
   44.3 B2u   1  6h5-         1.296400     1.000000
   45.3 B2u   1  6h1-         0.516690     1.000000
   46.3 B2u   1  6h3-         0.516690     1.000000
   47.3 B2u   1  6h5-         0.516690     1.000000
    1.4 B1g   1  3d2-       518.416000     1.000000
    2.4 B1g   1  3d2-       152.819000     1.000000
    3.4 B1g   1  3d2-        58.586900     1.000000
    4.4 B1g   1  3d2-        25.456400     1.000000
    5.4 B1g   1  3d2-        11.786800     1.000000
    6.4 B1g   1  3d2-         5.718610     1.000000
    7.4 B1g   1  3d2-         2.824170     1.000000
    8.4 B1g   1  3d2-         1.379850     1.000000
    9.4 B1g   1  3d2-         0.656160     1.000000
   10.4 B1g   1  3d2-         0.299609     1.000000
   11.4 B1g   1  3d2-         0.129361     1.000000
   12.4 B1g   1  3d2-         0.051155     1.000000
   13.4 B1g   1  3d2-         7.098200     1.000000
   14.4 B1g   1  3d2-         4.277200     1.000000
   15.4 B1g   1  3d2-         0.020230     1.000000
   16.4 B1g   1  5g2-         7.547500     1.000000
   17.4 B1g   1  5g4-         7.547500     1.000000
   18.4 B1g   1  5g2-         3.673700     1.000000
   19.4 B1g   1  5g4-         3.673700     1.000000
   20.4 B1g   1  5g2-         1.788100     1.000000
   21.4 B1g   1  5g4-         1.788100     1.000000
   22.4 B1g   1  5g2-         0.656400     1.000000
   23.4 B1g   1  5g4-         0.656400     1.000000
   24.4 B1g   1  5g2-         0.240960     1.000000
   25.4 B1g   1  5g4-         0.240960     1.000000
   26.4 B1g   1  7i2-         7.056900     1.000000
   27.4 B1g   1  7i6-         7.056900     1.000000
   28.4 B1g   1  7i4-         7.056900     1.000000
   29.4 B1g   1  7i2-         1.377650     1.000000
   30.4 B1g   1  7i6-         1.377650     1.000000
   31.4 B1g   1  7i4-         1.377650     1.000000
    1.5 B1u   1  2pz      86947.300000     1.000000
    2.5 B1u   1  2pz      21254.000000     1.000000
    3.5 B1u   1  2pz       6741.140000     1.000000
    4.5 B1u   1  2pz       2557.160000     1.000000
    5.5 B1u   1  2pz       1093.510000     1.000000
    6.5 B1u   1  2pz        506.161000     1.000000
    7.5 B1u   1  2pz        247.139000     1.000000
    8.5 B1u   1  2pz        125.415000     1.000000
    9.5 B1u   1  2pz         65.651200     1.000000
   10.5 B1u   1  2pz         35.307900     1.000000
   11.5 B1u   1  2pz         19.426000     1.000000
   12.5 B1u   1  2pz         10.843800     1.000000
   13.5 B1u   1  2pz          6.043590     1.000000
   14.5 B1u   1  2pz          3.302450     1.000000
   15.5 B1u   1  2pz          1.763890     1.000000
   16.5 B1u   1  2pz          0.921386     1.000000
   17.5 B1u   1  2pz          0.460373     1.000000
   18.5 B1u   1  2pz          0.183772     1.000000
   19.5 B1u   1  2pz          0.075833     1.000000
   20.5 B1u   1  2pz          0.031099     1.000000
   21.5 B1u   1  2pz         10.012800     1.000000
   22.5 B1u   1  2pz          3.186900     1.000000
   23.5 B1u   1  2pz          0.012750     1.000000
   24.5 B1u   1  4f0         11.047100     1.000000
   25.5 B1u   1  4f2+        11.047100     1.000000
   26.5 B1u   1  4f0          4.854100     1.000000
   27.5 B1u   1  4f2+         4.854100     1.000000
   28.5 B1u   1  4f0          2.132900     1.000000
   29.5 B1u   1  4f2+         2.132900     1.000000
   30.5 B1u   1  4f0          0.937200     1.000000
   31.5 B1u   1  4f2+         0.937200     1.000000
   32.5 B1u   1  4f0          0.314100     1.000000
   33.5 B1u   1  4f2+         0.314100     1.000000
   34.5 B1u   1  4f0          0.105270     1.000000
   35.5 B1u   1  4f2+         0.105270     1.000000
   36.5 B1u   1  6h2+         6.926300     1.000000
   37.5 B1u   1  6h4+         6.926300     1.000000
   38.5 B1u   1  6h0          6.926300     1.000000
   39.5 B1u   1  6h2+         3.252700     1.000000
   40.5 B1u   1  6h4+         3.252700     1.000000
   41.5 B1u   1  6h0          3.252700     1.000000
   42.5 B1u   1  6h2+         1.296400     1.000000
   43.5 B1u   1  6h4+         1.296400     1.000000
   44.5 B1u   1  6h0          1.296400     1.000000
   45.5 B1u   1  6h2+         0.516690     1.000000
   46.5 B1u   1  6h4+         0.516690     1.000000
   47.5 B1u   1  6h0          0.516690     1.000000
    1.6 B2g   1  3d1+       518.416000     1.000000
    2.6 B2g   1  3d1+       152.819000     1.000000
    3.6 B2g   1  3d1+        58.586900     1.000000
    4.6 B2g   1  3d1+        25.456400     1.000000
    5.6 B2g   1  3d1+        11.786800     1.000000
    6.6 B2g   1  3d1+         5.718610     1.000000
    7.6 B2g   1  3d1+         2.824170     1.000000
    8.6 B2g   1  3d1+         1.379850     1.000000
    9.6 B2g   1  3d1+         0.656160     1.000000
   10.6 B2g   1  3d1+         0.299609     1.000000
   11.6 B2g   1  3d1+         0.129361     1.000000
   12.6 B2g   1  3d1+         0.051155     1.000000
   13.6 B2g   1  3d1+         7.098200     1.000000
   14.6 B2g   1  3d1+         4.277200     1.000000
   15.6 B2g   1  3d1+         0.020230     1.000000
   16.6 B2g   1  5g1+         7.547500     1.000000
   17.6 B2g   1  5g3+         7.547500     1.000000
   18.6 B2g   1  5g1+         3.673700     1.000000
   19.6 B2g   1  5g3+         3.673700     1.000000
   20.6 B2g   1  5g1+         1.788100     1.000000
   21.6 B2g   1  5g3+         1.788100     1.000000
   22.6 B2g   1  5g1+         0.656400     1.000000
   23.6 B2g   1  5g3+         0.656400     1.000000
   24.6 B2g   1  5g1+         0.240960     1.000000
   25.6 B2g   1  5g3+         0.240960     1.000000
   26.6 B2g   1  7i5+         7.056900     1.000000
   27.6 B2g   1  7i3+         7.056900     1.000000
   28.6 B2g   1  7i1+         7.056900     1.000000
   29.6 B2g   1  7i5+         1.377650     1.000000
   30.6 B2g   1  7i3+         1.377650     1.000000
   31.6 B2g   1  7i1+         1.377650     1.000000
    1.7 B3g   1  3d1-       518.416000     1.000000
    2.7 B3g   1  3d1-       152.819000     1.000000
    3.7 B3g   1  3d1-        58.586900     1.000000
    4.7 B3g   1  3d1-        25.456400     1.000000
    5.7 B3g   1  3d1-        11.786800     1.000000
    6.7 B3g   1  3d1-         5.718610     1.000000
    7.7 B3g   1  3d1-         2.824170     1.000000
    8.7 B3g   1  3d1-         1.379850     1.000000
    9.7 B3g   1  3d1-         0.656160     1.000000
   10.7 B3g   1  3d1-         0.299609     1.000000
   11.7 B3g   1  3d1-         0.129361     1.000000
   12.7 B3g   1  3d1-         0.051155     1.000000
   13.7 B3g   1  3d1-         7.098200     1.000000
   14.7 B3g   1  3d1-         4.277200     1.000000
   15.7 B3g   1  3d1-         0.020230     1.000000
   16.7 B3g   1  5g1-         7.547500     1.000000
   17.7 B3g   1  5g3-         7.547500     1.000000
   18.7 B3g   1  5g1-         3.673700     1.000000
   19.7 B3g   1  5g3-         3.673700     1.000000
   20.7 B3g   1  5g1-         1.788100     1.000000
   21.7 B3g   1  5g3-         1.788100     1.000000
   22.7 B3g   1  5g1-         0.656400     1.000000
   23.7 B3g   1  5g3-         0.656400     1.000000
   24.7 B3g   1  5g1-         0.240960     1.000000
   25.7 B3g   1  5g3-         0.240960     1.000000
   26.7 B3g   1  7i5-         7.056900     1.000000
   27.7 B3g   1  7i3-         7.056900     1.000000
   28.7 B3g   1  7i1-         7.056900     1.000000
   29.7 B3g   1  7i5-         1.377650     1.000000
   30.7 B3g   1  7i3-         1.377650     1.000000
   31.7 B3g   1  7i1-         1.377650     1.000000
    1.8 Au    1  4f2-        11.047100     1.000000
    2.8 Au    1  4f2-         4.854100     1.000000
    3.8 Au    1  4f2-         2.132900     1.000000
    4.8 Au    1  4f2-         0.937200     1.000000
    5.8 Au    1  4f2-         0.314100     1.000000
    6.8 Au    1  4f2-         0.105270     1.000000
    7.8 Au    1  6h4-         6.926300     1.000000
    8.8 Au    1  6h2-         6.926300     1.000000
    9.8 Au    1  6h4-         3.252700     1.000000
   10.8 Au    1  6h2-         3.252700     1.000000
   11.8 Au    1  6h4-         1.296400     1.000000
   12.8 Au    1  6h2-         1.296400     1.000000
   13.8 Au    1  6h4-         0.516690     1.000000
   14.8 Au    1  6h2-         0.516690     1.000000

 NUCLEAR CHARGE:                   16
 NUMBER OF PRIMITIVE AOS:         464
 NUMBER OF SYMMETRY AOS:          331
 NUMBER OF CONTRACTIONS:          331   (  83Ag  +  47B3u +  47B2u +  31B1g +  47B1u +  31B2g +  31B3g +  14Au  )
 NUMBER OF CORE ORBITALS:           4   (   1Ag  +   1B3u +   1B2u +   0B1g +   1B1u +   0B2g +   0B3g +   0Au  )
 NUMBER OF VALENCE ORBITALS:        6   (   3Ag  +   0B3u +   0B2u +   1B1g +   0B1u +   1B2g +   1B3g +   0Au  )


 NUCLEAR REPULSION ENERGY    0.00000000

 EXTRA SYMMETRY OF AOS IN SYMMETRY 1:   1 1 1 1 1 1 1 1 1 1   1 1 1 1 1 1 1 1 1 1   1 1 1 1 1 1 1 1 1 1   2 3 2 3 2 3 2 3 2 3
                                        2 3 2 3 2 3 2 3 2 3   2 3 2 3 2 3 2 3 2 3   4 5 6 4 5 6 4 5 6 4   5 6 4 5 6 7 8 910 7
                                        8 910
 EXTRA SYMMETRY OF AOS IN SYMMETRY 2:   1 1 1 1 1 1 1 1 1 1   1 1 1 1 1 1 1 1 1 1   1 1 1 2 3 2 3 2 3 2   3 2 3 2 3 4 5 6 4 5
                                        6 4 5 6 4 5 6
 EXTRA SYMMETRY OF AOS IN SYMMETRY 3:   1 1 1 1 1 1 1 1 1 1   1 1 1 1 1 1 1 1 1 1   1 1 1 2 3 2 3 2 3 2   3 2 3 2 3 4 5 6 4 5
                                        6 4 5 6 4 5 6
 EXTRA SYMMETRY OF AOS IN SYMMETRY 4:   1 1 1 1 1 1 1 1 1 1   1 1 1 1 1 2 3 2 3 2   3 2 3 2 3 4 5 6 4 5   6
 EXTRA SYMMETRY OF AOS IN SYMMETRY 5:   1 1 1 1 1 1 1 1 1 1   1 1 1 1 1 1 1 1 1 1   1 1 1 2 3 2 3 2 3 2   3 2 3 2 3 4 5 6 4 5
                                        6 4 5 6 4 5 6
 EXTRA SYMMETRY OF AOS IN SYMMETRY 6:   1 1 1 1 1 1 1 1 1 1   1 1 1 1 1 2 3 2 3 2   3 2 3 2 3 4 5 6 4 5   6
 EXTRA SYMMETRY OF AOS IN SYMMETRY 7:   1 1 1 1 1 1 1 1 1 1   1 1 1 1 1 2 3 2 3 2   3 2 3 2 3 4 5 6 4 5   6
 EXTRA SYMMETRY OF AOS IN SYMMETRY 8:   1 1 1 1 1 1 2 3 2 3   2 3 2 3

 Eigenvalues of metric

         1 0.306E-06 0.642E-05 0.642E-05 0.350E-04 0.111E-03 0.278E-03 0.471E-03 0.471E-03
         2 0.608E-07 0.929E-06 0.225E-03 0.817E-03 0.228E-02 0.521E-02 0.118E-01 0.197E-01
         3 0.608E-07 0.929E-06 0.225E-03 0.817E-03 0.228E-02 0.521E-02 0.118E-01 0.197E-01
         4 0.642E-05 0.471E-03 0.669E-02 0.209E-01 0.496E-01 0.914E-01 0.914E-01 0.971E-01
         5 0.608E-07 0.929E-06 0.225E-03 0.817E-03 0.228E-02 0.521E-02 0.118E-01 0.197E-01
         6 0.642E-05 0.471E-03 0.669E-02 0.209E-01 0.496E-01 0.914E-01 0.914E-01 0.971E-01
         7 0.642E-05 0.471E-03 0.669E-02 0.209E-01 0.496E-01 0.914E-01 0.914E-01 0.971E-01
         8 0.685E-01 0.198E+00 0.198E+00 0.243E+00 0.507E+00 0.543E+00 0.543E+00 0.104E+01


 Contracted 2-electron integrals neglected if value below      1.0D-13
 AO integral compression algorithm  1   Integral accuracy      1.0D-13

     920.125 MB (compressed) written to integral file ( 41.6%)


 NUMBER OF SORTED TWO-ELECTRON INTEGRALS:  193685691.     BUFFER LENGTH:  32768
 NUMBER OF SEGMENTS:   7  SEGMENT LENGTH:   31998522      RECORD LENGTH: 524288

 Memory used in sort:      32.56 MW

 SORT1 READ   276391819. AND WROTE   101724653. INTEGRALS IN    296 RECORDS. CPU TIME:     5.93 SEC, REAL TIME:     8.00 SEC
 SORT2 READ   101724653. AND WROTE   193685691. INTEGRALS IN   3510 RECORDS. CPU TIME:     2.97 SEC, REAL TIME:     4.80 SEC

 FILE SIZES:   FILE 1:   941.8 MBYTE,  FILE 4:  1241.5 MBYTE,   TOTAL:   2183.3 MBYTE

 OPERATOR DM      FOR CENTER  0  COORDINATES:    0.000000    0.000000    0.000000
 OPERATOR EKIN    FOR CENTER  0  COORDINATES:    0.000000    0.000000    0.000000
 OPERATOR POT     FOR CENTER  0  COORDINATES:    0.000000    0.000000    0.000000


 **********************************************************************************************************************************
 DATASETS  * FILE   NREC   LENGTH (MB)   RECORD NAMES
              1      20      586.12       500      610      700      900      950      970     1000      129      960     1100   
                                          VAR    BASINP    GEOM    SYMINP    ZMAT    AOBASIS   BASIS     P2S    ABASIS      S 
                                         1400     1410     1420     1200     1210     1080     1600     1650     1300     1700   
                                         EKIN       V       ECP      H0       H01     AOSYM     SMH    MOLCAS    ERIS     OPER   

 PROGRAMS   *        TOTAL       INT
 CPU TIMES  *        87.66     87.55
 REAL TIME  *       102.49 SEC
 DISK USED  *         2.18 GB      
 **********************************************************************************************************************************


 PROGRAM * RHF-SCF (OPEN SHELL)       Authors: W. Meyer, H.-J. Werner


 NUMBER OF ELECTRONS:      10+    6-    SPACE SYMMETRY=1    SPIN SYMMETRY: Quintet 
 CONVERGENCE THRESHOLDS:    1.00E-05 (Density)    1.00E-07 (Energy)
 MAX. NUMBER OF ITERATIONS:       60
 INTERPOLATION TYPE:            DIIS
 INTERPOLATION STEPS:              2 (START)      1 (STEP)
 LEVEL SHIFTS:                 -1.00 (CLOSED) -0.50 (OPEN) 


 Singly occupied orbitals:      4.1       1.4       1.6       1.7
 
 Extra symmetries of mos in symmetry 1:   1   1   3

   Atom=FE basis=ECP10MDF_GUESS    lmin=0  lmax=2

 Orbital guess generated from atomic densities. Full valence occupancy:    4   1   1   1   1   1   1   0


 Molecular orbital dump at record        2100.2

 ITERATION    DDIFF          GRAD             ENERGY        2-EL.EN.            DIPOLE MOMENTS         DIIS   ORB.
    1      0.000D+00      0.000D+00      -123.02792193    181.061014    0.00000    0.00000    0.00000    0    start
    2      0.000D+00      0.143D-01      -123.10657187    188.095900    0.00000    0.00000    0.00000    1    diag,B
    3      0.682D-02      0.840D-02      -123.11673178    187.038391    0.00000    0.00000    0.00000    2    diag,B
    4      0.641D-03      0.232D-02      -123.11929931    187.114102    0.00000    0.00000    0.00000    3    diag,B
    5      0.581D-03      0.546D-03      -123.11963486    187.145811    0.00000    0.00000    0.00000    4    diag,B
    6      0.371D-03      0.169D-03      -123.11968908    187.117747    0.00000    0.00000    0.00000    5    diag,B
    7      0.202D-03      0.836D-04      -123.11970829    187.091622    0.00000    0.00000    0.00000    6    fixocc
    8      0.185D-03      0.375D-04      -123.11971292    187.078468    0.00000    0.00000    0.00000    7    diag,B
    9      0.168D-03      0.175D-04      -123.11971411    187.073039    0.00000    0.00000    0.00000    8    diag,B
   10      0.714D-04      0.952D-05      -123.11971456    187.071304    0.00000    0.00000    0.00000    9    orth
   11      0.799D-04      0.559D-05      -123.11971474    187.070445    0.00000    0.00000    0.00000    9    diag,B
   12      0.422D-04      0.450D-05      -123.11971488    187.070216    0.00000    0.00000    0.00000    9    diag,B
   13      0.802D-05      0.428D-05      -123.11971501    187.070130    0.00000    0.00000    0.00000    9    diag,B
   14      0.503D-05      0.422D-05      -123.11971515    187.070135    0.00000    0.00000    0.00000    9    diag,B
   15      0.619D-05      0.419D-05      -123.11971531    187.070138    0.00000    0.00000    0.00000    9    diag,B
   16      0.384D-05      0.419D-05      -123.11971545    187.070138    0.00000    0.00000    0.00000    9    diag,B
   17      0.151D-05      0.419D-05      -123.11971572    187.070130    0.00000    0.00000    0.00000    9    diag,B
   18      0.252D-05      0.418D-05      -123.11971700    187.070100    0.00000    0.00000    0.00000    9    diag,B
   19      0.116D-04      0.417D-05      -123.11971997    187.070060    0.00000    0.00000    0.00000    9    diag,B
   20      0.270D-04      0.417D-05      -123.11972005    187.070053    0.00000    0.00000    0.00000    9    orth
   21      0.743D-06      0.418D-05      -123.11972024    187.070105    0.00000    0.00000    0.00000    0    orth

 Final alpha occupancy:   4   1   1   1   1   1   1   0
 Final beta  occupancy:   3   1   1   0   1   0   0   0

 !RHF STATE 1.1 Energy               -123.119720240083
 Nuclear energy                         0.00000000
 One-electron energy                 -216.65477270
 Two-electron energy                   93.53505246
 Virial quotient                       -1.69340324
 !RHF STATE 1.1 Dipole moment           0.00000000     0.00000000     0.00000000
 Dipole moment /Debye                   0.00000000     0.00000000     0.00000000
 

 !RHF expec          <1.1|EKIN|1.1>    72.705494522823
 
 !RHF expec           <1.1|POT|1.1>   -18.927060390486

 ELECTRON ORBITALS
 =================


   Orb  Occ    Energy  Couls-En    Coefficients

                                   1 1s      1 1s      1 1s      1 1s      1 1s      1 1s      1 1s      1 1s      1 1s      1 1s   
                                   1 1s      1 1s      1 1s      1 1s      1 1s      1 1s      1 1s      1 1s      1 1s      1 1s   
                                   1 1s      1 1s      1 1s      1 1s      1 1s      1 1s      1 1s      1 1s      1 1s      1 1s   
                                   1 3d0     1 3d2+    1 3d0     1 3d2+    1 3d0     1 3d2+    1 3d0     1 3d2+    1 3d0     1 3d2+ 
                                   1 3d0     1 3d2+    1 3d0     1 3d2+    1 3d0     1 3d2+    1 3d0     1 3d2+    1 3d0     1 3d2+ 
                                   1 3d0     1 3d2+    1 3d0     1 3d2+    1 3d0     1 3d2+    1 3d0     1 3d2+    1 3d0     1 3d2+ 
                                   1 5g0     1 5g4+    1 5g2+    1 5g0     1 5g4+    1 5g2+    1 5g0     1 5g4+    1 5g2+    1 5g0  
                                   1 5g4+    1 5g2+    1 5g0     1 5g4+    1 5g2+    1 7i6+    1 7i4+    1 7i2+    1 7i0     1 7i6+ 
                                   1 7i4+    1 7i2+    1 7i0  

   1.1   2    -4.3238  -21.7112  0.000000  0.000000  0.000000  0.000000  0.000000  0.000000  0.000001  0.000003  0.000004  0.000023
                                 0.000021  0.000134  0.000059  0.000651 -0.000388  0.003802 -0.019034  0.107371 -0.113246 -0.420467
                                -0.021435  0.476100  0.564315  0.209046  0.008717 -0.002177  0.000604 -0.000156  0.068738  0.000032
                                 0.000000  0.000000 -0.000000  0.000003  0.000001  0.000028  0.000001  0.000145 -0.000037  0.000370
                                 0.000879  0.001196  0.001326  0.001824  0.000346  0.001536 -0.001464  0.000463 -0.001019  0.000145
                                -0.000206  0.000051 -0.000008 -0.000001 -0.000468 -0.000208 -0.000537 -0.000241  0.000000  0.000001
                                 0.000038  0.000173  0.000053  0.000009  0.000038  0.000014  0.000115  0.000532  0.000164  0.000088
                                 0.000433  0.000131  0.000003  0.000021  0.000006 -0.000001 -0.000000 -0.000000 -0.000000 -0.000001
                                 0.000001  0.000001  0.000001

   2.1   2    -0.2627   -5.8975 -0.000000 -0.000000 -0.000000 -0.000000 -0.000000 -0.000000 -0.000000 -0.000001 -0.000001 -0.000006
                                -0.000006 -0.000033 -0.000017 -0.000156  0.000076 -0.000880  0.004456 -0.026321  0.030774  0.095673
                                -0.003665 -0.130549 -0.218618 -0.172833  0.140393  0.433268  0.479801  0.119053 -0.004847  0.000658
                                 0.000000 -0.000000  0.000001 -0.000004  0.000011 -0.000034  0.000053 -0.000178  0.000169 -0.000464
                                 0.000330 -0.000946  0.000183 -0.001589  0.000413 -0.001739  0.002795 -0.000447  0.006223  0.001781
                                 0.006395  0.002569  0.002397  0.001063 -0.000021 -0.000023 -0.000083 -0.000050  0.000010 -0.000004
                                -0.000002 -0.000013 -0.000004  0.000017  0.000074  0.000021  0.000030  0.000092  0.000029  0.000016
                                -0.000063 -0.000006 -0.000002 -0.000150 -0.000028  0.000001  0.000000  0.000000  0.000000  0.000000
                                -0.000002 -0.000001 -0.000001

   3.1   2    -0.5462  -13.1139 -0.000000 -0.000000 -0.000000 -0.000000 -0.000000 -0.000000 -0.000000 -0.000000 -0.000000 -0.000000
                                -0.000000 -0.000001 -0.000000 -0.000003  0.000002 -0.000015  0.000073 -0.000393  0.000371  0.001597
                                 0.000165 -0.001692 -0.002133 -0.001009 -0.000067  0.000059  0.000006  0.000008 -0.000277 -0.000002
                                 0.000017  0.000074  0.000175  0.000755  0.001397  0.006029  0.007231  0.031213  0.019380  0.083655
                                 0.038962  0.168192  0.059364  0.256275  0.068140  0.294162  0.061097  0.263740  0.039220  0.169207
                                 0.013072  0.056290  0.000801  0.003429  0.000622  0.002682  0.000621  0.002678  0.000007  0.000032
                                 0.000081  0.000123  0.000187  0.000159  0.000241  0.000366  0.000414  0.000635  0.000952  0.000384
                                 0.000600  0.000879  0.000073  0.000121  0.000164 -0.000178 -0.000053 -0.000039 -0.000022 -0.000440
                                -0.000129 -0.000094 -0.000053

   4.1   +    -0.7055  -13.5609  0.000000  0.000000  0.000000  0.000000  0.000000  0.000000  0.000000  0.000000  0.000000  0.000000
                                 0.000000  0.000001  0.000000  0.000003 -0.000002  0.000016 -0.000078  0.000495 -0.000717 -0.000980
                                 0.000493  0.002231  0.003632  0.000757 -0.002458 -0.003219 -0.003917 -0.000804 -0.000660 -0.000032
                                 0.000076 -0.000018  0.000780 -0.000181  0.006227 -0.001442  0.032213 -0.007459  0.086346 -0.019995
                                 0.174769 -0.040459  0.267690 -0.061972  0.305787 -0.070811  0.260310 -0.060342  0.142157 -0.033001
                                 0.033360 -0.007769  0.000679 -0.000169  0.002532 -0.000591  0.002502 -0.000586  0.000130 -0.000030
                                 0.000405  0.000167  0.000027  0.000752  0.000394  0.000033  0.001915  0.000827  0.000128  0.001692
                                 0.000516  0.000166  0.000295 -0.000041  0.000058  0.000090 -0.000143 -0.000081 -0.000073  0.000203
                                -0.000315 -0.000178 -0.000158

                                   1 2px     1 2px     1 2px     1 2px     1 2px     1 2px     1 2px     1 2px     1 2px     1 2px  
                                   1 2px     1 2px     1 2px     1 2px     1 2px     1 2px     1 2px     1 2px     1 2px     1 2px  
                                   1 2px     1 2px     1 2px     1 4f1+    1 4f3+    1 4f1+    1 4f3+    1 4f1+    1 4f3+    1 4f1+ 
                                   1 4f3+    1 4f1+    1 4f3+    1 4f1+    1 4f3+    1 6h1+    1 6h3+    1 6h5+    1 6h1+    1 6h3+ 
                                   1 6h5+    1 6h1+    1 6h3+    1 6h5+    1 6h1+    1 6h3+    1 6h5+ 

   1.2   2    -2.7601  -18.4496  0.000000  0.000000  0.000000  0.000006  0.000004  0.000074  0.000025  0.000641 -0.000829  0.010825
                                -0.025516 -0.118358  0.026493  0.376360  0.407995  0.316329  0.109696  0.008552 -0.000001  0.000203
                                 0.044583 -0.098412 -0.000049  0.000065  0.000364  0.000599  0.001398  0.001350  0.002772  0.000726
                                 0.003000  0.000023  0.001095 -0.000003 -0.000049 -0.000003 -0.000004 -0.000049 -0.000011 -0.000013
                                -0.000173  0.000000  0.000002 -0.000020  0.000005  0.000007  0.000064

                                   1 2py     1 2py     1 2py     1 2py     1 2py     1 2py     1 2py     1 2py     1 2py     1 2py  
                                   1 2py     1 2py     1 2py     1 2py     1 2py     1 2py     1 2py     1 2py     1 2py     1 2py  
                                   1 2py     1 2py     1 2py     1 4f1-    1 4f3-    1 4f1-    1 4f3-    1 4f1-    1 4f3-    1 4f1- 
                                   1 4f3-    1 4f1-    1 4f3-    1 4f1-    1 4f3-    1 6h1-    1 6h3-    1 6h5-    1 6h1-    1 6h3- 
                                   1 6h5-    1 6h1-    1 6h3-    1 6h5-    1 6h1-    1 6h3-    1 6h5- 

   1.3   2    -2.7562  -18.4408  0.000000  0.000000  0.000000  0.000006  0.000004  0.000074  0.000025  0.000641 -0.000827  0.010817
                                -0.025532 -0.118580  0.026590  0.378124  0.407117  0.316004  0.111157  0.009109 -0.000031  0.000227
                                 0.044960 -0.100399 -0.000057 -0.000082 -0.000354  0.000259 -0.000880  0.000786 -0.001505 -0.000353
                                -0.002643 -0.000537 -0.001322  0.000020  0.000054 -0.000014 -0.000020 -0.000050 -0.000050 -0.000069
                                -0.000176 -0.000008 -0.000013 -0.000028  0.000017  0.000023  0.000061

                                   1 3d2-    1 3d2-    1 3d2-    1 3d2-    1 3d2-    1 3d2-    1 3d2-    1 3d2-    1 3d2-    1 3d2- 
                                   1 3d2-    1 3d2-    1 3d2-    1 3d2-    1 3d2-    1 5g2-    1 5g4-    1 5g2-    1 5g4-    1 5g2- 
                                   1 5g4-    1 5g2-    1 5g4-    1 5g2-    1 5g4-    1 7i2-    1 7i6-    1 7i4-    1 7i2-    1 7i6- 
                                   1 7i4- 

   1.4   +    -0.6653  -13.4653  0.000078  0.000796  0.006352  0.032861  0.088072  0.178039  0.272450  0.311547  0.268130  0.151800
                                 0.038655  0.001068  0.002609  0.002582  0.000132  0.000273  0.000248  0.000507  0.000478  0.001302
                                 0.001207  0.001177  0.001067  0.000223  0.000181 -0.000028 -0.000387 -0.000076 -0.000060 -0.000868
                                -0.000168

                                   1 2pz     1 2pz     1 2pz     1 2pz     1 2pz     1 2pz     1 2pz     1 2pz     1 2pz     1 2pz  
                                   1 2pz     1 2pz     1 2pz     1 2pz     1 2pz     1 2pz     1 2pz     1 2pz     1 2pz     1 2pz  
                                   1 2pz     1 2pz     1 2pz     1 4f0     1 4f2+    1 4f0     1 4f2+    1 4f0     1 4f2+    1 4f0  
                                   1 4f2+    1 4f0     1 4f2+    1 4f0     1 4f2+    1 6h2+    1 6h4+    1 6h0     1 6h2+    1 6h4+ 
                                   1 6h0     1 6h2+    1 6h4+    1 6h0     1 6h2+    1 6h4+    1 6h0  

   1.5   2    -2.7642  -18.4601  0.000000  0.000000  0.000000  0.000006  0.000004  0.000074  0.000024  0.000642 -0.000833  0.010834
                                -0.025491 -0.118156  0.026324  0.374683  0.409159  0.316657  0.107898  0.007944  0.000055  0.000175
                                 0.044201 -0.096454 -0.000041  0.000140  0.000122  0.001005  0.000586  0.002210  0.001222  0.001408
                                 0.001072  0.000189  0.000304 -0.000011 -0.000015 -0.000014 -0.000031 -0.000011 -0.000049 -0.000110
                                -0.000038 -0.000003 -0.000013 -0.000001  0.000019  0.000040  0.000015

                                   1 3d1+    1 3d1+    1 3d1+    1 3d1+    1 3d1+    1 3d1+    1 3d1+    1 3d1+    1 3d1+    1 3d1+ 
                                   1 3d1+    1 3d1+    1 3d1+    1 3d1+    1 3d1+    1 5g1+    1 5g3+    1 5g1+    1 5g3+    1 5g1+ 
                                   1 5g3+    1 5g1+    1 5g3+    1 5g1+    1 5g3+    1 7i5+    1 7i3+    1 7i1+    1 7i5+    1 7i3+ 
                                   1 7i1+ 

   1.6   +    -0.7016  -13.5520  0.000078  0.000800  0.006388  0.033046  0.088578  0.179255  0.274540  0.313659  0.267339  0.146525
                                 0.034676  0.000742  0.002605  0.002576  0.000134  0.000336 -0.000023  0.000626 -0.000111  0.001588
                                -0.000135  0.001399  0.000060  0.000242  0.000117 -0.000226 -0.000033 -0.000028 -0.000504 -0.000075
                                -0.000059

                                   1 3d1-    1 3d1-    1 3d1-    1 3d1-    1 3d1-    1 3d1-    1 3d1-    1 3d1-    1 3d1-    1 3d1- 
                                   1 3d1-    1 3d1-    1 3d1-    1 3d1-    1 3d1-    1 5g1-    1 5g3-    1 5g1-    1 5g3-    1 5g1- 
                                   1 5g3-    1 5g1-    1 5g3-    1 5g1-    1 5g3-    1 7i5-    1 7i3-    1 7i1-    1 7i5-    1 7i3- 
                                   1 7i1- 

   1.7   +    -0.6858  -13.5152  0.000078  0.000798  0.006373  0.032970  0.088370  0.178760  0.273676  0.312771  0.267653  0.148744
                                 0.036337  0.000871  0.002603  0.002574  0.000134  0.000511  0.000261  0.000978  0.000531  0.002448
                                 0.001274  0.002123  0.001037  0.000344  0.000121 -0.000224 -0.000134 -0.000114 -0.000497 -0.000295
                                -0.000248

 HOMO      1.4    -0.665271 =     -18.1029eV
 LUMO      2.5     0.017965 =       0.4888eV
 LUMO-HOMO         0.683236 =      18.5918eV


 **********************************************************************************************************************************
 DATASETS  * FILE   NREC   LENGTH (MB)   RECORD NAMES
              1      20      586.12       500      610      700      900      950      970     1000      129      960     1100   
                                          VAR    BASINP    GEOM    SYMINP    ZMAT    AOBASIS   BASIS     P2S    ABASIS      S 
                                         1400     1410     1420     1200     1210     1080     1600     1650     1300     1700   
                                         EKIN       V       ECP      H0       H01     AOSYM     SMH    MOLCAS    ERIS     OPER   

              2       4        3.28       700     1000      520     2100   
                                         GEOM     BASIS   MCVARS     RHF  

 PROGRAMS   *        TOTAL        HF       INT
 CPU TIMES  *        97.67     10.01     87.55
 REAL TIME  *       113.86 SEC
 DISK USED  *         2.18 GB      
 **********************************************************************************************************************************
 SETTING SCF(I)         =      -123.11972024  AU                              
 SETTING _CC_NORM_MAX   =         2.00000000                                  


 PROGRAM * CCSD (Unrestricted open-shell coupled cluster)     Authors: C. Hampel, H.-J. Werner, 1991, M. Deegan, P.J. Knowles, 1992


 Convergence thresholds:  THRVAR = 1.00D-08  THRDEN = 1.00D-06

 CCSD(T)     terms to be evaluated (factor= 1.000)


 Number of closed-shell orbitals:   6 (   3   1   1   0   1   0   0   0 )
 Number of active  orbitals:        4 (   1   0   0   1   0   1   1   0 )
 Number of external orbitals:     321 (  79  46  46  30  46  30  30  14 )

 Memory could be reduced to 76.68 Mwords without degradation in triples

 Number of N-1 electron functions:              16
 Number of N-2 electron functions:             120
 Number of singly external CSFs:               929
 Number of doubly external CSFs:           1236243
 Total number of CSFs:                     1237172

 Molecular orbitals read from record     2100.2  Type=RHF/CANONICAL (state 1.1)

 Integral transformation finished. Total CPU:   2.61 sec, npass=  1  Memory used:  13.93 MW

 Starting RMP2 calculation

 ITER.      SQ.NORM     CORR.ENERGY   TOTAL ENERGY   ENERGY CHANGE        DEN1      VAR(S)    VAR(P)  DIIS     TIME
   1      1.10468908    -0.69931732  -123.81903756    -0.69931732    -0.00125669  0.41D-04  0.79D-03  1  1     2.66
   2      1.10681902    -0.70062415  -123.82034439    -0.00130683    -0.00002416  0.20D-05  0.23D-04  2  2     2.71
   3      1.10721025    -0.70077128  -123.82049152    -0.00014713    -0.00000036  0.76D-07  0.31D-06  3  3     2.75
   4      1.10725398    -0.70078380  -123.82050404    -0.00001252    -0.00000000  0.25D-08  0.20D-08  4  4     2.82
   5      1.10725491    -0.70078375  -123.82050399     0.00000005    -0.00000000  0.10D-09  0.26D-10  5  5     2.86

 Norm of t1 vector:      0.05041554      S-energy:    -0.00564599      T1 diagnostic:  0.00033294
 Norm of t2 vector:      0.32359416      P-energy:    -0.69513776
                                         Alpha-Beta:  -0.48298638
                                         Alpha-Alpha: -0.15642367
                                         Beta-Beta:   -0.05572772

 Spin contamination <S**2-Sz**2-Sz>     0.01191287
  Reference energy                   -123.119720240083
  RHF-RMP2 correlation energy          -0.700783750489
 !RHF-RMP2 energy                    -123.820503990572

 Starting UCCSD calculation

 ITER.      SQ.NORM     CORR.ENERGY   TOTAL ENERGY   ENERGY CHANGE        DEN1      VAR(S)    VAR(P)  DIIS     TIME
   1      1.10464678    -0.67428827  -123.79400851    -0.67428827    -0.01422782  0.38D-02  0.29D-02  1  1     6.85
   2      1.11906513    -0.68662712  -123.80634736    -0.01233885    -0.00165042  0.59D-03  0.75D-03  2  2    10.78
   3      1.12968694    -0.68925964  -123.80897988    -0.00263252    -0.00029219  0.19D-03  0.11D-03  3  3    14.75
   4      1.13611485    -0.69083015  -123.81055039    -0.00157050    -0.00003464  0.16D-04  0.13D-04  4  4    18.75
   5      1.13845600    -0.69122492  -123.81094516    -0.00039477    -0.00000330  0.15D-05  0.12D-05  5  5    22.76
   6      1.13885348    -0.69127632  -123.81099656    -0.00005139    -0.00000058  0.93D-07  0.29D-06  6  6    26.80
   7      1.13894302    -0.69128854  -123.81100878    -0.00001222    -0.00000014  0.33D-07  0.67D-07  6  1    30.90
   8      1.13893311    -0.69128668  -123.81100692     0.00000186    -0.00000004  0.13D-07  0.17D-07  6  2    34.99
   9      1.13891821    -0.69128514  -123.81100538     0.00000154    -0.00000001  0.75D-08  0.47D-08  6  3    38.96
  10      1.13891140    -0.69128474  -123.81100498     0.00000040    -0.00000001  0.50D-08  0.17D-08  6  5    43.04

 Norm of t1 vector:      0.13440643      S-energy:    -0.00658184      T1 diagnostic:  0.01975499
                                                                       D1 diagnostic:  0.06781152
 Norm of t2 vector:      0.34762957      P-energy:    -0.68470290
                                         Alpha-Beta:  -0.48941000
                                         Alpha-Alpha: -0.14330449
                                         Beta-Beta:   -0.05198841

 Singles amplitudes (print threshold =  0.500E-01):

         I         SYM. A    A   T(IA) [Alpha-Alpha]

         2         1         5     -0.06799282
         2         1         8     -0.05936978

 Doubles amplitudes (print threshold =  0.500E-01):

         I         J         SYM. A    SYM. B    A         B      T(IJ, AB) [Alpha-Beta]

         2         2         2         2         2         2     -0.05124820
         2         2         3         3         2         2     -0.05002293
         2         2         5         5         2         2     -0.05311769

 Spin contamination <S**2-Sz**2-Sz>     0.01198787

 Memory could be reduced to 79.16 Mwords without degradation in triples
 

  Correlated core orbitals:             1.1       1.2       1.3       1.5
  Orbital energies:                    -4.5114   -2.9829   -2.9438   -3.0335
 
  UCCSD core-core energy               -0.170763336339
  UCCSD core-valence energy            -0.315447438826
  UCCSD valence correlation energy     -0.205073964473
 

 RESULTS
 =======

  Reference energy                   -123.119720240083
  UCCSD singles energy                 -0.006581837016
  UCCSD pair energy                    -0.684702902622
  UCCSD correlation energy             -0.691284739638
  Triples (T) contribution             -0.021492244173
  Total correlation energy             -0.712776983811
 
  RHF-UCCSD energy                   -123.811004979721
  RHF-UCCSD[T] energy                -123.833341436456
  RHF-UCCSD-T energy                 -123.832308644585
 !RHF-UCCSD(T) energy                -123.832497223894

 Program statistics:

 Available memory in ccsd:               511999000
 Min. memory needed in ccsd:               3873058
 Max. memory used in ccsd:                 5369014
 Max. memory used in cckext:               4080722 (10 integral passes)
 Max. memory used in cckint:              13929444 ( 1 integral passes)



 **********************************************************************************************************************************
 DATASETS  * FILE   NREC   LENGTH (MB)   RECORD NAMES
              1      20      586.12       500      610      700      900      950      970     1000      129      960     1100   
                                          VAR    BASINP    GEOM    SYMINP    ZMAT    AOBASIS   BASIS     P2S    ABASIS      S 
                                         1400     1410     1420     1200     1210     1080     1600     1650     1300     1700   
                                         EKIN       V       ECP      H0       H01     AOSYM     SMH    MOLCAS    ERIS     OPER   

              2       4        3.28       700     1000      520     2100   
                                         GEOM     BASIS   MCVARS     RHF  

 PROGRAMS   *        TOTAL  UCCSD(T)        HF       INT
 CPU TIMES  *       237.93    140.26     10.01     87.55
 REAL TIME  *       285.78 SEC
 DISK USED  *         2.18 GB      
 **********************************************************************************************************************************
 SETTING POSTHF(I)      =      -123.83249722  AU                              
                                                                                                                                                                                                                                                                

         SCF            POSTHF       EKIN           POT
    -123.1197202   -123.8324972   72.70549452   -18.92706039
                                                  

 UCCSD(T)/USERDEF energy=   -123.832497223894

        UCCSD(T)        HF-SCF  
   -123.83249722   -123.11972024
 **********************************************************************************************************************************
 Variable memory released
