----- GAMESS execution script 'rungms' -----
This job is running on host c455-093.stampede2.tacc.utexas.edu
under operating system Linux at Mon Jan 21 15:49:42 CST 2019
Available scratch disk space (Kbyte units) at beginning of the job is
Filesystem               1K-blocks  Used Available Use% Mounted on
/dev/mapper/rootvg01-tmp  33312880 39592  33273288   1% /tmp
GAMESS temporary binary files will be written to /tmp
GAMESS supplementary output files will be written to /work/04843/aannabe/stampede2/docs/accurate/sref_qmcpack/STU/Fe/TZ_cont
Copying input file Fe.inp to your run's scratch directory...

 Distributed Data Interface kickoff program.
 Initiating 1 compute processes on 1 nodes to run the following command:
 /work/04843/aannabe/stampede2/codes/gamess-mcb/gamess/gamess.00.x Fe 

          ******************************************************
          *         GAMESS VERSION =  1 MAY 2013 (R1)          *
          *             FROM IOWA STATE UNIVERSITY             *
          * M.W.SCHMIDT, K.K.BALDRIDGE, J.A.BOATZ, S.T.ELBERT, *
          *   M.S.GORDON, J.H.JENSEN, S.KOSEKI, N.MATSUNAGA,   *
          *          K.A.NGUYEN, S.J.SU, T.L.WINDUS,           *
          *       TOGETHER WITH M.DUPUIS, J.A.MONTGOMERY       *
          *         J.COMPUT.CHEM.  14, 1347-1363(1993)        *
          **************** 64 BIT INTEL VERSION ****************

  SINCE 1993, STUDENTS AND POSTDOCS WORKING AT IOWA STATE UNIVERSITY
  AND ALSO IN THEIR VARIOUS JOBS AFTER LEAVING ISU HAVE MADE IMPORTANT
  CONTRIBUTIONS TO THE CODE:
     IVANA ADAMOVIC, CHRISTINE AIKENS, YURI ALEXEEV, POOJA ARORA,
     ANDREY ASADCHEV, ROB BELL, PRADIPTA BANDYOPADHYAY, JONATHAN BENTZ,
     BRETT BODE, GALINA CHABAN, WEI CHEN, CHEOL HO CHOI, PAUL DAY,
     ALBERT DEFUSCO, TIM DUDLEY, DMITRI FEDOROV, GRAHAM FLETCHER,
     MARK FREITAG, KURT GLAESEMANN, DAN KEMP, GRANT MERRILL,
     NORIYUKI MINEZAWA, JONATHAN MULLIN, TAKESHI NAGATA,
     SEAN NEDD, HEATHER NETZLOFF, BOSILJKA NJEGIC, RYAN OLSON, MIKE PAK,
     JIM SHOEMAKER, LYUDMILA SLIPCHENKO, SAROM SOK, JIE SONG,
     TETSUYA TAKETSUGU, SIMON WEBB, SOOHAENG YOO, FEDERICO ZAHARIEV

  ADDITIONAL CODE HAS BEEN PROVIDED BY COLLABORATORS IN OTHER GROUPS:
     IOWA STATE UNIVERSITY:
          JOE IVANIC, LAIMUTIS BYTAUTAS, KLAUS RUEDENBERG
     UNIVERSITY OF TOKYO: KIMIHIKO HIRAO, TAKAHITO NAKAJIMA,
          TAKAO TSUNEDA, MUNEAKI KAMIYA, SUSUMU YANAGISAWA,
          KIYOSHI YAGI, MAHITO CHIBA, SEIKEN TOKURA, NAOAKI KAWAKAMI
     UNIVERSITY OF AARHUS: FRANK JENSEN
     UNIVERSITY OF IOWA: VISVALDAS KAIRYS, HUI LI
     NATIONAL INST. OF STANDARDS AND TECHNOLOGY: WALT STEVENS, DAVID GARMER
     UNIVERSITY OF PISA: BENEDETTA MENNUCCI, JACOPO TOMASI
     UNIVERSITY OF MEMPHIS: HENRY KURTZ, PRAKASHAN KORAMBATH
     UNIVERSITY OF ALBERTA: TOBY ZENG, MARIUSZ KLOBUKOWSKI
     UNIVERSITY OF NEW ENGLAND: MARK SPACKMAN
     MIE UNIVERSITY: HIROAKI UMEDA
     MICHIGAN STATE UNIVERSITY:
          KAROL KOWALSKI, MARTA WLOCH, JEFFREY GOUR, JESSE LUTZ,
          WEI LI, PIOTR PIECUCH
     UNIVERSITY OF SILESIA: MONIKA MUSIAL, STANISLAW KUCHARSKI
     FACULTES UNIVERSITAIRES NOTRE-DAME DE LA PAIX:
          OLIVIER QUINET, BENOIT CHAMPAGNE
     UNIVERSITY OF CALIFORNIA - SANTA BARBARA: BERNARD KIRTMAN
     INSTITUTE FOR MOLECULAR SCIENCE:
          KAZUYA ISHIMURA, MICHIO KATOUDA, AND SHIGERU NAGASE
     UNIVERSITY OF NOTRE DAME: DAN CHIPMAN
     KYUSHU UNIVERSITY:
          HARUYUKI NAKANO,
          FENG LONG GU, JACEK KORCHOWIEC, MARCIN MAKOWSKI, AND YURIKO AOKI,
          HIROTOSHI MORI AND EISAKU MIYOSHI
     PENNSYLVANIA STATE UNIVERSITY:
          TZVETELIN IORDANOV, CHET SWALINA, JONATHAN SKONE,
          SHARON HAMMES-SCHIFFER
     WASEDA UNIVERSITY:
          MASATO KOBAYASHI, TOMOKO AKAMA, TSUGUKI TOUMA,
          TAKESHI YOSHIKAWA, YASUHIRO IKABATA, HIROMI NAKAI
     NANJING UNIVERSITY: SHUHUA LI
     UNIVERSITY OF NEBRASKA:
          PEIFENG SU, DEJUN SI, NANDUN THELLAMUREGE, YALI WANG, HUI LI
     UNIVERSITY OF ZURICH:
          ROBERTO PEVERATI, KIM BALDRIDGE
     N. COPERNICUS UNIVERSITY AND JACKSON STATE UNIVERSITY:
          MARIA BARYSZ

 EXECUTION OF GAMESS BEGUN Mon Jan 21 15:49:44 2019

            ECHO OF THE FIRST FEW INPUT CARDS -
 INPUT CARD> $CONTRL                                                                        
 INPUT CARD>     SCFTYP=ROHF                                                                
 INPUT CARD>     MULT=5                                                                     
 INPUT CARD>     ICHARG=0                                                                   
 INPUT CARD>     RUNTYP=ENERGY                                                              
 INPUT CARD>     MAXIT=199                                                                  
 INPUT CARD>     ECP=READ                                                                   
 INPUT CARD>     ISPHER=1                                                                   
 INPUT CARD> $END                                                                           
 INPUT CARD>                                                                                
 INPUT CARD> $SYSTEM                                                                        
 INPUT CARD>     KDIAG=3                                                                    
 INPUT CARD> $END                                                                           
 INPUT CARD>                                                                                
 INPUT CARD> $SCF                                                                           
 INPUT CARD>!   DIRSCF=.t.                                                                  
 INPUT CARD>    DIIS=.t.                                                                    
 INPUT CARD>    DAMP=.t.                                                                    
 INPUT CARD>    SHIFT=.t.                                                                   
 INPUT CARD>    RSTRCT=.t.                                                                  
 INPUT CARD> $END                                                                           
 INPUT CARD>                                                                                
 INPUT CARD> $GUESS                                                                         
 INPUT CARD>!    GUESS=HUCKEL                                                               
 INPUT CARD>    GUESS=MOREAD                                                                
 INPUT CARD>    NORB=28                                                                     
 INPUT CARD>    NORDER=1                                                                    
 INPUT CARD>    IORDER(5)=7,6,8,5,9,10                                                      
 INPUT CARD> $END                                                                           
 INPUT CARD>                                                                                
 INPUT CARD> $DATA                                                                          
 INPUT CARD>                                                                                
 INPUT CARD>Dnh,2                                                                           
 INPUT CARD>                                                                                
 INPUT CARD>Fe 26    0. 0. 0.                                                               
 INPUT CARD>S   19                                                                          
 INPUT CARD>  1 4316265.0000000             0.000000                                        
 INPUT CARD>  2 646342.4000000              0.000000                                        
 INPUT CARD>  3 147089.7000000              0.000000                                        
 INPUT CARD>  4  41661.5200000              0.000004                                        
 INPUT CARD>  5  13590.7700000             -0.000004                                        
 INPUT CARD>  6   4905.7500000              0.000067                                        
 INPUT CARD>  7   1912.7460000             -0.000089                                        
 INPUT CARD>  8    792.6043000              0.000676                                        
 INPUT CARD>  9    344.8065000             -0.001171                                        
 INPUT CARD> 10    155.8999000              0.005204                                        
 INPUT CARD> 11     72.2309100             -0.013730                                        
 INPUT CARD> 12     32.7250600              0.051962                                        
 INPUT CARD> 13     15.6676200              0.000414                                        
 INPUT CARD> 14      7.5034830             -0.536900                                        
    1000000 WORDS OF MEMORY AVAILABLE


     RUN TITLE
     ---------
                                                                                 

 THE POINT GROUP OF THE MOLECULE IS DNH     
 THE ORDER OF THE PRINCIPAL AXIS IS     2
 *** WARNING! ATOM   1 SHELL    1 TYPE S HAS NORMALIZATION   1.00656596
 *** WARNING! ATOM   1 SHELL    2 TYPE S HAS NORMALIZATION   1.28301174
 *** WARNING! ATOM   1 SHELL    6 TYPE P HAS NORMALIZATION   1.26928645

 ATOM      ATOMIC                      COORDINATES (BOHR)
           CHARGE         X                   Y                   Z
 FE         26.0     0.0000000000        0.0000000000        0.0000000000

          INTERNUCLEAR DISTANCES (ANGS.)
          ------------------------------

                1 FE    

   1 FE      0.0000000  

  * ... LESS THAN  3.000


     ATOMIC BASIS SET
     ----------------
 THE CONTRACTED PRIMITIVE FUNCTIONS HAVE BEEN UNNORMALIZED
 THE CONTRACTED BASIS FUNCTIONS ARE NOW NORMALIZED TO UNITY

  SHELL TYPE  PRIMITIVE        EXPONENT          CONTRACTION COEFFICIENT(S)

 FE        

      1   S       1       4316265.0000000    0.000000000000
      1   S       2        646342.4000000    0.000000000000
      1   S       3        147089.7000000    0.000000000000
      1   S       4         41661.5200000    0.000004026264
      1   S       5         13590.7700000   -0.000004026264
      1   S       6          4905.7500000    0.000067439919
      1   S       7          1912.7460000   -0.000089584370
      1   S       8           792.6043000    0.000680438589
      1   S       9           344.8065000   -0.001178688739
      1   S      10           155.8999000    0.005238169257
      1   S      11            72.2309100   -0.013820150633
      1   S      12            32.7250600    0.052303180420
      1   S      13            15.6676200    0.000416718307
      1   S      14             7.5034830   -0.540425263993
      1   S      15             3.3122230    0.007952877651
      1   S      16             1.5584710    0.858836300424
      1   S      17             0.6839140    0.386373363493
      1   S      18             0.1467570    0.012186494079
      1   S      19             0.0705830   -0.003059960519

      2   S      20       4316265.0000000    0.000000000000
      2   S      21        646342.4000000    0.000000000000
      2   S      22        147089.7000000    0.000000000000
      2   S      23         41661.5200000   -0.000001283012
      2   S      24         13590.7700000    0.000001283012
      2   S      25          4905.7500000   -0.000020528188
      2   S      26          1912.7460000    0.000026943247
      2   S      27           792.6043000   -0.000212979949
      2   S      28           344.8065000    0.000360526300
      2   S      29           155.8999000   -0.001637122983
      2   S      30            72.2309100    0.004319900535
      2   S      31            32.7250600   -0.016836963091
      2   S      32            15.6676200    0.002399231958
      2   S      33             7.5034830    0.175206800481
      2   S      34             3.3122230   -0.012116762892
      2   S      35             1.5584710   -0.320314145493
      2   S      36             0.6839140   -0.299012301540
      2   S      37             0.1467570    0.446915329138
      2   S      38             0.0705830    0.712904191450

      3   S      39             0.0314490    1.000000000000

      4   S      40             4.6844000    1.000000000000

      5   S      41             1.2204000    1.000000000000

      6   P      42         17745.6900000    0.000001269286
      6   P      43          4200.7210000   -0.000001269286
      6   P      44          1364.4290000    0.000036809307
      6   P      45           522.0806000   -0.000034270734
      6   P      46           221.4595000    0.000599103202
      6   P      47           100.9096000   -0.000856768350
      6   P      48            48.4011500    0.007134659108
      6   P      49            23.9853600   -0.005344965220
      6   P      50            12.1825000   -0.115012583359
      6   P      51             6.2422980    0.070973420862
      6   P      52             3.1109440    0.410813442947
      6   P      53             1.5099580    0.301074744767
      6   P      54             0.7108450    0.363522368577
      6   P      55             0.2725980    0.048769793078
      6   P      56             0.1039720   -0.001944546834

      7   P      57             0.0381660    1.000000000000

      8   P      58             6.8788000    1.000000000000

      9   P      59             1.5748000    1.000000000000

     10   D      60           114.8840000    1.000000000000

     11   D      61            33.8878000    1.000000000000

     12   D      62            12.3730000    1.000000000000

     13   D      63             4.9992500    1.000000000000

     14   D      64             2.0704300    1.000000000000

     15   D      65             0.8281830    1.000000000000

     16   D      66             0.3075470    1.000000000000

     17   D      67             0.0994550    1.000000000000

     18   D      68             4.5305000    1.000000000000

     19   D      69             2.1205000    1.000000000000

     20   F      70             6.0066000    1.000000000000

     21   F      71             2.2522000    1.000000000000

     22   F      72             0.7758000    1.000000000000

     23   G      73             5.5068000    1.000000000000

     24   G      74             2.0515000    1.000000000000

 TOTAL NUMBER OF BASIS SET SHELLS             =   24
 NUMBER OF CARTESIAN GAUSSIAN BASIS FUNCTIONS =  137
 NOTE: THIS RUN WILL RESTRICT THE MO VARIATION SPACE TO SPHERICAL HARMONICS.
 THE NUMBER OF ORBITALS KEPT IN THE VARIATIONAL SPACE WILL BE PRINTED LATER.
 NUMBER OF ELECTRONS                          =   26
 CHARGE OF MOLECULE                           =    0
 SPIN MULTIPLICITY                            =    5
 NUMBER OF OCCUPIED ORBITALS (ALPHA)          =   15
 NUMBER OF OCCUPIED ORBITALS (BETA )          =   11
 TOTAL NUMBER OF ATOMS                        =    1
 THE NUCLEAR REPULSION ENERGY IS        0.0000000000
 NOTE THIS RUN IS USING CORE POTENTIALS, AND THE NUMBER OF ELECTRONS,
 OCCUPIED ORBITALS, AND NUCLEAR REPULSION ENERGY WILL BE ADJUSTED BELOW
 AFTER REMOVAL OF THE CORE CHARGES.

 THIS MOLECULE IS RECOGNIZED AS BEING LINEAR,
 ORBITAL LZ DEGENERACY TOLERANCE ETOLLZ= 1.00E-06

     $CONTRL OPTIONS
     ---------------
 SCFTYP=ROHF         RUNTYP=ENERGY       EXETYP=RUN     
 MPLEVL=       0     CITYP =NONE         CCTYP =NONE         VBTYP =NONE    
 DFTTYP=NONE         TDDFT =NONE    
 MULT  =       5     ICHARG=       0     NZVAR =       0     COORD =UNIQUE  
 PP    =READ         RELWFN=NONE         LOCAL =NONE         NUMGRD=       F
 ISPHER=       1     NOSYM =       0     MAXIT =     199     UNITS =ANGS    
 PLTORB=       F     MOLPLT=       F     AIMPAC=       F     FRIEND=        
 NPRINT=       7     IREST =       0     GEOM  =INPUT   
 NORMF =       0     NORMP =       0     ITOL  =      20     ICUT  =       9
 INTTYP=BEST         GRDTYP=BEST         QMTTOL= 1.0E-06

     $SYSTEM OPTIONS
     ---------------
  REPLICATED MEMORY=     1000000 WORDS (ON EVERY NODE).
 DISTRIBUTED MEMDDI=           0 MILLION WORDS IN AGGREGATE,
 MEMDDI DISTRIBUTED OVER   1 PROCESSORS IS           0 WORDS/PROCESSOR.
 TOTAL MEMORY REQUESTED ON EACH PROCESSOR=     1000000 WORDS.
 TIMLIM=      525600.00 MINUTES, OR     365.0 DAYS.
 PARALL= F  BALTYP=  DLB     KDIAG=    3  COREFL= F
 MXSEQ2=     300 MXSEQ3=     150

          --------------
          ECP POTENTIALS
          --------------

 PARAMETERS FOR "FE-QMC_S" ON ATOM    1 WITH ZCORE  10 AND LMAX  3 ARE
 FOR L= 3      COEFF    N           ZETA
    1        0.00000    2        1.00000
 FOR L= 0      COEFF    N           ZETA
    1      253.74959    2       20.93000
    2       37.92285    2        9.44500
 FOR L= 1      COEFF    N           ZETA
    1      161.03681    2       21.76000
    2       27.65130    2        9.17800
 FOR L= 2      COEFF    N           ZETA
    1      -24.43128    2       25.90000
    2       -1.43425    2        8.83500

 THE ECP RUN REMOVES   10 CORE ELECTRONS, AND THE SAME NUMBER OF PROTONS.
 NUMBER OF ELECTRONS KEPT IN THE CALCULATION IS =   16
 NUMBER OF OCCUPIED ORBITALS (ALPHA) KEPT IS    =   10
 NUMBER OF OCCUPIED ORBITALS (BETA ) KEPT IS    =    6
 THE ADJUSTED NUCLEAR REPULSION ENERGY=        0.0000000000
          ECP ANGULAR INTS.........     0.07 SECONDS

          ----------------
          PROPERTIES INPUT
          ----------------

     MOMENTS            FIELD           POTENTIAL          DENSITY
 IEMOM =       1   IEFLD =       0   IEPOT =       0   IEDEN =       0
 WHERE =COMASS     WHERE =NUCLEI     WHERE =NUCLEI     WHERE =NUCLEI  
 OUTPUT=BOTH       OUTPUT=BOTH       OUTPUT=BOTH       OUTPUT=BOTH    
 IEMINT=       0   IEFINT=       0                     IEDINT=       0
                                                       MORB  =       0
          EXTRAPOLATION IN EFFECT
          DAMPING IN EFFECT
          LEVEL SHIFTING IN EFFECT
          RESTRICTION OF ORBITAL MIXING IN EFFECT
          DIIS IN EFFECT
 ORBITAL PRINTING OPTION: NPREO=     1   137     2     1

     -------------------------------
     INTEGRAL TRANSFORMATION OPTIONS
     -------------------------------
     NWORD  =            0
     CUTOFF = 1.0E-09     MPTRAN =       0
     DIRTRF =       F     AOINTS =DUP     

          ----------------------
          INTEGRAL INPUT OPTIONS
          ----------------------
 NOPK  =       1 NORDER=       0 SCHWRZ=       F

     ------------------------------------------
     THE POINT GROUP IS DNH, NAXIS= 2, ORDER= 8
     ------------------------------------------

 -- VARIATIONAL SPACE WILL BE RESTRICTED TO PURE SPHERICAL HARMONICS ONLY --
 AFTER EXCLUDING CONTAMINANT COMBINATIONS FROM THE CARTESIAN GAUSSIAN BASIS
 SET, THE NUMBER OF SPHERICAL HARMONICS KEPT IN THE VARIATION SPACE IS  106

     DIMENSIONS OF THE SYMMETRY SUBSPACES ARE
 AG  =   31     AU  =    3     B3U =   10     B3G =   14     B1G =   14
 B1U =   10     B2U =   10     B2G =   14

 ..... DONE SETTING UP THE RUN .....
 STEP CPU TIME =     0.36 TOTAL CPU TIME =        0.4 (    0.0 MIN)
 TOTAL WALL CLOCK TIME=        0.7 SECONDS, CPU UTILIZATION IS  53.62%

          ********************
          1 ELECTRON INTEGRALS
          ********************
 TIME TO DO ORDINARY INTEGRALS=      0.00
 TIME TO DO      ECP INTEGRALS=      0.02
 ...... END OF ONE-ELECTRON INTEGRALS ......
 STEP CPU TIME =     0.03 TOTAL CPU TIME =        0.4 (    0.0 MIN)
 TOTAL WALL CLOCK TIME=        1.4 SECONDS, CPU UTILIZATION IS  27.78%

          -------------
          GUESS OPTIONS
          -------------
          GUESS =MOREAD            NORB  =      28          NORDER=       1
          MIX   =       F          PRTMO =       F          PUNMO =       F
          TOLZ  = 1.0E-08          TOLE  = 1.0E-05
          SYMDEN=       F          PURIFY=       F

 INITIAL GUESS ORBITALS GENERATED BY MOREAD   ROUTINE.

 STATISTICS FOR GENERATION OF SYMMETRY ORBITAL -Q- MATRIX
 NUMBER OF CARTESIAN ATOMIC ORBITALS=        137
 NUMBER OF SPHERICAL CONTAMINANTS DROPPED=    31
 NUMBER OF LINEARLY DEPENDENT MOS DROPPED=     0
 TOTAL NUMBER OF MOS IN VARIATION SPACE=     106

                    * * * * * WARNING * * * * *
 POSSIBLE LINEAR DEPENDENCE PROBLEMS DETECTED, INPUT QMTTOL= 1.0E-06,
 WITH     5 OVERLAP EIGENVALUES LYING BETWEEN 1.0E-05 AND QMTTOL.
 IF YOU EXPERIENCE SCF CONVERGENCE DIFFICULTIES WITH THE DENSITY ALMOST BUT
 NOT QUITE CONVERGED, YOU MAY NEED TO LOOSEN -QMTTOL- BY A FACTOR 5 TO 10.

 SYMMETRIES FOR INITIAL GUESS ORBITALS FOLLOW.  ALPHA SET(S).
    10 ORBITALS ARE OCCUPIED (    4 CORE ORBITALS).
     5=AG       6=AG       7=B2G      8=AG       9=B3G     10=B1G     11=B3U 
    12=B1U     13=B2U     14=AG      15=B2G     16=B3G     17=B1G     18=AG  
    19=AG      20=B1G 

 SYMMETRIES FOR INITIAL GUESS ORBITALS FOLLOW.   BETA SET(S).
     6 ORBITALS ARE OCCUPIED (    4 CORE ORBITALS).
     5=AG       6=AG       7=B2G      8=AG       9=B3G     10=B1G     11=B3U 
    12=B1U     13=B2U     14=AG      15=B2G     16=B3G 
 ...... END OF INITIAL ORBITAL SELECTION ......
 STEP CPU TIME =     0.04 TOTAL CPU TIME =        0.4 (    0.0 MIN)
 TOTAL WALL CLOCK TIME=        1.5 SECONDS, CPU UTILIZATION IS  28.57%

                    ----------------------
                    AO INTEGRAL TECHNOLOGY
                    ----------------------
     S,P,L SHELL ROTATED AXIS INTEGRALS, REPROGRAMMED BY
        KAZUYA ISHIMURA (IMS) AND JOSE SIERRA (SYNSTAR).
     S,P,D,L SHELL ROTATED AXIS INTEGRALS PROGRAMMED BY
        KAZUYA ISHIMURA (INSTITUTE FOR MOLECULAR SCIENCE).
     S,P,D,F,G SHELL TO TOTAL QUARTET ANGULAR MOMENTUM SUM 5,
        ERIC PROGRAM BY GRAHAM FLETCHER (ELORET AND NASA ADVANCED
        SUPERCOMPUTING DIVISION, AMES RESEARCH CENTER).
     S,P,D,F,G,L SHELL GENERAL RYS QUADRATURE PROGRAMMED BY
        MICHEL DUPUIS (PACIFIC NORTHWEST NATIONAL LABORATORY).

          --------------------
          2 ELECTRON INTEGRALS
          --------------------

 THE -PK- OPTION IS OFF, THE INTEGRALS ARE NOT IN SUPERMATRIX FORM.
 STORING   15000 INTEGRALS/RECORD ON DISK, USING 12 BYTES/INTEGRAL.
 TWO ELECTRON INTEGRAL EVALUATION REQUIRES  140025 WORDS OF MEMORY.
 II,JST,KST,LST =  1  1  1  1 NREC =         1 INTLOC =    1
 II,JST,KST,LST =  2  1  1  1 NREC =         1 INTLOC =    2
 II,JST,KST,LST =  3  1  1  1 NREC =         1 INTLOC =    7
 II,JST,KST,LST =  4  1  1  1 NREC =         1 INTLOC =   22
 II,JST,KST,LST =  5  1  1  1 NREC =         1 INTLOC =   56
 II,JST,KST,LST =  6  1  1  1 NREC =         1 INTLOC =  121
 II,JST,KST,LST =  7  1  1  1 NREC =         1 INTLOC =  220
 II,JST,KST,LST =  8  1  1  1 NREC =         1 INTLOC =  496
 II,JST,KST,LST =  9  1  1  1 NREC =         1 INTLOC = 1057
 II,JST,KST,LST = 10  1  1  1 NREC =         1 INTLOC = 2074
 II,JST,KST,LST = 11  1  1  1 NREC =         1 INTLOC = 5929
 II,JST,KST,LST = 12  1  1  1 NREC =         1 INTLOC =14065
 II,JST,KST,LST = 13  1  1  1 NREC =         2 INTLOC =14002
 II,JST,KST,LST = 14  1  1  1 NREC =         4 INTLOC = 9268
 II,JST,KST,LST = 15  1  1  1 NREC =         7 INTLOC = 4399
 II,JST,KST,LST = 16  1  1  1 NREC =        11 INTLOC = 4939
 II,JST,KST,LST = 17  1  1  1 NREC =        17 INTLOC = 2440
 II,JST,KST,LST = 18  1  1  1 NREC =        25 INTLOC = 4357
 II,JST,KST,LST = 19  1  1  1 NREC =        36 INTLOC = 4468
 II,JST,KST,LST = 20  1  1  1 NREC =        50 INTLOC =12244
 II,JST,KST,LST = 21  1  1  1 NREC =        70 INTLOC = 2114
 II,JST,KST,LST = 22  1  1  1 NREC =       101 INTLOC = 9107
 II,JST,KST,LST = 23  1  1  1 NREC =       146 INTLOC = 8974
 II,JST,KST,LST = 24  1  1  1 NREC =       246 INTLOC = 9619
 TOTAL NUMBER OF NONZERO TWO-ELECTRON INTEGRALS =             5895669
        394 INTEGRAL RECORDS WERE STORED ON DISK FILE  8.
  ...... END OF TWO-ELECTRON INTEGRALS .....
 STEP CPU TIME =     8.54 TOTAL CPU TIME =        9.0 (    0.1 MIN)
 TOTAL WALL CLOCK TIME=       10.1 SECONDS, CPU UTILIZATION IS  88.47%

          ---------------------------
                 ROHF SCF CALCULATION
          ---------------------------

     NUCLEAR ENERGY =         0.0000000000
     MAXIT =199     NPUNCH=  2     MULT=  5
     EXTRAP=T  DAMP=T  SHIFT=T  RSTRCT=T  DIIS=T  SOSCF=F
     DENSITY MATRIX CONV=  1.00E-05
     ROHF CANONICALIZATION PARAMETERS
             C-C     O-O     V-V
     ALPHA -0.5000  0.5000  1.5000
     BETA   1.5000  0.5000 -0.5000
     MEMORY REQUIRED FOR UHF/ROHF ITERS=    221414 WORDS.

 ITER EX      TOTAL ENERGY        E CHANGE  DENSITY CHANGE    DIIS ERROR      VIR. SHIFT       DAMPING
          * * *   INITIATING DIIS PROCEDURE   * * *
   1  0     -123.0061496984  -123.0061496984   0.625369758   0.326699804     0.000000000     1.000000000
   2  1     -123.0371411115    -0.0309914131   0.168591444   0.324705529     0.000000000     1.000000000
   3  2     -123.1172034625    -0.0800623511   0.066828674   0.035760825     0.000000000     1.000000000
   4  3     -123.1166078680     0.0005955945   0.043083755   0.027533859     0.000000000     1.000000000
   5  4     -123.1185373952    -0.0019295273   0.015830091   0.003048642     0.000000000     1.000000000
   6  5     -123.1185593116    -0.0000219164   0.005103856   0.001556758     0.000000000     1.000000000
   7  6     -123.1185656304    -0.0000063188   0.001016562   0.000403691     0.000000000     1.000000000
   8  7     -123.1185660863    -0.0000004559   0.000259480   0.000091694     0.000000000     1.000000000
   9  8     -123.1185661110    -0.0000000247   0.000057965   0.000026418     0.000000000     1.000000000
  10  9     -123.1185661111    -0.0000000001   0.000062266   0.000023178     0.000000000     1.000000000
  11 10     -123.1185661124    -0.0000000014   0.000007115   0.000002167     0.000000000     1.000000000
  12 11     -123.1185661124    -0.0000000000   0.000002309   0.000000459     0.000000000     1.000000000

          -----------------
          DENSITY CONVERGED
          -----------------
     TIME TO FORM FOCK OPERATORS=       3.5 SECONDS (       0.3 SEC/ITER)
     TIME TO SOLVE SCF EQUATIONS=       0.5 SECONDS (       0.0 SEC/ITER)

 FINAL ROHF ENERGY IS     -123.1185661124 AFTER  12 ITERATIONS

          --------------------
          SPIN SZ   =    2.000
          S-SQUARED =    6.000
          --------------------

 LZ VALUE ANALYSIS FOR THE MOS
 ----------------------------------------
 MO     1 (    1) HAS LZ(WEIGHT)= 0.00(100.0%) 
 MO     2 (    2) HAS LZ(WEIGHT)= 0.00(100.0%) 
 MO     3 (    3) HAS LZ(WEIGHT)=-1.00( 50.0%)  1.00( 50.0%) 
 MO     4 (    3) HAS LZ(WEIGHT)=-1.00( 50.0%)  1.00( 50.0%) 
 MO     5 (    4) HAS LZ(WEIGHT)= 0.00(100.0%) 
 MO     6 (    5) HAS LZ(WEIGHT)= 0.00(100.0%) 
 MO     7 (    6) HAS LZ(WEIGHT)= 0.00(100.0%) 
 MO     8 (    7) HAS LZ(WEIGHT)= 0.00(100.0%) 
 MO     9 (    8) HAS LZ(WEIGHT)= 0.00(100.0%) 
 MO    10 (    9) HAS LZ(WEIGHT)= 0.00(100.0%) 
 MO    11 (   10) HAS LZ(WEIGHT)= 0.00(100.0%) 
 MO    12 (   11) HAS LZ(WEIGHT)= 0.00(100.0%) 
 MO    13 (   12) HAS LZ(WEIGHT)= 0.00(100.0%) 
 MO    14 (   13) HAS LZ(WEIGHT)= 0.00(100.0%) 
 MO    15 (   14) HAS LZ(WEIGHT)=-1.00( 50.0%)  1.00( 50.0%) 
 MO    16 (   14) HAS LZ(WEIGHT)=-1.00( 50.0%)  1.00( 50.0%) 
 MO    17 (   15) HAS LZ(WEIGHT)= 0.00(100.0%) 
 MO    18 (   16) HAS LZ(WEIGHT)= 0.00(100.0%) 
 MO    19 (   17) HAS LZ(WEIGHT)= 0.00(100.0%) 
 MO    20 (   18) HAS LZ(WEIGHT)= 0.00(100.0%) 
 MO    21 (   19) HAS LZ(WEIGHT)=-1.00( 50.0%)  1.00( 50.0%) 
 MO    22 (   19) HAS LZ(WEIGHT)=-1.00( 50.0%)  1.00( 50.0%) 
 MO    23 (   20) HAS LZ(WEIGHT)= 0.00(100.0%) 
 MO    24 (   21) HAS LZ(WEIGHT)= 0.00(100.0%) 
 MO    25 (   22) HAS LZ(WEIGHT)= 0.00(100.0%) 
 MO    26 (   23) HAS LZ(WEIGHT)=-0.79( 50.0%)  0.79( 50.0%) 
 MO    27 (   23) HAS LZ(WEIGHT)=-0.79( 50.0%)  0.79( 50.0%) 
 MO    28 (   24) HAS LZ(WEIGHT)= 0.00(100.0%) 
 MO    29 (   25) HAS LZ(WEIGHT)= 0.00(100.0%) 
 MO    30 (   26) HAS LZ(WEIGHT)= 0.00(100.0%) 
 MO    31 (   27) HAS LZ(WEIGHT)= 0.00(100.0%) 
 MO    32 (   28) HAS LZ(WEIGHT)= 0.00(100.0%) 
 MO    33 (   29) HAS LZ(WEIGHT)= 0.00(100.0%) 
 MO    34 (   30) HAS LZ(WEIGHT)= 0.00(100.0%) 
 MO    35 (   31) HAS LZ(WEIGHT)= 0.00(100.0%) 
 MO    36 (   32) HAS LZ(WEIGHT)= 0.00(100.0%) 
 MO    37 (   33) HAS LZ(WEIGHT)= 0.00(100.0%) 
 MO    38 (   34) HAS LZ(WEIGHT)= 0.00(100.0%) 
 MO    39 (   35) HAS LZ(WEIGHT)= 0.00(100.0%) 
 MO    40 (   36) HAS LZ(WEIGHT)= 0.00(100.0%) 
 MO    41 (   37) HAS LZ(WEIGHT)= 0.00(100.0%) 
 MO    42 (   38) HAS LZ(WEIGHT)= 0.00(100.0%) 
 MO    43 (   39) HAS LZ(WEIGHT)= 0.00(100.0%) 
 MO    44 (   40) HAS LZ(WEIGHT)= 0.00(100.0%) 
 MO    45 (   41) HAS LZ(WEIGHT)= 0.00(100.0%) 
 MO    46 (   42) HAS LZ(WEIGHT)= 0.00(100.0%) 
 MO    47 (   43) HAS LZ(WEIGHT)= 0.00(100.0%) 
 MO    48 (   44) HAS LZ(WEIGHT)= 0.00(100.0%) 
 MO    49 (   45) HAS LZ(WEIGHT)= 0.00(100.0%) 
 MO    50 (   46) HAS LZ(WEIGHT)= 0.00(100.0%) 
 MO    51 (   47) HAS LZ(WEIGHT)= 0.00(100.0%) 
 MO    52 (   48) HAS LZ(WEIGHT)= 0.00(100.0%) 
 MO    53 (   49) HAS LZ(WEIGHT)= 0.00(100.0%) 
 MO    54 (   50) HAS LZ(WEIGHT)= 0.00(100.0%) 
 MO    55 (   51) HAS LZ(WEIGHT)= 0.00(100.0%) 
 MO    56 (   52) HAS LZ(WEIGHT)= 0.00(100.0%) 
 MO    57 (   53) HAS LZ(WEIGHT)= 0.00(100.0%) 
 MO    58 (   54) HAS LZ(WEIGHT)= 0.00(100.0%) 
 MO    59 (   55) HAS LZ(WEIGHT)= 0.00(100.0%) 
 MO    60 (   56) HAS LZ(WEIGHT)= 0.00(100.0%) 
 MO    61 (   57) HAS LZ(WEIGHT)= 0.00(100.0%) 
 MO    62 (   58) HAS LZ(WEIGHT)= 0.00(100.0%) 
 MO    63 (   59) HAS LZ(WEIGHT)= 0.00(100.0%) 
 MO    64 (   60) HAS LZ(WEIGHT)= 0.00(100.0%) 
 MO    65 (   61) HAS LZ(WEIGHT)= 0.00(100.0%) 
 MO    66 (   62) HAS LZ(WEIGHT)= 0.00(100.0%) 
 MO    67 (   63) HAS LZ(WEIGHT)= 0.00(100.0%) 
 MO    68 (   64) HAS LZ(WEIGHT)= 0.00(100.0%) 
 MO    69 (   65) HAS LZ(WEIGHT)= 0.00(100.0%) 
 MO    70 (   66) HAS LZ(WEIGHT)= 0.00(100.0%) 
 MO    71 (   67) HAS LZ(WEIGHT)= 0.00(100.0%) 
 MO    72 (   68) HAS LZ(WEIGHT)= 0.00(100.0%) 
 MO    73 (   69) HAS LZ(WEIGHT)= 0.00(100.0%) 
 MO    74 (   70) HAS LZ(WEIGHT)= 0.00(100.0%) 
 MO    75 (   71) HAS LZ(WEIGHT)= 0.00(100.0%) 
 MO    76 (   72) HAS LZ(WEIGHT)= 0.00(100.0%) 
 MO    77 (   73) HAS LZ(WEIGHT)= 0.00(100.0%) 
 MO    78 (   74) HAS LZ(WEIGHT)= 0.00(100.0%) 
 MO    79 (   75) HAS LZ(WEIGHT)= 0.00(100.0%) 
 MO    80 (   76) HAS LZ(WEIGHT)= 0.00(100.0%) 
 MO    81 (   77) HAS LZ(WEIGHT)= 0.00(100.0%) 
 MO    82 (   78) HAS LZ(WEIGHT)= 0.00(100.0%) 
 MO    83 (   79) HAS LZ(WEIGHT)= 0.00(100.0%) 
 MO    84 (   80) HAS LZ(WEIGHT)= 0.00(100.0%) 
 MO    85 (   81) HAS LZ(WEIGHT)= 0.00(100.0%) 
 MO    86 (   82) HAS LZ(WEIGHT)= 0.00(100.0%) 
 MO    87 (   83) HAS LZ(WEIGHT)= 0.00(100.0%) 
 MO    88 (   84) HAS LZ(WEIGHT)= 0.00(100.0%) 
 MO    89 (   85) HAS LZ(WEIGHT)= 0.00(100.0%) 
 MO    90 (   86) HAS LZ(WEIGHT)= 0.00(100.0%) 
 MO    91 (   87) HAS LZ(WEIGHT)= 0.00(100.0%) 
 MO    92 (   88) HAS LZ(WEIGHT)= 0.00(100.0%) 
 MO    93 (   89) HAS LZ(WEIGHT)= 0.00(100.0%) 
 MO    94 (   90) HAS LZ(WEIGHT)= 0.00(100.0%) 
 MO    95 (   91) HAS LZ(WEIGHT)= 0.00(100.0%) 
 MO    96 (   92) HAS LZ(WEIGHT)= 0.00(100.0%) 
 MO    97 (   93) HAS LZ(WEIGHT)= 0.00(100.0%) 
 MO    98 (   94) HAS LZ(WEIGHT)= 0.00(100.0%) 
 MO    99 (   95) HAS LZ(WEIGHT)= 0.00(100.0%) 
 MO   100 (   96) HAS LZ(WEIGHT)= 0.00(100.0%) 
 MO   101 (   97) HAS LZ(WEIGHT)= 0.00(100.0%) 
 MO   102 (   98) HAS LZ(WEIGHT)= 0.00(100.0%) 
 MO   103 (   99) HAS LZ(WEIGHT)= 0.00(100.0%) 
 MO   104 (  100) HAS LZ(WEIGHT)= 0.00(100.0%) 
 MO   105 (  101) HAS LZ(WEIGHT)= 0.00(100.0%) 
 MO   106 (  102) HAS LZ(WEIGHT)= 0.00(100.0%) 

          ------------
          EIGENVECTORS
          ------------

                      1          2          3          4          5
                   -3.9494    -2.2165    -2.3530    -2.3530    -0.2347
                     AG         B1U        B3U        B2U        AG  
    1  FE 1  S    0.993563   0.000000   0.000000   0.000000  -0.000073
    2  FE 1  S    0.000008   0.000000   0.000000   0.000000   0.779540
    3  FE 1  S    0.001780   0.000000   0.000000   0.000000   0.252773
    4  FE 1  S    0.195786   0.000000   0.000000   0.000000  -0.050470
    5  FE 1  S   -0.093300   0.000000   0.000000   0.000000   0.001939
    6  FE 1  X    0.000000   0.000000   0.787848   0.000000   0.000000
    7  FE 1  Y    0.000000   0.000000   0.000000   0.787848   0.000000
    8  FE 1  Z    0.000000   0.784134   0.000000   0.000000   0.000000
    9  FE 1  X    0.000000   0.000000   0.000787   0.000000   0.000000
   10  FE 1  Y    0.000000   0.000000   0.000000   0.000787   0.000000
   11  FE 1  Z    0.000000   0.000135   0.000000   0.000000   0.000000
   12  FE 1  X    0.000000   0.000000  -0.017203   0.000000   0.000000
   13  FE 1  Y    0.000000   0.000000   0.000000  -0.017203   0.000000
   14  FE 1  Z    0.000000  -0.017460   0.000000   0.000000   0.000000
   15  FE 1  X    0.000000   0.000000   0.224895   0.000000   0.000000
   16  FE 1  Y    0.000000   0.000000   0.000000   0.224895   0.000000
   17  FE 1  Z    0.000000   0.228854   0.000000   0.000000   0.000000
   18  FE 1 XX    0.000001   0.000000   0.000000   0.000000  -0.000004
   19  FE 1 YY    0.000001   0.000000   0.000000   0.000000  -0.000004
   20  FE 1 ZZ   -0.000002   0.000000   0.000000   0.000000   0.000009
   21  FE 1 XY    0.000000   0.000000   0.000000   0.000000   0.000000
   22  FE 1 XZ    0.000000   0.000000   0.000000   0.000000   0.000000
   23  FE 1 YZ    0.000000   0.000000   0.000000   0.000000   0.000000
   24  FE 1 XX    0.000016   0.000000   0.000000   0.000000  -0.000056
   25  FE 1 YY    0.000016   0.000000   0.000000   0.000000  -0.000056
   26  FE 1 ZZ   -0.000032   0.000000   0.000000   0.000000   0.000112
   27  FE 1 XY    0.000000   0.000000   0.000000   0.000000   0.000000
   28  FE 1 XZ    0.000000   0.000000   0.000000   0.000000   0.000000
   29  FE 1 YZ    0.000000   0.000000   0.000000   0.000000   0.000000
   30  FE 1 XX    0.000096   0.000000   0.000000   0.000000  -0.000240
   31  FE 1 YY    0.000096   0.000000   0.000000   0.000000  -0.000240
   32  FE 1 ZZ   -0.000191   0.000000   0.000000   0.000000   0.000480
   33  FE 1 XY    0.000000   0.000000   0.000000   0.000000   0.000000
   34  FE 1 XZ    0.000000   0.000000   0.000000   0.000000   0.000000
   35  FE 1 YZ    0.000000   0.000000   0.000000   0.000000   0.000000
   36  FE 1 XX    0.001170   0.000000   0.000000   0.000000  -0.000729
   37  FE 1 YY    0.001170   0.000000   0.000000   0.000000  -0.000729
   38  FE 1 ZZ   -0.002339   0.000000   0.000000   0.000000   0.001457
   39  FE 1 XY    0.000000   0.000000   0.000000   0.000000   0.000000
   40  FE 1 XZ    0.000000   0.000000   0.000000   0.000000   0.000000
   41  FE 1 YZ    0.000000   0.000000   0.000000   0.000000   0.000000
   42  FE 1 XX   -0.006596   0.000000   0.000000   0.000000   0.001648
   43  FE 1 YY   -0.006596   0.000000   0.000000   0.000000   0.001648
   44  FE 1 ZZ    0.013192   0.000000   0.000000   0.000000  -0.003297
   45  FE 1 XY    0.000000   0.000000   0.000000   0.000000   0.000000
   46  FE 1 XZ    0.000000   0.000000   0.000000   0.000000   0.000000
   47  FE 1 YZ    0.000000   0.000000   0.000000   0.000000   0.000000
   48  FE 1 XX    0.001024   0.000000   0.000000   0.000000  -0.001797
   49  FE 1 YY    0.001024   0.000000   0.000000   0.000000  -0.001797
   50  FE 1 ZZ   -0.002048   0.000000   0.000000   0.000000   0.003593
   51  FE 1 XY    0.000000   0.000000   0.000000   0.000000   0.000000
   52  FE 1 XZ    0.000000   0.000000   0.000000   0.000000   0.000000
   53  FE 1 YZ    0.000000   0.000000   0.000000   0.000000   0.000000
   54  FE 1 XX    0.000872   0.000000   0.000000   0.000000  -0.004805
   55  FE 1 YY    0.000872   0.000000   0.000000   0.000000  -0.004805
   56  FE 1 ZZ   -0.001744   0.000000   0.000000   0.000000   0.009611
   57  FE 1 XY    0.000000   0.000000   0.000000   0.000000   0.000000
   58  FE 1 XZ    0.000000   0.000000   0.000000   0.000000   0.000000
   59  FE 1 YZ    0.000000   0.000000   0.000000   0.000000   0.000000
   60  FE 1 XX    0.000077   0.000000   0.000000   0.000000  -0.004340
   61  FE 1 YY    0.000077   0.000000   0.000000   0.000000  -0.004340
   62  FE 1 ZZ   -0.000153   0.000000   0.000000   0.000000   0.008680
   63  FE 1 XY    0.000000   0.000000   0.000000   0.000000   0.000000
   64  FE 1 XZ    0.000000   0.000000   0.000000   0.000000   0.000000
   65  FE 1 YZ    0.000000   0.000000   0.000000   0.000000   0.000000
   66  FE 1 XX   -0.001411   0.000000   0.000000   0.000000   0.000306
   67  FE 1 YY   -0.001411   0.000000   0.000000   0.000000   0.000306
   68  FE 1 ZZ    0.002822   0.000000   0.000000   0.000000  -0.000612
   69  FE 1 XY    0.000000   0.000000   0.000000   0.000000   0.000000
   70  FE 1 XZ    0.000000   0.000000   0.000000   0.000000   0.000000
   71  FE 1 YZ    0.000000   0.000000   0.000000   0.000000   0.000000
   72  FE 1 XX    0.006215   0.000000   0.000000   0.000000  -0.002222
   73  FE 1 YY    0.006215   0.000000   0.000000   0.000000  -0.002222
   74  FE 1 ZZ   -0.012430   0.000000   0.000000   0.000000   0.004444
   75  FE 1 XY    0.000000   0.000000   0.000000   0.000000   0.000000
   76  FE 1 XZ    0.000000   0.000000   0.000000   0.000000   0.000000
   77  FE 1 YZ    0.000000   0.000000   0.000000   0.000000   0.000000
   78  FE 1 XXX   0.000000   0.000000   0.000766   0.000000   0.000000
   79  FE 1 YYY   0.000000   0.000000   0.000000   0.000766   0.000000
   80  FE 1 ZZZ   0.000000   0.000848   0.000000   0.000000   0.000000
   81  FE 1 XXY   0.000000   0.000000   0.000000  -0.001431   0.000000
   82  FE 1 XXZ   0.000000  -0.000569   0.000000   0.000000   0.000000
   83  FE 1 YYX   0.000000   0.000000  -0.001431   0.000000   0.000000
   84  FE 1 YYZ   0.000000  -0.000569   0.000000   0.000000   0.000000
   85  FE 1 ZZX   0.000000   0.000000   0.000403   0.000000   0.000000
   86  FE 1 ZZY   0.000000   0.000000   0.000000   0.000403   0.000000
   87  FE 1 XYZ   0.000000   0.000000   0.000000   0.000000   0.000000
   88  FE 1 XXX   0.000000   0.000000   0.001140   0.000000   0.000000
   89  FE 1 YYY   0.000000   0.000000   0.000000   0.001140   0.000000
   90  FE 1 ZZZ   0.000000   0.002757   0.000000   0.000000   0.000000
   91  FE 1 XXY   0.000000   0.000000   0.000000  -0.003238   0.000000
   92  FE 1 XXZ   0.000000  -0.001849   0.000000   0.000000   0.000000
   93  FE 1 YYX   0.000000   0.000000  -0.003238   0.000000   0.000000
   94  FE 1 YYZ   0.000000  -0.001849   0.000000   0.000000   0.000000
   95  FE 1 ZZX   0.000000   0.000000   0.001709   0.000000   0.000000
   96  FE 1 ZZY   0.000000   0.000000   0.000000   0.001709   0.000000
   97  FE 1 XYZ   0.000000   0.000000   0.000000   0.000000   0.000000
   98  FE 1 XXX   0.000000   0.000000   0.002735   0.000000   0.000000
   99  FE 1 YYY   0.000000   0.000000   0.000000   0.002735   0.000000
  100  FE 1 ZZZ   0.000000   0.001346   0.000000   0.000000   0.000000
  101  FE 1 XXY   0.000000   0.000000   0.000000  -0.003855   0.000000
  102  FE 1 XXZ   0.000000  -0.000903   0.000000   0.000000   0.000000
  103  FE 1 YYX   0.000000   0.000000  -0.003855   0.000000   0.000000
  104  FE 1 YYZ   0.000000  -0.000903   0.000000   0.000000   0.000000
  105  FE 1 ZZX   0.000000   0.000000   0.000185   0.000000   0.000000
  106  FE 1 ZZY   0.000000   0.000000   0.000000   0.000185   0.000000
  107  FE 1 XYZ   0.000000   0.000000   0.000000   0.000000   0.000000
  108  FE 1XXXX   0.000122   0.000000   0.000000   0.000000   0.000023
  109  FE 1YYYY   0.000122   0.000000   0.000000   0.000000   0.000023
  110  FE 1ZZZZ   0.000026   0.000000   0.000000   0.000000   0.000005
  111  FE 1XXXY   0.000000   0.000000   0.000000   0.000000   0.000000
  112  FE 1XXXZ   0.000000   0.000000   0.000000   0.000000   0.000000
  113  FE 1YYYX   0.000000   0.000000   0.000000   0.000000   0.000000
  114  FE 1YYYZ   0.000000   0.000000   0.000000   0.000000   0.000000
  115  FE 1ZZZX   0.000000   0.000000   0.000000   0.000000   0.000000
  116  FE 1ZZZY   0.000000   0.000000   0.000000   0.000000   0.000000
  117  FE 1XXYY  -0.000191   0.000000   0.000000   0.000000  -0.000036
  118  FE 1XXZZ  -0.000023   0.000000   0.000000   0.000000  -0.000005
  119  FE 1YYZZ  -0.000023   0.000000   0.000000   0.000000  -0.000005
  120  FE 1XXYZ   0.000000   0.000000   0.000000   0.000000   0.000000
  121  FE 1YYXZ   0.000000   0.000000   0.000000   0.000000   0.000000
  122  FE 1ZZXY   0.000000   0.000000   0.000000   0.000000   0.000000
  123  FE 1XXXX   0.000526   0.000000   0.000000   0.000000   0.000110
  124  FE 1YYYY   0.000526   0.000000   0.000000   0.000000   0.000110
  125  FE 1ZZZZ   0.000101   0.000000   0.000000   0.000000   0.000048
  126  FE 1XXXY   0.000000   0.000000   0.000000   0.000000   0.000000
  127  FE 1XXXZ   0.000000   0.000000   0.000000   0.000000   0.000000
  128  FE 1YYYX   0.000000   0.000000   0.000000   0.000000   0.000000
  129  FE 1YYYZ   0.000000   0.000000   0.000000   0.000000   0.000000
  130  FE 1ZZZX   0.000000   0.000000   0.000000   0.000000   0.000000
  131  FE 1ZZZY   0.000000   0.000000   0.000000   0.000000   0.000000
  132  FE 1XXYY  -0.000835   0.000000   0.000000   0.000000  -0.000152
  133  FE 1XXZZ  -0.000089   0.000000   0.000000   0.000000  -0.000042
  134  FE 1YYZZ  -0.000089   0.000000   0.000000   0.000000  -0.000042
  135  FE 1XXYZ   0.000000   0.000000   0.000000   0.000000   0.000000
  136  FE 1YYXZ   0.000000   0.000000   0.000000   0.000000   0.000000
  137  FE 1ZZXY   0.000000   0.000000   0.000000   0.000000   0.000000

                      6          7          8          9         10
                   -0.4167    -0.1769    -0.1889    -0.1769    -0.1411
                     AG         B2G        AG         B3G        B1G 
    1  FE 1  S   -0.000000   0.000000   0.002982   0.000000   0.000000
    2  FE 1  S   -0.000000   0.000000  -0.010638   0.000000   0.000000
    3  FE 1  S    0.000000   0.000000  -0.001919   0.000000   0.000000
    4  FE 1  S    0.000000   0.000000   0.002060   0.000000   0.000000
    5  FE 1  S    0.000000   0.000000  -0.002417   0.000000   0.000000
    6  FE 1  X    0.000000   0.000000   0.000000   0.000000   0.000000
    7  FE 1  Y    0.000000   0.000000   0.000000   0.000000   0.000000
    8  FE 1  Z    0.000000   0.000000   0.000000   0.000000   0.000000
    9  FE 1  X    0.000000   0.000000   0.000000   0.000000   0.000000
   10  FE 1  Y    0.000000   0.000000   0.000000   0.000000   0.000000
   11  FE 1  Z    0.000000   0.000000   0.000000   0.000000   0.000000
   12  FE 1  X    0.000000   0.000000   0.000000   0.000000   0.000000
   13  FE 1  Y    0.000000   0.000000   0.000000   0.000000   0.000000
   14  FE 1  Z    0.000000   0.000000   0.000000   0.000000   0.000000
   15  FE 1  X    0.000000   0.000000   0.000000   0.000000   0.000000
   16  FE 1  Y    0.000000   0.000000   0.000000   0.000000   0.000000
   17  FE 1  Z    0.000000   0.000000   0.000000   0.000000   0.000000
   18  FE 1 XX   -0.001758   0.000000  -0.001049   0.000000   0.000000
   19  FE 1 YY    0.001758   0.000000  -0.001049   0.000000   0.000000
   20  FE 1 ZZ    0.000000   0.000000   0.002097   0.000000   0.000000
   21  FE 1 XY    0.000000   0.000000   0.000000   0.000000   0.002083
   22  FE 1 XZ    0.000000   0.002094   0.000000   0.000000   0.000000
   23  FE 1 YZ    0.000000   0.000000   0.000000   0.002094   0.000000
   24  FE 1 XX   -0.021918   0.000000  -0.013060   0.000000   0.000000
   25  FE 1 YY    0.021918   0.000000  -0.013060   0.000000   0.000000
   26  FE 1 ZZ    0.000000   0.000000   0.026121   0.000000   0.000000
   27  FE 1 XY    0.000000   0.000000   0.000000   0.000000   0.025949
   28  FE 1 XZ    0.000000   0.026079   0.000000   0.000000   0.000000
   29  FE 1 YZ    0.000000   0.000000   0.000000   0.026079   0.000000
   30  FE 1 XX   -0.091549   0.000000  -0.054556   0.000000   0.000000
   31  FE 1 YY    0.091549   0.000000  -0.054556   0.000000   0.000000
   32  FE 1 ZZ    0.000000   0.000000   0.109112   0.000000   0.000000
   33  FE 1 XY    0.000000   0.000000   0.000000   0.000000   0.108380
   34  FE 1 XZ    0.000000   0.108934   0.000000   0.000000   0.000000
   35  FE 1 YZ    0.000000   0.000000   0.000000   0.108934   0.000000
   36  FE 1 XX   -0.187453   0.000000  -0.111647   0.000000   0.000000
   37  FE 1 YY    0.187453   0.000000  -0.111647   0.000000   0.000000
   38  FE 1 ZZ    0.000000   0.000000   0.223293   0.000000   0.000000
   39  FE 1 XY    0.000000   0.000000   0.000000   0.000000   0.221689
   40  FE 1 XZ    0.000000   0.222940   0.000000   0.000000   0.000000
   41  FE 1 YZ    0.000000   0.000000   0.000000   0.222940   0.000000
   42  FE 1 XX   -0.393128   0.000000  -0.241927   0.000000   0.000000
   43  FE 1 YY    0.393128   0.000000  -0.241927   0.000000   0.000000
   44  FE 1 ZZ   -0.000000   0.000000   0.483854   0.000000   0.000000
   45  FE 1 XY    0.000000   0.000000   0.000000   0.000000   0.477678
   46  FE 1 XZ    0.000000   0.481859   0.000000   0.000000   0.000000
   47  FE 1 YZ    0.000000   0.000000   0.000000   0.481859   0.000000
   48  FE 1 XX   -0.314335   0.000000  -0.183443   0.000000   0.000000
   49  FE 1 YY    0.314335   0.000000  -0.183443   0.000000   0.000000
   50  FE 1 ZZ    0.000000   0.000000   0.366886   0.000000   0.000000
   51  FE 1 XY    0.000000   0.000000   0.000000   0.000000   0.366257
   52  FE 1 XZ    0.000000   0.366781   0.000000   0.000000   0.000000
   53  FE 1 YZ    0.000000   0.000000   0.000000   0.366781   0.000000
   54  FE 1 XX   -0.198480   0.000000  -0.096901   0.000000   0.000000
   55  FE 1 YY    0.198480   0.000000  -0.096901   0.000000   0.000000
   56  FE 1 ZZ    0.000000   0.000000   0.193801   0.000000   0.000000
   57  FE 1 XY    0.000000   0.000000   0.000000   0.000000   0.201758
   58  FE 1 XZ    0.000000   0.195844   0.000000   0.000000   0.000000
   59  FE 1 YZ    0.000000   0.000000   0.000000   0.195844   0.000000
   60  FE 1 XX   -0.040070   0.000000  -0.011892   0.000000   0.000000
   61  FE 1 YY    0.040070   0.000000  -0.011892   0.000000   0.000000
   62  FE 1 ZZ    0.000000   0.000000   0.023784   0.000000   0.000000
   63  FE 1 XY    0.000000   0.000000   0.000000   0.000000   0.028143
   64  FE 1 XZ    0.000000   0.024878   0.000000   0.000000   0.000000
   65  FE 1 YZ    0.000000   0.000000   0.000000   0.024878   0.000000
   66  FE 1 XX   -0.026393   0.000000  -0.016663   0.000000   0.000000
   67  FE 1 YY    0.026393   0.000000  -0.016663   0.000000   0.000000
   68  FE 1 ZZ   -0.000000   0.000000   0.033327   0.000000   0.000000
   69  FE 1 XY    0.000000   0.000000   0.000000   0.000000   0.032842
   70  FE 1 XZ    0.000000   0.033153   0.000000   0.000000   0.000000
   71  FE 1 YZ    0.000000   0.000000   0.000000   0.033153   0.000000
   72  FE 1 XX    0.084550   0.000000   0.055808   0.000000   0.000000
   73  FE 1 YY   -0.084550   0.000000   0.055808   0.000000   0.000000
   74  FE 1 ZZ    0.000000   0.000000  -0.111617   0.000000   0.000000
   75  FE 1 XY    0.000000   0.000000   0.000000   0.000000  -0.108820
   76  FE 1 XZ    0.000000  -0.110469   0.000000   0.000000   0.000000
   77  FE 1 YZ    0.000000   0.000000   0.000000  -0.110469   0.000000
   78  FE 1 XXX   0.000000   0.000000   0.000000   0.000000   0.000000
   79  FE 1 YYY   0.000000   0.000000   0.000000   0.000000   0.000000
   80  FE 1 ZZZ   0.000000   0.000000   0.000000   0.000000   0.000000
   81  FE 1 XXY   0.000000   0.000000   0.000000   0.000000   0.000000
   82  FE 1 XXZ   0.000000   0.000000   0.000000   0.000000   0.000000
   83  FE 1 YYX   0.000000   0.000000   0.000000   0.000000   0.000000
   84  FE 1 YYZ   0.000000   0.000000   0.000000   0.000000   0.000000
   85  FE 1 ZZX   0.000000   0.000000   0.000000   0.000000   0.000000
   86  FE 1 ZZY   0.000000   0.000000   0.000000   0.000000   0.000000
   87  FE 1 XYZ   0.000000   0.000000   0.000000   0.000000   0.000000
   88  FE 1 XXX   0.000000   0.000000   0.000000   0.000000   0.000000
   89  FE 1 YYY   0.000000   0.000000   0.000000   0.000000   0.000000
   90  FE 1 ZZZ   0.000000   0.000000   0.000000   0.000000   0.000000
   91  FE 1 XXY   0.000000   0.000000   0.000000   0.000000   0.000000
   92  FE 1 XXZ   0.000000   0.000000   0.000000   0.000000   0.000000
   93  FE 1 YYX   0.000000   0.000000   0.000000   0.000000   0.000000
   94  FE 1 YYZ   0.000000   0.000000   0.000000   0.000000   0.000000
   95  FE 1 ZZX   0.000000   0.000000   0.000000   0.000000   0.000000
   96  FE 1 ZZY   0.000000   0.000000   0.000000   0.000000   0.000000
   97  FE 1 XYZ   0.000000   0.000000   0.000000   0.000000   0.000000
   98  FE 1 XXX   0.000000   0.000000   0.000000   0.000000   0.000000
   99  FE 1 YYY   0.000000   0.000000   0.000000   0.000000   0.000000
  100  FE 1 ZZZ   0.000000   0.000000   0.000000   0.000000   0.000000
  101  FE 1 XXY   0.000000   0.000000   0.000000   0.000000   0.000000
  102  FE 1 XXZ   0.000000   0.000000   0.000000   0.000000   0.000000
  103  FE 1 YYX   0.000000   0.000000   0.000000   0.000000   0.000000
  104  FE 1 YYZ   0.000000   0.000000   0.000000   0.000000   0.000000
  105  FE 1 ZZX   0.000000   0.000000   0.000000   0.000000   0.000000
  106  FE 1 ZZY   0.000000   0.000000   0.000000   0.000000   0.000000
  107  FE 1 XYZ   0.000000   0.000000   0.000000   0.000000   0.000000
  108  FE 1XXXX   0.000183   0.000000   0.000659   0.000000   0.000000
  109  FE 1YYYY  -0.000183   0.000000   0.000659   0.000000   0.000000
  110  FE 1ZZZZ   0.000000   0.000000   0.000849   0.000000   0.000000
  111  FE 1XXXY   0.000000   0.000000   0.000000   0.000000  -0.000208
  112  FE 1XXXZ   0.000000  -0.000954   0.000000   0.000000   0.000000
  113  FE 1YYYX   0.000000   0.000000   0.000000   0.000000  -0.000208
  114  FE 1YYYZ   0.000000   0.000000   0.000000  -0.000954   0.000000
  115  FE 1ZZZX   0.000000   0.000969   0.000000   0.000000   0.000000
  116  FE 1ZZZY   0.000000   0.000000   0.000000   0.000969   0.000000
  117  FE 1XXYY   0.000000   0.000000  -0.000413   0.000000   0.000000
  118  FE 1XXZZ  -0.000322   0.000000  -0.000746   0.000000   0.000000
  119  FE 1YYZZ   0.000322   0.000000  -0.000746   0.000000   0.000000
  120  FE 1XXYZ   0.000000   0.000000   0.000000  -0.000020   0.000000
  121  FE 1YYXZ   0.000000  -0.000020   0.000000   0.000000   0.000000
  122  FE 1ZZXY   0.000000   0.000000   0.000000   0.000000   0.000558
  123  FE 1XXXX   0.000737   0.000000   0.002346   0.000000   0.000000
  124  FE 1YYYY  -0.000737   0.000000   0.002346   0.000000   0.000000
  125  FE 1ZZZZ   0.000000   0.000000   0.003163   0.000000   0.000000
  126  FE 1XXXY   0.000000   0.000000   0.000000   0.000000  -0.000794
  127  FE 1XXXZ   0.000000  -0.003482   0.000000   0.000000   0.000000
  128  FE 1YYYX   0.000000   0.000000   0.000000   0.000000  -0.000794
  129  FE 1YYYZ   0.000000   0.000000   0.000000  -0.003482   0.000000
  130  FE 1ZZZX   0.000000   0.003609   0.000000   0.000000   0.000000
  131  FE 1ZZZY   0.000000   0.000000   0.000000   0.003609   0.000000
  132  FE 1XXYY   0.000000   0.000000  -0.001343   0.000000   0.000000
  133  FE 1XXZZ  -0.001294   0.000000  -0.002778   0.000000   0.000000
  134  FE 1YYZZ   0.001294   0.000000  -0.002778   0.000000   0.000000
  135  FE 1XXYZ   0.000000   0.000000   0.000000  -0.000170   0.000000
  136  FE 1YYXZ   0.000000  -0.000170   0.000000   0.000000   0.000000
  137  FE 1ZZXY   0.000000   0.000000   0.000000   0.000000   0.002131

                     11         12         13         14         15
                    0.0436     0.0401     0.0436     0.1153     0.2733
                     B3U        B1U        B2U        AG         B2G 
    1  FE 1  S    0.000000   0.000000   0.000000  -0.313572   0.000000
    2  FE 1  S    0.000000   0.000000   0.000000  -1.644154   0.000000
    3  FE 1  S    0.000000   0.000000   0.000000   1.847098   0.000000
    4  FE 1  S    0.000000   0.000000   0.000000   0.055591   0.000000
    5  FE 1  S    0.000000   0.000000   0.000000  -0.162502   0.000000
    6  FE 1  X   -0.034114   0.000000   0.000000   0.000000   0.000000
    7  FE 1  Y    0.000000   0.000000  -0.034114   0.000000   0.000000
    8  FE 1  Z    0.000000  -0.030590   0.000000   0.000000   0.000000
    9  FE 1  X    1.002104   0.000000   0.000000   0.000000   0.000000
   10  FE 1  Y    0.000000   0.000000   1.002104   0.000000   0.000000
   11  FE 1  Z    0.000000   1.001993   0.000000   0.000000   0.000000
   12  FE 1  X   -0.000351   0.000000   0.000000   0.000000   0.000000
   13  FE 1  Y    0.000000   0.000000  -0.000351   0.000000   0.000000
   14  FE 1  Z    0.000000  -0.000503   0.000000   0.000000   0.000000
   15  FE 1  X   -0.047685   0.000000   0.000000   0.000000   0.000000
   16  FE 1  Y    0.000000   0.000000  -0.047685   0.000000   0.000000
   17  FE 1  Z    0.000000  -0.050361   0.000000   0.000000   0.000000
   18  FE 1 XX    0.000000   0.000000   0.000000  -0.000012   0.000000
   19  FE 1 YY    0.000000   0.000000   0.000000  -0.000012   0.000000
   20  FE 1 ZZ    0.000000   0.000000   0.000000   0.000024   0.000000
   21  FE 1 XY    0.000000   0.000000   0.000000   0.000000   0.000000
   22  FE 1 XZ    0.000000   0.000000   0.000000   0.000000   0.000561
   23  FE 1 YZ    0.000000   0.000000   0.000000   0.000000   0.000000
   24  FE 1 XX    0.000000   0.000000   0.000000  -0.000143   0.000000
   25  FE 1 YY    0.000000   0.000000   0.000000  -0.000143   0.000000
   26  FE 1 ZZ    0.000000   0.000000   0.000000   0.000285   0.000000
   27  FE 1 XY    0.000000   0.000000   0.000000   0.000000   0.000000
   28  FE 1 XZ    0.000000   0.000000   0.000000   0.000000   0.004846
   29  FE 1 YZ    0.000000   0.000000   0.000000   0.000000   0.000000
   30  FE 1 XX    0.000000   0.000000   0.000000  -0.000621   0.000000
   31  FE 1 YY    0.000000   0.000000   0.000000  -0.000621   0.000000
   32  FE 1 ZZ    0.000000   0.000000   0.000000   0.001242   0.000000
   33  FE 1 XY    0.000000   0.000000   0.000000   0.000000   0.000000
   34  FE 1 XZ    0.000000   0.000000   0.000000   0.000000   0.030086
   35  FE 1 YZ    0.000000   0.000000   0.000000   0.000000   0.000000
   36  FE 1 XX    0.000000   0.000000   0.000000  -0.000233   0.000000
   37  FE 1 YY    0.000000   0.000000   0.000000  -0.000233   0.000000
   38  FE 1 ZZ    0.000000   0.000000   0.000000   0.000465   0.000000
   39  FE 1 XY    0.000000   0.000000   0.000000   0.000000   0.000000
   40  FE 1 XZ    0.000000   0.000000   0.000000   0.000000  -0.233571
   41  FE 1 YZ    0.000000   0.000000   0.000000   0.000000   0.000000
   42  FE 1 XX    0.000000   0.000000   0.000000  -0.013952   0.000000
   43  FE 1 YY    0.000000   0.000000   0.000000  -0.013952   0.000000
   44  FE 1 ZZ    0.000000   0.000000   0.000000   0.027905   0.000000
   45  FE 1 XY    0.000000   0.000000   0.000000   0.000000   0.000000
   46  FE 1 XZ    0.000000   0.000000   0.000000   0.000000   3.450261
   47  FE 1 YZ    0.000000   0.000000   0.000000   0.000000   0.000000
   48  FE 1 XX    0.000000   0.000000   0.000000   0.000518   0.000000
   49  FE 1 YY    0.000000   0.000000   0.000000   0.000518   0.000000
   50  FE 1 ZZ    0.000000   0.000000   0.000000  -0.001035   0.000000
   51  FE 1 XY    0.000000   0.000000   0.000000   0.000000   0.000000
   52  FE 1 XZ    0.000000   0.000000   0.000000   0.000000  -0.075738
   53  FE 1 YZ    0.000000   0.000000   0.000000   0.000000   0.000000
   54  FE 1 XX    0.000000   0.000000   0.000000   0.004477   0.000000
   55  FE 1 YY    0.000000   0.000000   0.000000   0.004477   0.000000
   56  FE 1 ZZ    0.000000   0.000000   0.000000  -0.008954   0.000000
   57  FE 1 XY    0.000000   0.000000   0.000000   0.000000   0.000000
   58  FE 1 XZ    0.000000   0.000000   0.000000   0.000000   0.221825
   59  FE 1 YZ    0.000000   0.000000   0.000000   0.000000   0.000000
   60  FE 1 XX    0.000000   0.000000   0.000000   0.004588   0.000000
   61  FE 1 YY    0.000000   0.000000   0.000000   0.004588   0.000000
   62  FE 1 ZZ    0.000000   0.000000   0.000000  -0.009176   0.000000
   63  FE 1 XY    0.000000   0.000000   0.000000   0.000000   0.000000
   64  FE 1 XZ    0.000000   0.000000   0.000000   0.000000  -1.097573
   65  FE 1 YZ    0.000000   0.000000   0.000000   0.000000   0.000000
   66  FE 1 XX    0.000000   0.000000   0.000000  -0.001612   0.000000
   67  FE 1 YY    0.000000   0.000000   0.000000  -0.001612   0.000000
   68  FE 1 ZZ    0.000000   0.000000   0.000000   0.003224   0.000000
   69  FE 1 XY    0.000000   0.000000   0.000000   0.000000   0.000000
   70  FE 1 XZ    0.000000   0.000000   0.000000   0.000000   0.365793
   71  FE 1 YZ    0.000000   0.000000   0.000000   0.000000   0.000000
   72  FE 1 XX    0.000000   0.000000   0.000000   0.011754   0.000000
   73  FE 1 YY    0.000000   0.000000   0.000000   0.011754   0.000000
   74  FE 1 ZZ    0.000000   0.000000   0.000000  -0.023508   0.000000
   75  FE 1 XY    0.000000   0.000000   0.000000   0.000000   0.000000
   76  FE 1 XZ    0.000000   0.000000   0.000000   0.000000  -3.379823
   77  FE 1 YZ    0.000000   0.000000   0.000000   0.000000   0.000000
   78  FE 1 XXX   0.000141   0.000000   0.000000   0.000000   0.000000
   79  FE 1 YYY   0.000000   0.000000   0.000141   0.000000   0.000000
   80  FE 1 ZZZ   0.000000  -0.000064   0.000000   0.000000   0.000000
   81  FE 1 XXY   0.000000   0.000000  -0.000097   0.000000   0.000000
   82  FE 1 XXZ   0.000000   0.000043   0.000000   0.000000   0.000000
   83  FE 1 YYX  -0.000097   0.000000   0.000000   0.000000   0.000000
   84  FE 1 YYZ   0.000000   0.000043   0.000000   0.000000   0.000000
   85  FE 1 ZZX  -0.000091   0.000000   0.000000   0.000000   0.000000
   86  FE 1 ZZY   0.000000   0.000000  -0.000091   0.000000   0.000000
   87  FE 1 XYZ   0.000000   0.000000   0.000000   0.000000   0.000000
   88  FE 1 XXX   0.000637   0.000000   0.000000   0.000000   0.000000
   89  FE 1 YYY   0.000000   0.000000   0.000637   0.000000   0.000000
   90  FE 1 ZZZ   0.000000  -0.000526   0.000000   0.000000   0.000000
   91  FE 1 XXY   0.000000   0.000000  -0.000271   0.000000   0.000000
   92  FE 1 XXZ   0.000000   0.000353   0.000000   0.000000   0.000000
   93  FE 1 YYX  -0.000271   0.000000   0.000000   0.000000   0.000000
   94  FE 1 YYZ   0.000000   0.000353   0.000000   0.000000   0.000000
   95  FE 1 ZZX  -0.000583   0.000000   0.000000   0.000000   0.000000
   96  FE 1 ZZY   0.000000   0.000000  -0.000583   0.000000   0.000000
   97  FE 1 XYZ   0.000000   0.000000   0.000000   0.000000   0.000000
   98  FE 1 XXX  -0.001297   0.000000   0.000000   0.000000   0.000000
   99  FE 1 YYY   0.000000   0.000000  -0.001297   0.000000   0.000000
  100  FE 1 ZZZ   0.000000   0.001069   0.000000   0.000000   0.000000
  101  FE 1 XXY   0.000000   0.000000   0.000567   0.000000   0.000000
  102  FE 1 XXZ   0.000000  -0.000717   0.000000   0.000000   0.000000
  103  FE 1 YYX   0.000567   0.000000   0.000000   0.000000   0.000000
  104  FE 1 YYZ   0.000000  -0.000717   0.000000   0.000000   0.000000
  105  FE 1 ZZX   0.001173   0.000000   0.000000   0.000000   0.000000
  106  FE 1 ZZY   0.000000   0.000000   0.001173   0.000000   0.000000
  107  FE 1 XYZ   0.000000   0.000000   0.000000   0.000000   0.000000
  108  FE 1XXXX   0.000000   0.000000   0.000000  -0.000303   0.000000
  109  FE 1YYYY   0.000000   0.000000   0.000000  -0.000303   0.000000
  110  FE 1ZZZZ   0.000000   0.000000   0.000000  -0.000050   0.000000
  111  FE 1XXXY   0.000000   0.000000   0.000000   0.000000   0.000000
  112  FE 1XXXZ   0.000000   0.000000   0.000000   0.000000  -0.000364
  113  FE 1YYYX   0.000000   0.000000   0.000000   0.000000   0.000000
  114  FE 1YYYZ   0.000000   0.000000   0.000000   0.000000   0.000000
  115  FE 1ZZZX   0.000000   0.000000   0.000000   0.000000   0.000327
  116  FE 1ZZZY   0.000000   0.000000   0.000000   0.000000   0.000000
  117  FE 1XXYY   0.000000   0.000000   0.000000   0.000488   0.000000
  118  FE 1XXZZ   0.000000   0.000000   0.000000   0.000044   0.000000
  119  FE 1YYZZ   0.000000   0.000000   0.000000   0.000044   0.000000
  120  FE 1XXYZ   0.000000   0.000000   0.000000   0.000000   0.000000
  121  FE 1YYXZ   0.000000   0.000000   0.000000   0.000000   0.000050
  122  FE 1ZZXY   0.000000   0.000000   0.000000   0.000000   0.000000
  123  FE 1XXXX   0.000000   0.000000   0.000000   0.000436   0.000000
  124  FE 1YYYY   0.000000   0.000000   0.000000   0.000436   0.000000
  125  FE 1ZZZZ   0.000000   0.000000   0.000000   0.000092   0.000000
  126  FE 1XXXY   0.000000   0.000000   0.000000   0.000000   0.000000
  127  FE 1XXXZ   0.000000   0.000000   0.000000   0.000000  -0.000675
  128  FE 1YYYX   0.000000   0.000000   0.000000   0.000000   0.000000
  129  FE 1YYYZ   0.000000   0.000000   0.000000   0.000000   0.000000
  130  FE 1ZZZX   0.000000   0.000000   0.000000   0.000000   0.000606
  131  FE 1ZZZY   0.000000   0.000000   0.000000   0.000000   0.000000
  132  FE 1XXYY   0.000000   0.000000   0.000000  -0.000685   0.000000
  133  FE 1XXZZ   0.000000   0.000000   0.000000  -0.000081   0.000000
  134  FE 1YYZZ   0.000000   0.000000   0.000000  -0.000081   0.000000
  135  FE 1XXYZ   0.000000   0.000000   0.000000   0.000000   0.000000
  136  FE 1YYXZ   0.000000   0.000000   0.000000   0.000000   0.000093
  137  FE 1ZZXY   0.000000   0.000000   0.000000   0.000000   0.000000

                     16         17         18         19         20
                    0.2733     0.2756     0.2727     0.2859     1.0439
                     B3G        B1G        AG         AG         B1G 
    1  FE 1  S    0.000000   0.000000   0.004354  -0.000000   0.000000
    2  FE 1  S    0.000000   0.000000   0.032274  -0.000000   0.000000
    3  FE 1  S    0.000000   0.000000  -0.022636   0.000000   0.000000
    4  FE 1  S    0.000000   0.000000  -0.000870   0.000000   0.000000
    5  FE 1  S    0.000000   0.000000   0.000954  -0.000000   0.000000
    6  FE 1  X    0.000000   0.000000   0.000000   0.000000   0.000000
    7  FE 1  Y    0.000000   0.000000   0.000000   0.000000   0.000000
    8  FE 1  Z    0.000000   0.000000   0.000000   0.000000   0.000000
    9  FE 1  X    0.000000   0.000000   0.000000   0.000000   0.000000
   10  FE 1  Y    0.000000   0.000000   0.000000   0.000000   0.000000
   11  FE 1  Z    0.000000   0.000000   0.000000   0.000000   0.000000
   12  FE 1  X    0.000000   0.000000   0.000000   0.000000   0.000000
   13  FE 1  Y    0.000000   0.000000   0.000000   0.000000   0.000000
   14  FE 1  Z    0.000000   0.000000   0.000000   0.000000   0.000000
   15  FE 1  X    0.000000   0.000000   0.000000   0.000000   0.000000
   16  FE 1  Y    0.000000   0.000000   0.000000   0.000000   0.000000
   17  FE 1  Z    0.000000   0.000000   0.000000   0.000000   0.000000
   18  FE 1 XX    0.000000   0.000000  -0.000279  -0.000516   0.000000
   19  FE 1 YY    0.000000   0.000000  -0.000279   0.000516   0.000000
   20  FE 1 ZZ    0.000000   0.000000   0.000557   0.000000   0.000000
   21  FE 1 XY    0.000000   0.000571   0.000000   0.000000   0.000731
   22  FE 1 XZ    0.000000   0.000000   0.000000   0.000000   0.000000
   23  FE 1 YZ    0.000561   0.000000   0.000000   0.000000   0.000000
   24  FE 1 XX    0.000000   0.000000  -0.002403  -0.004447   0.000000
   25  FE 1 YY    0.000000   0.000000  -0.002403   0.004447   0.000000
   26  FE 1 ZZ    0.000000   0.000000   0.004806   0.000000   0.000000
   27  FE 1 XY    0.000000   0.004946   0.000000   0.000000   0.018624
   28  FE 1 XZ    0.000000   0.000000   0.000000   0.000000   0.000000
   29  FE 1 YZ    0.004846   0.000000   0.000000   0.000000   0.000000
   30  FE 1 XX    0.000000   0.000000  -0.014943  -0.027641   0.000000
   31  FE 1 YY    0.000000   0.000000  -0.014943   0.027641   0.000000
   32  FE 1 ZZ    0.000000   0.000000   0.029887  -0.000000   0.000000
   33  FE 1 XY    0.000000   0.030614   0.000000   0.000000   0.034876
   34  FE 1 XZ    0.000000   0.000000   0.000000   0.000000   0.000000
   35  FE 1 YZ    0.030086   0.000000   0.000000   0.000000   0.000000
   36  FE 1 XX    0.000000   0.000000   0.116485   0.216602   0.000000
   37  FE 1 YY    0.000000   0.000000   0.116485  -0.216602   0.000000
   38  FE 1 ZZ    0.000000   0.000000  -0.232970   0.000000   0.000000
   39  FE 1 XY    0.000000  -0.235872   0.000000   0.000000   1.410122
   40  FE 1 XZ    0.000000   0.000000   0.000000   0.000000   0.000000
   41  FE 1 YZ   -0.233571   0.000000   0.000000   0.000000   0.000000
   42  FE 1 XX    0.000000   0.000000  -1.719137  -3.191713   0.000000
   43  FE 1 YY    0.000000   0.000000  -1.719137   3.191713   0.000000
   44  FE 1 ZZ    0.000000   0.000000   3.438274  -0.000000   0.000000
   45  FE 1 XY    0.000000   3.490035   0.000000   0.000000 -15.355666
   46  FE 1 XZ    0.000000   0.000000   0.000000   0.000000   0.000000
   47  FE 1 YZ    3.450261   0.000000   0.000000   0.000000   0.000000
   48  FE 1 XX    0.000000   0.000000   0.037920   0.063493   0.000000
   49  FE 1 YY    0.000000   0.000000   0.037920  -0.063493   0.000000
   50  FE 1 ZZ    0.000000   0.000000  -0.075840   0.000000   0.000000
   51  FE 1 XY    0.000000  -0.075510   0.000000   0.000000   0.898164
   52  FE 1 XZ    0.000000   0.000000   0.000000   0.000000   0.000000
   53  FE 1 YZ   -0.075738   0.000000   0.000000   0.000000   0.000000
   54  FE 1 XX    0.000000   0.000000  -0.110125  -0.233728   0.000000
   55  FE 1 YY    0.000000   0.000000  -0.110125   0.233728   0.000000
   56  FE 1 ZZ    0.000000   0.000000   0.220250  -0.000000   0.000000
   57  FE 1 XY    0.000000   0.228017   0.000000   0.000000  -1.632425
   58  FE 1 XZ    0.000000   0.000000   0.000000   0.000000   0.000000
   59  FE 1 YZ    0.221825   0.000000   0.000000   0.000000   0.000000
   60  FE 1 XX    0.000000   0.000000   0.548456   0.965712   0.000000
   61  FE 1 YY    0.000000   0.000000   0.548456  -0.965712   0.000000
   62  FE 1 ZZ    0.000000   0.000000  -1.096913   0.000000   0.000000
   63  FE 1 XY    0.000000  -1.099702   0.000000   0.000000   0.732351
   64  FE 1 XZ    0.000000   0.000000   0.000000   0.000000   0.000000
   65  FE 1 YZ   -1.097573   0.000000   0.000000   0.000000   0.000000
   66  FE 1 XX    0.000000   0.000000  -0.182260  -0.338286   0.000000
   67  FE 1 YY    0.000000   0.000000  -0.182260   0.338286   0.000000
   68  FE 1 ZZ    0.000000   0.000000   0.364520  -0.000000   0.000000
   69  FE 1 XY    0.000000   0.369989   0.000000   0.000000  -1.610306
   70  FE 1 XZ    0.000000   0.000000   0.000000   0.000000   0.000000
   71  FE 1 YZ    0.365793   0.000000   0.000000   0.000000   0.000000
   72  FE 1 XX    0.000000   0.000000   1.684200   3.126614   0.000000
   73  FE 1 YY    0.000000   0.000000   1.684200  -3.126614   0.000000
   74  FE 1 ZZ    0.000000   0.000000  -3.368399   0.000000   0.000000
   75  FE 1 XY    0.000000  -3.418219   0.000000   0.000000  15.583679
   76  FE 1 XZ    0.000000   0.000000   0.000000   0.000000   0.000000
   77  FE 1 YZ   -3.379823   0.000000   0.000000   0.000000   0.000000
   78  FE 1 XXX   0.000000   0.000000   0.000000   0.000000   0.000000
   79  FE 1 YYY   0.000000   0.000000   0.000000   0.000000   0.000000
   80  FE 1 ZZZ   0.000000   0.000000   0.000000   0.000000   0.000000
   81  FE 1 XXY   0.000000   0.000000   0.000000   0.000000   0.000000
   82  FE 1 XXZ   0.000000   0.000000   0.000000   0.000000   0.000000
   83  FE 1 YYX   0.000000   0.000000   0.000000   0.000000   0.000000
   84  FE 1 YYZ   0.000000   0.000000   0.000000   0.000000   0.000000
   85  FE 1 ZZX   0.000000   0.000000   0.000000   0.000000   0.000000
   86  FE 1 ZZY   0.000000   0.000000   0.000000   0.000000   0.000000
   87  FE 1 XYZ   0.000000   0.000000   0.000000   0.000000   0.000000
   88  FE 1 XXX   0.000000   0.000000   0.000000   0.000000   0.000000
   89  FE 1 YYY   0.000000   0.000000   0.000000   0.000000   0.000000
   90  FE 1 ZZZ   0.000000   0.000000   0.000000   0.000000   0.000000
   91  FE 1 XXY   0.000000   0.000000   0.000000   0.000000   0.000000
   92  FE 1 XXZ   0.000000   0.000000   0.000000   0.000000   0.000000
   93  FE 1 YYX   0.000000   0.000000   0.000000   0.000000   0.000000
   94  FE 1 YYZ   0.000000   0.000000   0.000000   0.000000   0.000000
   95  FE 1 ZZX   0.000000   0.000000   0.000000   0.000000   0.000000
   96  FE 1 ZZY   0.000000   0.000000   0.000000   0.000000   0.000000
   97  FE 1 XYZ   0.000000   0.000000   0.000000   0.000000   0.000000
   98  FE 1 XXX   0.000000   0.000000   0.000000   0.000000   0.000000
   99  FE 1 YYY   0.000000   0.000000   0.000000   0.000000   0.000000
  100  FE 1 ZZZ   0.000000   0.000000   0.000000   0.000000   0.000000
  101  FE 1 XXY   0.000000   0.000000   0.000000   0.000000   0.000000
  102  FE 1 XXZ   0.000000   0.000000   0.000000   0.000000   0.000000
  103  FE 1 YYX   0.000000   0.000000   0.000000   0.000000   0.000000
  104  FE 1 YYZ   0.000000   0.000000   0.000000   0.000000   0.000000
  105  FE 1 ZZX   0.000000   0.000000   0.000000   0.000000   0.000000
  106  FE 1 ZZY   0.000000   0.000000   0.000000   0.000000   0.000000
  107  FE 1 XYZ   0.000000   0.000000   0.000000   0.000000   0.000000
  108  FE 1XXXX   0.000000   0.000000   0.000293   0.000178   0.000000
  109  FE 1YYYY   0.000000   0.000000   0.000293  -0.000178   0.000000
  110  FE 1ZZZZ   0.000000   0.000000   0.000279   0.000000   0.000000
  111  FE 1XXXY   0.000000  -0.000066   0.000000   0.000000  -0.000189
  112  FE 1XXXZ   0.000000   0.000000   0.000000   0.000000   0.000000
  113  FE 1YYYX   0.000000  -0.000066   0.000000   0.000000  -0.000189
  114  FE 1YYYZ  -0.000364   0.000000   0.000000   0.000000   0.000000
  115  FE 1ZZZX   0.000000   0.000000   0.000000   0.000000   0.000000
  116  FE 1ZZZY   0.000327   0.000000   0.000000   0.000000   0.000000
  117  FE 1XXYY   0.000000   0.000000  -0.000270   0.000000   0.000000
  118  FE 1XXZZ   0.000000   0.000000  -0.000245  -0.000313   0.000000
  119  FE 1YYZZ   0.000000   0.000000  -0.000245   0.000313   0.000000
  120  FE 1XXYZ   0.000050   0.000000   0.000000   0.000000   0.000000
  121  FE 1YYXZ   0.000000   0.000000   0.000000   0.000000   0.000000
  122  FE 1ZZXY   0.000000   0.000176   0.000000   0.000000   0.000508
  123  FE 1XXXX   0.000000   0.000000   0.000507   0.000413   0.000000
  124  FE 1YYYY   0.000000   0.000000   0.000507  -0.000413   0.000000
  125  FE 1ZZZZ   0.000000   0.000000   0.000506   0.000000   0.000000
  126  FE 1XXXY   0.000000  -0.000126   0.000000   0.000000  -0.000146
  127  FE 1XXXZ   0.000000   0.000000   0.000000   0.000000   0.000000
  128  FE 1YYYX   0.000000  -0.000126   0.000000   0.000000  -0.000146
  129  FE 1YYYZ  -0.000675   0.000000   0.000000   0.000000   0.000000
  130  FE 1ZZZX   0.000000   0.000000   0.000000   0.000000   0.000000
  131  FE 1ZZZY   0.000606   0.000000   0.000000   0.000000   0.000000
  132  FE 1XXYY   0.000000   0.000000  -0.000447   0.000000   0.000000
  133  FE 1XXZZ   0.000000   0.000000  -0.000444  -0.000726   0.000000
  134  FE 1YYZZ   0.000000   0.000000  -0.000444   0.000726   0.000000
  135  FE 1XXYZ   0.000093   0.000000   0.000000   0.000000   0.000000
  136  FE 1YYXZ   0.000000   0.000000   0.000000   0.000000   0.000000
  137  FE 1ZZXY   0.000000   0.000338   0.000000   0.000000   0.000392

                     21         22         23         24         25
                    1.0354     1.0354     1.0329     1.0915     2.2863
                     B3G        B2G        AG         AG         AU  
    1  FE 1  S    0.000000   0.000000   0.007173   0.000000   0.000000
    2  FE 1  S    0.000000   0.000000   0.021973   0.000000   0.000000
    3  FE 1  S    0.000000   0.000000  -0.016321   0.000000   0.000000
    4  FE 1  S    0.000000   0.000000   0.002932   0.000000   0.000000
    5  FE 1  S    0.000000   0.000000  -0.006709  -0.000000   0.000000
    6  FE 1  X    0.000000   0.000000   0.000000   0.000000   0.000000
    7  FE 1  Y    0.000000   0.000000   0.000000   0.000000   0.000000
    8  FE 1  Z    0.000000   0.000000   0.000000   0.000000   0.000000
    9  FE 1  X    0.000000   0.000000   0.000000   0.000000   0.000000
   10  FE 1  Y    0.000000   0.000000   0.000000   0.000000   0.000000
   11  FE 1  Z    0.000000   0.000000   0.000000   0.000000   0.000000
   12  FE 1  X    0.000000   0.000000   0.000000   0.000000   0.000000
   13  FE 1  Y    0.000000   0.000000   0.000000   0.000000   0.000000
   14  FE 1  Z    0.000000   0.000000   0.000000   0.000000   0.000000
   15  FE 1  X    0.000000   0.000000   0.000000   0.000000   0.000000
   16  FE 1  Y    0.000000   0.000000   0.000000   0.000000   0.000000
   17  FE 1  Z    0.000000   0.000000   0.000000   0.000000   0.000000
   18  FE 1 XX    0.000000   0.000000  -0.000363  -0.000624   0.000000
   19  FE 1 YY    0.000000   0.000000  -0.000363   0.000624   0.000000
   20  FE 1 ZZ    0.000000   0.000000   0.000726   0.000000   0.000000
   21  FE 1 XY    0.000000   0.000000   0.000000   0.000000   0.000000
   22  FE 1 XZ    0.000000   0.000727   0.000000   0.000000   0.000000
   23  FE 1 YZ    0.000727   0.000000   0.000000   0.000000   0.000000
   24  FE 1 XX    0.000000   0.000000  -0.009220  -0.016428   0.000000
   25  FE 1 YY    0.000000   0.000000  -0.009220   0.016428   0.000000
   26  FE 1 ZZ    0.000000   0.000000   0.018440   0.000000   0.000000
   27  FE 1 XY    0.000000   0.000000   0.000000   0.000000   0.000000
   28  FE 1 XZ    0.000000   0.018487   0.000000   0.000000   0.000000
   29  FE 1 YZ    0.018487   0.000000   0.000000   0.000000   0.000000
   30  FE 1 XX    0.000000   0.000000  -0.017307  -0.029526   0.000000
   31  FE 1 YY    0.000000   0.000000  -0.017307   0.029526   0.000000
   32  FE 1 ZZ    0.000000   0.000000   0.034614   0.000000   0.000000
   33  FE 1 XY    0.000000   0.000000   0.000000   0.000000   0.000000
   34  FE 1 XZ    0.000000   0.034686   0.000000   0.000000   0.000000
   35  FE 1 YZ    0.034686   0.000000   0.000000   0.000000   0.000000
   36  FE 1 XX    0.000000   0.000000  -0.697191  -1.277396   0.000000
   37  FE 1 YY    0.000000   0.000000  -0.697191   1.277396   0.000000
   38  FE 1 ZZ    0.000000   0.000000   1.394382  -0.000000   0.000000
   39  FE 1 XY    0.000000   0.000000   0.000000   0.000000   0.000000
   40  FE 1 XZ    0.000000   1.398179   0.000000   0.000000   0.000000
   41  FE 1 YZ    1.398179   0.000000   0.000000   0.000000   0.000000
   42  FE 1 XX    0.000000   0.000000   7.587485  13.994755   0.000000
   43  FE 1 YY    0.000000   0.000000   7.587485 -13.994755   0.000000
   44  FE 1 ZZ    0.000000   0.000000 -15.174969   0.000000   0.000000
   45  FE 1 XY    0.000000   0.000000   0.000000   0.000000   0.000000
   46  FE 1 XZ    0.000000 -15.218220   0.000000   0.000000   0.000000
   47  FE 1 YZ  -15.218220   0.000000   0.000000   0.000000   0.000000
   48  FE 1 XX    0.000000   0.000000  -0.442731  -0.832509   0.000000
   49  FE 1 YY    0.000000   0.000000  -0.442731   0.832509   0.000000
   50  FE 1 ZZ    0.000000   0.000000   0.885462  -0.000000   0.000000
   51  FE 1 XY    0.000000   0.000000   0.000000   0.000000   0.000000
   52  FE 1 XZ    0.000000   0.888511   0.000000   0.000000   0.000000
   53  FE 1 YZ    0.888511   0.000000   0.000000   0.000000   0.000000
   54  FE 1 XX    0.000000   0.000000   0.815007   1.426111   0.000000
   55  FE 1 YY    0.000000   0.000000   0.815007  -1.426111   0.000000
   56  FE 1 ZZ    0.000000   0.000000  -1.630014  -0.000000   0.000000
   57  FE 1 XY    0.000000   0.000000   0.000000   0.000000   0.000000
   58  FE 1 XZ    0.000000  -1.630672   0.000000   0.000000   0.000000
   59  FE 1 YZ   -1.630672   0.000000   0.000000   0.000000   0.000000
   60  FE 1 XX    0.000000   0.000000  -0.367724  -0.616817   0.000000
   61  FE 1 YY    0.000000   0.000000  -0.367724   0.616817   0.000000
   62  FE 1 ZZ    0.000000   0.000000   0.735448   0.000000   0.000000
   63  FE 1 XY    0.000000   0.000000   0.000000   0.000000   0.000000
   64  FE 1 XZ    0.000000   0.734818   0.000000   0.000000   0.000000
   65  FE 1 YZ    0.734818   0.000000   0.000000   0.000000   0.000000
   66  FE 1 XX    0.000000   0.000000   0.795890   1.465141   0.000000
   67  FE 1 YY    0.000000   0.000000   0.795890  -1.465141   0.000000
   68  FE 1 ZZ    0.000000   0.000000  -1.591781   0.000000   0.000000
   69  FE 1 XY    0.000000   0.000000   0.000000   0.000000   0.000000
   70  FE 1 XZ    0.000000  -1.596223   0.000000   0.000000   0.000000
   71  FE 1 YZ   -1.596223   0.000000   0.000000   0.000000   0.000000
   72  FE 1 XX    0.000000   0.000000  -7.700598 -14.195155   0.000000
   73  FE 1 YY    0.000000   0.000000  -7.700598  14.195155   0.000000
   74  FE 1 ZZ    0.000000   0.000000  15.401196  -0.000000   0.000000
   75  FE 1 XY    0.000000   0.000000   0.000000   0.000000   0.000000
   76  FE 1 XZ    0.000000  15.444918   0.000000   0.000000   0.000000
   77  FE 1 YZ   15.444918   0.000000   0.000000   0.000000   0.000000
   78  FE 1 XXX   0.000000   0.000000   0.000000   0.000000   0.000000
   79  FE 1 YYY   0.000000   0.000000   0.000000   0.000000   0.000000
   80  FE 1 ZZZ   0.000000   0.000000   0.000000   0.000000   0.000000
   81  FE 1 XXY   0.000000   0.000000   0.000000   0.000000   0.000000
   82  FE 1 XXZ   0.000000   0.000000   0.000000   0.000000   0.000000
   83  FE 1 YYX   0.000000   0.000000   0.000000   0.000000   0.000000
   84  FE 1 YYZ   0.000000   0.000000   0.000000   0.000000   0.000000
   85  FE 1 ZZX   0.000000   0.000000   0.000000   0.000000   0.000000
   86  FE 1 ZZY   0.000000   0.000000   0.000000   0.000000   0.000000
   87  FE 1 XYZ   0.000000   0.000000   0.000000   0.000000   0.048014
   88  FE 1 XXX   0.000000   0.000000   0.000000   0.000000   0.000000
   89  FE 1 YYY   0.000000   0.000000   0.000000   0.000000   0.000000
   90  FE 1 ZZZ   0.000000   0.000000   0.000000   0.000000   0.000000
   91  FE 1 XXY   0.000000   0.000000   0.000000   0.000000   0.000000
   92  FE 1 XXZ   0.000000   0.000000   0.000000   0.000000   0.000000
   93  FE 1 YYX   0.000000   0.000000   0.000000   0.000000   0.000000
   94  FE 1 YYZ   0.000000   0.000000   0.000000   0.000000   0.000000
   95  FE 1 ZZX   0.000000   0.000000   0.000000   0.000000   0.000000
   96  FE 1 ZZY   0.000000   0.000000   0.000000   0.000000   0.000000
   97  FE 1 XYZ   0.000000   0.000000   0.000000   0.000000  -0.032649
   98  FE 1 XXX   0.000000   0.000000   0.000000   0.000000   0.000000
   99  FE 1 YYY   0.000000   0.000000   0.000000   0.000000   0.000000
  100  FE 1 ZZZ   0.000000   0.000000   0.000000   0.000000   0.000000
  101  FE 1 XXY   0.000000   0.000000   0.000000   0.000000   0.000000
  102  FE 1 XXZ   0.000000   0.000000   0.000000   0.000000   0.000000
  103  FE 1 YYX   0.000000   0.000000   0.000000   0.000000   0.000000
  104  FE 1 YYZ   0.000000   0.000000   0.000000   0.000000   0.000000
  105  FE 1 ZZX   0.000000   0.000000   0.000000   0.000000   0.000000
  106  FE 1 ZZY   0.000000   0.000000   0.000000   0.000000   0.000000
  107  FE 1 XYZ   0.000000   0.000000   0.000000   0.000000   1.010747
  108  FE 1XXXX   0.000000   0.000000   0.000806   0.000496   0.000000
  109  FE 1YYYY   0.000000   0.000000   0.000806  -0.000496   0.000000
  110  FE 1ZZZZ   0.000000   0.000000   0.000806   0.000000   0.000000
  111  FE 1XXXY   0.000000   0.000000   0.000000   0.000000   0.000000
  112  FE 1XXXZ   0.000000  -0.001035   0.000000   0.000000   0.000000
  113  FE 1YYYX   0.000000   0.000000   0.000000   0.000000   0.000000
  114  FE 1YYYZ  -0.001035   0.000000   0.000000   0.000000   0.000000
  115  FE 1ZZZX   0.000000   0.000942   0.000000   0.000000   0.000000
  116  FE 1ZZZY   0.000942   0.000000   0.000000   0.000000   0.000000
[...]
   79  FE 1 YYY   0.000000   0.000000   0.000000   0.000000   0.000000
   80  FE 1 ZZZ   0.000000   0.000000   0.000000   0.000000   0.000000
   81  FE 1 XXY   0.000000   0.000000   0.000000   0.000000   0.000000
   82  FE 1 XXZ   0.000000   0.000000   0.000000   0.000000   0.000000
   83  FE 1 YYX   0.000000   0.000000   0.000000   0.000000   0.000000
   84  FE 1 YYZ   0.000000   0.000000   0.000000   0.000000   0.000000
   85  FE 1 ZZX   0.000000   0.000000   0.000000   0.000000   0.000000
   86  FE 1 ZZY   0.000000   0.000000   0.000000   0.000000   0.000000
   87  FE 1 XYZ   0.000000   0.000000   0.000000   0.000000   0.000000
   88  FE 1 XXX   0.000000   0.000000   0.000000   0.000000   0.000000
   89  FE 1 YYY   0.000000   0.000000   0.000000   0.000000   0.000000
   90  FE 1 ZZZ   0.000000   0.000000   0.000000   0.000000   0.000000
   91  FE 1 XXY   0.000000   0.000000   0.000000   0.000000   0.000000
   92  FE 1 XXZ   0.000000   0.000000   0.000000   0.000000   0.000000
   93  FE 1 YYX   0.000000   0.000000   0.000000   0.000000   0.000000
   94  FE 1 YYZ   0.000000   0.000000   0.000000   0.000000   0.000000
   95  FE 1 ZZX   0.000000   0.000000   0.000000   0.000000   0.000000
   96  FE 1 ZZY   0.000000   0.000000   0.000000   0.000000   0.000000
   97  FE 1 XYZ   0.000000   0.000000   0.000000   0.000000   0.000000
   98  FE 1 XXX   0.000000   0.000000   0.000000   0.000000   0.000000
   99  FE 1 YYY   0.000000   0.000000   0.000000   0.000000   0.000000
  100  FE 1 ZZZ   0.000000   0.000000   0.000000   0.000000   0.000000
  101  FE 1 XXY   0.000000   0.000000   0.000000   0.000000   0.000000
  102  FE 1 XXZ   0.000000   0.000000   0.000000   0.000000   0.000000
  103  FE 1 YYX   0.000000   0.000000   0.000000   0.000000   0.000000
  104  FE 1 YYZ   0.000000   0.000000   0.000000   0.000000   0.000000
  105  FE 1 ZZX   0.000000   0.000000   0.000000   0.000000   0.000000
  106  FE 1 ZZY   0.000000   0.000000   0.000000   0.000000   0.000000
  107  FE 1 XYZ   0.000000   0.000000   0.000000   0.000000   0.000000
  108  FE 1XXXX   0.000000   0.000000   0.000000   0.000000   0.000000
  109  FE 1YYYY   0.000000   0.000000   0.000000   0.000000   0.000000
  110  FE 1ZZZZ   0.000000   0.000000   0.000000   0.000000   0.000000
  111  FE 1XXXY   0.000000   0.000000   0.000000   0.000000   0.000000
  112  FE 1XXXZ   0.645571   1.241965  -0.004010   0.000035   0.049401
  113  FE 1YYYX   0.000000   0.000000   0.000000   0.000000   0.000000
  114  FE 1YYYZ   0.000000   0.000000   0.000000   0.000000   0.000000
  115  FE 1ZZZX  -1.305722  -0.504466   0.003832  -0.000035  -0.101969
  116  FE 1ZZZY   0.000000   0.000000   0.000000   0.000000   0.000000
  117  FE 1XXYY   0.000000   0.000000   0.000000   0.000000   0.000000
  118  FE 1XXZZ   0.000000   0.000000   0.000000   0.000000   0.000000
  119  FE 1YYZZ   0.000000   0.000000   0.000000   0.000000   0.000000
  120  FE 1XXYZ   0.000000   0.000000   0.000000   0.000000   0.000000
  121  FE 1YYXZ   0.885685  -0.989459   0.000240  -0.000000   0.070528
  122  FE 1ZZXY   0.000000   0.000000   0.000000   0.000000   0.000000
  123  FE 1XXXX   0.000000   0.000000   0.000000   0.000000   0.000000
  124  FE 1YYYY   0.000000   0.000000   0.000000   0.000000   0.000000
  125  FE 1ZZZZ   0.000000   0.000000   0.000000   0.000000   0.000000
  126  FE 1XXXY   0.000000   0.000000   0.000000   0.000000   0.000000
  127  FE 1XXXZ  -0.295622  -0.568027   0.029019  -0.000018  -0.561464
  128  FE 1YYYX   0.000000   0.000000   0.000000   0.000000   0.000000
  129  FE 1YYYZ   0.000000   0.000000   0.000000   0.000000   0.000000
  130  FE 1ZZZX   0.597972   0.230697  -0.027891   0.000017   1.159098
  131  FE 1ZZZY   0.000000   0.000000   0.000000   0.000000   0.000000
  132  FE 1XXYY   0.000000   0.000000   0.000000   0.000000   0.000000
  133  FE 1XXZZ   0.000000   0.000000   0.000000   0.000000   0.000000
  134  FE 1YYZZ   0.000000   0.000000   0.000000   0.000000   0.000000
  135  FE 1XXYZ   0.000000   0.000000   0.000000   0.000000   0.000000
  136  FE 1YYXZ  -0.405645   0.452577  -0.001512   0.000001  -0.801810
  137  FE 1ZZXY   0.000000   0.000000   0.000000   0.000000   0.000000

                    106
                    8.5321
                     B2G 
    1  FE 1  S    0.000000
    2  FE 1  S    0.000000
    3  FE 1  S    0.000000
    4  FE 1  S    0.000000
    5  FE 1  S    0.000000
    6  FE 1  X    0.000000
    7  FE 1  Y    0.000000
    8  FE 1  Z    0.000000
    9  FE 1  X    0.000000
   10  FE 1  Y    0.000000
   11  FE 1  Z    0.000000
   12  FE 1  X    0.000000
   13  FE 1  Y    0.000000
   14  FE 1  Z    0.000000
   15  FE 1  X    0.000000
   16  FE 1  Y    0.000000
   17  FE 1  Z    0.000000
   18  FE 1 XX    0.000000
   19  FE 1 YY    0.000000
   20  FE 1 ZZ    0.000000
   21  FE 1 XY    0.000000
   22  FE 1 XZ   -0.000016
   23  FE 1 YZ    0.000000
   24  FE 1 XX    0.000000
   25  FE 1 YY    0.000000
   26  FE 1 ZZ    0.000000
   27  FE 1 XY    0.000000
   28  FE 1 XZ    0.001123
   29  FE 1 YZ    0.000000
   30  FE 1 XX    0.000000
   31  FE 1 YY    0.000000
   32  FE 1 ZZ    0.000000
   33  FE 1 XY    0.000000
   34  FE 1 XZ   -0.001461
   35  FE 1 YZ    0.000000
   36  FE 1 XX    0.000000
   37  FE 1 YY    0.000000
   38  FE 1 ZZ    0.000000
   39  FE 1 XY    0.000000
   40  FE 1 XZ    0.208206
   41  FE 1 YZ    0.000000
   42  FE 1 XX    0.000000
   43  FE 1 YY    0.000000
   44  FE 1 ZZ    0.000000
   45  FE 1 XY    0.000000
   46  FE 1 XZ   -2.654256
   47  FE 1 YZ    0.000000
   48  FE 1 XX    0.000000
   49  FE 1 YY    0.000000
   50  FE 1 ZZ    0.000000
   51  FE 1 XY    0.000000
   52  FE 1 XZ    0.053824
   53  FE 1 YZ    0.000000
   54  FE 1 XX    0.000000
   55  FE 1 YY    0.000000
   56  FE 1 ZZ    0.000000
   57  FE 1 XY    0.000000
   58  FE 1 XZ   -0.013773
   59  FE 1 YZ    0.000000
   60  FE 1 XX    0.000000
   61  FE 1 YY    0.000000
   62  FE 1 ZZ    0.000000
   63  FE 1 XY    0.000000
   64  FE 1 XZ    0.003462
   65  FE 1 YZ    0.000000
   66  FE 1 XX    0.000000
   67  FE 1 YY    0.000000
   68  FE 1 ZZ    0.000000
   69  FE 1 XY    0.000000
   70  FE 1 XZ   -0.259930
   71  FE 1 YZ    0.000000
   72  FE 1 XX    0.000000
   73  FE 1 YY    0.000000
   74  FE 1 ZZ    0.000000
   75  FE 1 XY    0.000000
   76  FE 1 XZ    2.665142
   77  FE 1 YZ    0.000000
   78  FE 1 XXX   0.000000
   79  FE 1 YYY   0.000000
   80  FE 1 ZZZ   0.000000
   81  FE 1 XXY   0.000000
   82  FE 1 XXZ   0.000000
   83  FE 1 YYX   0.000000
   84  FE 1 YYZ   0.000000
   85  FE 1 ZZX   0.000000
   86  FE 1 ZZY   0.000000
   87  FE 1 XYZ   0.000000
   88  FE 1 XXX   0.000000
   89  FE 1 YYY   0.000000
   90  FE 1 ZZZ   0.000000
   91  FE 1 XXY   0.000000
   92  FE 1 XXZ   0.000000
   93  FE 1 YYX   0.000000
   94  FE 1 YYZ   0.000000
   95  FE 1 ZZX   0.000000
   96  FE 1 ZZY   0.000000
   97  FE 1 XYZ   0.000000
   98  FE 1 XXX   0.000000
   99  FE 1 YYY   0.000000
  100  FE 1 ZZZ   0.000000
  101  FE 1 XXY   0.000000
  102  FE 1 XXZ   0.000000
  103  FE 1 YYX   0.000000
  104  FE 1 YYZ   0.000000
  105  FE 1 ZZX   0.000000
  106  FE 1 ZZY   0.000000
  107  FE 1 XYZ   0.000000
  108  FE 1XXXX   0.000000
  109  FE 1YYYY   0.000000
  110  FE 1ZZZZ   0.000000
  111  FE 1XXXY   0.000000
  112  FE 1XXXZ   0.099015
  113  FE 1YYYX   0.000000
  114  FE 1YYYZ   0.000000
  115  FE 1ZZZX  -0.041289
  116  FE 1ZZZY   0.000000
  117  FE 1XXYY   0.000000
  118  FE 1XXZZ   0.000000
  119  FE 1YYZZ   0.000000
  120  FE 1XXYZ   0.000000
  121  FE 1YYXZ  -0.077448
  122  FE 1ZZXY   0.000000
  123  FE 1XXXX   0.000000
  124  FE 1YYYY   0.000000
  125  FE 1ZZZZ   0.000000
  126  FE 1XXXY   0.000000
  127  FE 1XXXZ  -1.115985
  128  FE 1YYYX   0.000000
  129  FE 1YYYZ   0.000000
  130  FE 1ZZZX   0.465274
  131  FE 1ZZZY   0.000000
  132  FE 1XXYY   0.000000
  133  FE 1XXZZ   0.000000
  134  FE 1YYZZ   0.000000
  135  FE 1XXYZ   0.000000
  136  FE 1YYXZ   0.873021
  137  FE 1ZZXY   0.000000
 ...... END OF ROHF CALCULATION ......
 STEP CPU TIME =     4.44 TOTAL CPU TIME =       13.4 (    0.2 MIN)
 TOTAL WALL CLOCK TIME=       14.7 SECONDS, CPU UTILIZATION IS  91.23%

     ----------------------------------------------------------------
     PROPERTY VALUES FOR THE ROHF  SELF-CONSISTENT FIELD WAVEFUNCTION
     ----------------------------------------------------------------

          -----------------
          ENERGY COMPONENTS
          -----------------

         WAVEFUNCTION NORMALIZATION =       1.0000000000

                ONE ELECTRON ENERGY =    -216.6455021222
                TWO ELECTRON ENERGY =      93.5269360098
           NUCLEAR REPULSION ENERGY =       0.0000000000
                                      ------------------
                       TOTAL ENERGY =    -123.1185661124

 ELECTRON-ELECTRON POTENTIAL ENERGY =      93.5269360098
  NUCLEUS-ELECTRON POTENTIAL ENERGY =    -289.3438210380
   NUCLEUS-NUCLEUS POTENTIAL ENERGY =       0.0000000000
                                      ------------------
             TOTAL POTENTIAL ENERGY =    -195.8168850283
               TOTAL KINETIC ENERGY =      72.6983189158
                 VIRIAL RATIO (V/T) =       2.6935545133

          ---------------------------------------
          MULLIKEN AND LOWDIN POPULATION ANALYSES
          ---------------------------------------

     ATOMIC MULLIKEN POPULATION IN EACH MOLECULAR ORBITAL

                      1          2          3          4          5

                  2.000000   2.000000   2.000000   2.000000   2.000000

    1             2.000000   2.000000   2.000000   2.000000   2.000000

                      6          7          8          9         10

                  2.000000   1.000000   1.000000   1.000000   1.000000

    1             2.000000   1.000000   1.000000   1.000000   1.000000

          MULLIKEN SPHERICAL HARMONIC POPULATIONS
       ATOM           S       P       D      F      G      H      I    TOTAL
    1 FE            2.00    3.00    5.00   0.00   0.00   0.00   0.00   10.00

          MULLIKEN SPHERICAL HARMONIC POPULATIONS
       ATOM           S       P       D      F      G      H      I    TOTAL
    1 FE            2.00    3.00    1.00   0.00   0.00   0.00   0.00    6.00

     ATOMIC SPIN POPULATION (ALPHA MINUS BETA)
       ATOM         MULL.POP.                    LOW.POP.
    1 FE            4.000000                     4.000000

               ----- POPULATIONS IN EACH AO -----
                             MULLIKEN      LOWDIN
              1  FE 1  S      1.96676     0.16858
              2  FE 1  S      1.54266     0.45933
              3  FE 1  S      0.44687     0.36094
              4  FE 1  S      0.22361     0.03611
              5  FE 1  S     -0.18047     0.14445
              6  FE 1  X      1.57391     0.38406
              7  FE 1  Y      1.57391     0.38406
              8  FE 1  Z      1.56644     0.38402
              9  FE 1  X      0.00013     0.00130
             10  FE 1  Y      0.00013     0.00130
             11  FE 1  Z      0.00002     0.00122
             12  FE 1  X     -0.01871     0.07565
             13  FE 1  Y     -0.01871     0.07565
             14  FE 1  Z     -0.01898     0.07549
             15  FE 1  X      0.44459     0.37268
             16  FE 1  Y      0.44459     0.37268
             17  FE 1  Z      0.45248     0.37326
             18  FE 1 XX      0.00010     0.00024
             19  FE 1 YY      0.00019     0.00024
             20  FE 1 ZZ      0.00010     0.00015
             21  FE 1 XY      0.00010     0.00021
             22  FE 1 XZ      0.00010     0.00022
             23  FE 1 YZ      0.00000     0.00022
             24  FE 1 XX      0.00502     0.00783
             25  FE 1 YY      0.00941     0.00783
             26  FE 1 ZZ      0.00495     0.00474
             27  FE 1 XY      0.00500     0.00704
             28  FE 1 XZ      0.00500     0.00711
             29  FE 1 YZ      0.00000     0.00711
             30  FE 1 XX      0.04852     0.05813
             31  FE 1 YY      0.09089     0.05813
             32  FE 1 ZZ      0.04785     0.03883
             33  FE 1 XY      0.04835     0.04416
             34  FE 1 XZ      0.04835     0.04464
             35  FE 1 YZ      0.00000     0.04464
             36  FE 1 XX      0.16181     0.14506
             37  FE 1 YY      0.30418     0.14506
             38  FE 1 ZZ      0.15961     0.11314
             39  FE 1 XY      0.16129     0.07167
             40  FE 1 XZ      0.16129     0.07250
             41  FE 1 YZ      0.00000     0.07250
             42  FE 1 XX      0.43450     0.20446
             43  FE 1 YY      0.79997     0.20446
             44  FE 1 ZZ      0.42740     0.15782
             45  FE 1 XY      0.43238     0.09823
             46  FE 1 XZ      0.43238     0.09909
             47  FE 1 YZ      0.00000     0.09909
             48  FE 1 XX      0.31022     0.27512
             49  FE 1 YY      0.62029     0.27512
             50  FE 1 ZZ      0.31046     0.18132
             51  FE 1 XY      0.31028     0.17435
             52  FE 1 XZ      0.31028     0.17341
             53  FE 1 YZ      0.00000     0.17341
             54  FE 1 XX      0.10960     0.31199
             55  FE 1 YY      0.27729     0.31199
             56  FE 1 ZZ      0.11557     0.24853
             57  FE 1 XY      0.11087     0.11069
             58  FE 1 XZ      0.11087     0.10685
             59  FE 1 YZ      0.00000     0.10685
             60  FE 1 XX      0.00567     0.21480
             61  FE 1 YY      0.02488     0.21480
             62  FE 1 ZZ      0.00664     0.21912
             63  FE 1 XY      0.00571     0.01145
             64  FE 1 XZ      0.00571     0.01042
             65  FE 1 YZ      0.00000     0.01042
             66  FE 1 XX      0.02505     0.15360
             67  FE 1 YY      0.04447     0.15360
             68  FE 1 ZZ      0.02454     0.12088
             69  FE 1 XY      0.02489     0.07326
             70  FE 1 XZ      0.02489     0.07410
             71  FE 1 YZ      0.00000     0.07410
             72  FE 1 XX     -0.09993     0.20364
             73  FE 1 YY     -0.17156     0.20364
             74  FE 1 ZZ     -0.09713     0.15767
             75  FE 1 XY     -0.09889     0.09714
             76  FE 1 XZ     -0.09889     0.09801
             77  FE 1 YZ      0.00000     0.09801
             78  FE 1 XXX     0.00001     0.21202
             79  FE 1 YYY     0.00000     0.21202
             80  FE 1 ZZZ     0.00000     0.21226
             81  FE 1 XXY     0.00000     0.08599
             82  FE 1 XXZ     0.00000     0.08680
             83  FE 1 YYX     0.00000     0.08599
             84  FE 1 YYZ     0.00001     0.08680
             85  FE 1 ZZX     0.00000     0.08830
             86  FE 1 ZZY     0.00000     0.08830
             87  FE 1 XYZ     0.00000     0.00000
             88  FE 1 XXX     0.00003     0.32235
             89  FE 1 YYY     0.00000     0.32235
             90  FE 1 ZZZ     0.00001     0.32402
             91  FE 1 XXY     0.00002     0.12891
             92  FE 1 XXZ     0.00001     0.13113
             93  FE 1 YYX     0.00000     0.12891
             94  FE 1 YYZ     0.00003     0.13113
             95  FE 1 ZZX     0.00000     0.13412
             96  FE 1 ZZY     0.00000     0.13412
             97  FE 1 XYZ     0.00000     0.00000
             98  FE 1 XXX     0.00004     0.10881
             99  FE 1 YYY     0.00000     0.10881
            100  FE 1 ZZZ     0.00000     0.10787
            101  FE 1 XXY     0.00001     0.04163
            102  FE 1 XXZ     0.00000     0.04300
            103  FE 1 YYX     0.00000     0.04163
            104  FE 1 YYZ     0.00004     0.04300
            105  FE 1 ZZX     0.00000     0.04418
            106  FE 1 ZZY     0.00000     0.04418
            107  FE 1 XYZ     0.00000     0.00000
            108  FE 1XXXX     0.00000     0.15204
            109  FE 1YYYY     0.00000     0.15204
            110  FE 1ZZZZ     0.00000     0.11444
            111  FE 1XXXY     0.00000     0.04867
            112  FE 1XXXZ     0.00000     0.04880
            113  FE 1YYYX     0.00000     0.04867
            114  FE 1YYYZ     0.00000     0.04880
            115  FE 1ZZZX     0.00000     0.04987
            116  FE 1ZZZY     0.00000     0.04987
            117  FE 1XXYY     0.00000     0.07194
            118  FE 1XXZZ     0.00000     0.08191
            119  FE 1YYZZ     0.00000     0.08191
            120  FE 1XXYZ     0.00000     0.02222
            121  FE 1YYXZ     0.00000     0.02222
            122  FE 1ZZXY     0.00000     0.02226
            123  FE 1XXXX     0.00000     0.20526
            124  FE 1YYYY     0.00000     0.20526
            125  FE 1ZZZZ     0.00000     0.13811
            126  FE 1XXXY     0.00001     0.07813
            127  FE 1XXXZ     0.00001     0.07741
            128  FE 1YYYX     0.00001     0.07813
            129  FE 1YYYZ     0.00000     0.07741
            130  FE 1ZZZX     0.00000     0.08002
            131  FE 1ZZZY     0.00000     0.08002
            132  FE 1XXYY     0.00000     0.06712
            133  FE 1XXZZ     0.00000     0.08432
            134  FE 1YYZZ     0.00000     0.08432
            135  FE 1XXYZ     0.00000     0.03533
            136  FE 1YYXZ     0.00000     0.03533
            137  FE 1ZZXY     0.00000     0.03596

          ----- MULLIKEN ATOMIC OVERLAP POPULATIONS -----
          (OFF-DIAGONAL ELEMENTS NEED TO BE MULTIPLIED BY 2)

             1

    1   16.0000000

          TOTAL MULLIKEN AND LOWDIN ATOMIC POPULATIONS
       ATOM         MULL.POP.    CHARGE          LOW.POP.     CHARGE
    1 FE           16.000000    0.000000        16.000000   -0.000000

          MULLIKEN SPHERICAL HARMONIC POPULATIONS
       ATOM           S       P       D      F      G      H      I    TOTAL
    1 FE            4.00    6.00    6.00   0.00   0.00   0.00   0.00   16.00

          -------------------------------
          BOND ORDER AND VALENCE ANALYSIS     BOND ORDER THRESHOLD=0.050
          -------------------------------

                   BOND                       BOND                       BOND
  ATOM PAIR DIST  ORDER      ATOM PAIR DIST  ORDER      ATOM PAIR DIST  ORDER

                       TOTAL       BONDED        FREE
      ATOM            VALENCE     VALENCE     VALENCE
    1 FE                4.000       0.000       4.000

          -----------------------------------------
          ATOMIC SPIN DENSITY AT THE NUCLEUS (A.U.)
          -----------------------------------------
                            SPIN DENS    ALPHA DENS     BETA DENS
    1  FE          16.0     0.0000012       0.02445       0.02445

          ---------------------
          ELECTROSTATIC MOMENTS
          ---------------------

 POINT   1           X           Y           Z (BOHR)    CHARGE
                 0.000000    0.000000    0.000000       -0.00 (A.U.)
         DX          DY          DZ         /D/  (DEBYE)
     0.000000    0.000000    0.000000    0.000000
 ...... END OF PROPERTY EVALUATION ......
 STEP CPU TIME =     0.35 TOTAL CPU TIME =       13.8 (    0.2 MIN)
 TOTAL WALL CLOCK TIME=       15.1 SECONDS, CPU UTILIZATION IS  91.31%
                809517  WORDS OF DYNAMIC MEMORY USED
 EXECUTION OF GAMESS TERMINATED NORMALLY Mon Jan 21 15:49:59 2019
 DDI: 263624 bytes (0.3 MB / 0 MWords) used by master data server.

 ----------------------------------------
 CPU timing information for all processes
 ========================================
 0: 12.751 + 1.69 = 13.821
 ----------------------------------------
 ddikick.x: exited gracefully.
----- accounting info -----
Files used on the master node c455-093.stampede2.tacc.utexas.edu were:
-rw------- 1 aannabe G-801537   239579 Jan 21 15:49 /tmp/Fe.F05
-rw------- 1 aannabe G-801537 70926304 Jan 21 15:49 /tmp/Fe.F08
-rw------- 1 aannabe G-801537  9423360 Jan 21 15:49 /tmp/Fe.F10
Mon Jan 21 15:50:02 CST 2019
1.476u 0.842s 0:20.75 11.1%	0+0k 7760+504io 36pf+0w
