
 Primary working directories    : /global/cscratch1/sd/aannabe
 Secondary working directories  : /global/cscratch1/sd/aannabe
 Wavefunction directory         : /global/homes/a/aannabe/wfu/
 Main file repository           : /global/cscratch1/sd/aannabe/

 SHA1      : 2873118e99aab1bc19f5b6fc1784693c06d15c95
 NAME      : 2015.1.8
 ARCHNAME  : linux/x86_64
 FC        : /opt/cray/pe/craype/2.5.5/bin/ftn
 BLASLIB   : -Wl,-_start-group /opt/intel/compilers_and_libraries_2016.3.210/linux/mkl/lib/intel64/libmkl_intel_ilp64.a /opt/intel/compilers_and_libraries_2016.3.210/linux/mkl/lib/intel64/libmkl_intel_thread.a /opt/intel/compilers_and_libraries_2016.3.210/linux/mkl/lib/intel64/libmkl_core.a -Wl,-_end-group
 id        : lbl

 Nodes     nprocs
 nid00521     1

 Using customized tuning parameters: mindgm=8; mindgv=16; mindgc=4; mindgr=1; noblas=0; minvec=7
 default implementation of scratch files=df  

 ***,Cr
 memory,512,m
 gthresh,twoint=1.e-12
 
 gprint,basis,orbitals
 gexpec,ekin,pot
 
 angstrom
 geometry={
 1                                                                               ! Number of atoms
 Cr 0.0 0.0 0.0
 }
 
 basis={
 Including file /global/homes/a/aannabe/docs/accurate/ccECP_Kh/pps/Cr.pp
                                              !include,/global/homes/a/aannabe/docs/accurate/ccECP_Kh/basis/aug-cc-pVnZ/Cr_qz.basis
 Including file /global/homes/a/aannabe/docs/accurate/ccECP_Kh/basis/cc-pVnZ/Cr_qz.basis
 }
 
 {rhf
  start,atden
  wf,14,1,6
  occ,4,1,1,1,1,1,1,0
  open,2.1,3.1,4.1,1.4,1.6,1.7
  sym,1,1,1,2,3
  orbital,4202.2
 }
 {multi
  start,4202.2
  occ,4,1,1,1,1,1,1,0
  closed,1,1,1,0,1,0,0
  wf,14,1,6;state,1
  restrict,1,1,4.1
  natorb,ci,print
  orbital,5202.2
 }
 {rhf,nitord=1,maxit=0
  start,5202.2
  wf,14,1,6
  occ,4,1,1,1,1,1,1,0
  open,2.1,3.1,4.1,1.4,1.6,1.7
 }
 
 scf(i)=energy
 
 _CC_NORM_MAX=2.0
 {ci
 maxit,100
 core
 }
 posthf(i)=energy
 
 table,scf,posthf,ekin,pot
 save,4.csv,new
 
 

 Variables initialized (889), CPU time= 0.01 sec
 Commands  initialized (702), CPU time= 0.01 sec, 572 directives.
 Default parameters read. Elapsed time= 0.23 sec

 Checking input...
 Passed
1


                                         ***  PROGRAM SYSTEM MOLPRO  ***
                                       Copyright, TTI GmbH Stuttgart, 2015
                                    Version 2015.1 linked Sep  7 2016 23:09:38


 **********************************************************************************************************************************
 LABEL *   Cr                                                                            
  64 bit serial version                                                                  DATE: 13-Nov-18          TIME: 22:19:41  
 **********************************************************************************************************************************

 SHA1:             2873118e99aab1bc19f5b6fc1784693c06d15c95
 **********************************************************************************************************************************

 THRESHOLDS:

 ZERO    =  1.00D-12  ONEINT  =  1.00D-12  TWOINT  =  1.00D-12  PREFAC  =  1.00D-14  LOCALI  =  1.00D-09  EORDER  =  1.00D-04
 ENERGY  =  0.00D+00  ETEST   =  0.00D+00  EDENS   =  0.00D+00  THRDEDEF=  1.00D-06  GRADIENT=  1.00D-02  STEP    =  1.00D-03
 ORBITAL =  1.00D-05  CIVEC   =  1.00D-05  COEFF   =  1.00D-04  PRINTCI =  5.00D-02  PUNCHCI =  9.90D+01  OPTGRAD =  3.00D-04
 OPTENERG=  1.00D-06  OPTSTEP =  3.00D-04  THRGRAD =  1.00D-10  COMPRESS=  1.00D-11  VARMIN  =  1.00D-07  VARMAX  =  1.00D-03
 THRDOUB =  0.00D+00  THRDIV  =  1.00D-05  THRRED  =  1.00D-07  THRPSP  =  1.00D+00  THRDC   =  1.00D-10  THRCS   =  1.00D-10
 THRNRM  =  1.00D-08  THREQ   =  0.00D+00  THRDE   =  1.00D+00  THRREF  =  1.00D-05  SPARFAC =  1.00D+00  THRDLP  =  1.00D-07
 THRDIA  =  1.00D-10  THRDLS  =  1.00D-07  THRGPS  =  0.00D+00  THRKEX  =  0.00D+00  THRDIS  =  2.00D-01  THRVAR  =  1.00D-10
 THRLOC  =  1.00D-06  THRGAP  =  1.00D-06  THRLOCT = -1.00D+00  THRGAPT = -1.00D+00  THRORB  =  1.00D-06  THRMLTP =  0.00D+00
 THRCPQCI=  1.00D-10  KEXTA   =  0.00D+00  THRCOARS=  0.00D+00  SYMTOL  =  1.00D-06  GRADTOL =  1.00D-06  THROVL  =  1.00D-08
 THRORTH =  1.00D-08  GRID    =  1.00D-06  GRIDMAX =  1.00D-03  DTMAX   =  0.00D+00  THROCCDE=  1.00D-01  THROCCDE=  1.00D-01



 ZUNIT=ANG
 

Geometry recognized as XYZ


 Variable memory set to  512000000 words,  buffer space   230000 words

 SETTING BASIS          =    USERDEF


 Recomputing integrals since basis changed


 Using spherical harmonics



 PROGRAM * SEWARD (Integral evaluation for generally contracted gaussian basis sets)     Author: Roland Lindh, 1990

 Geometry written to block  1 of record 700

 Orientation using atomic masses  
 Molecule type: Atom
 Symmetry elements: X,Y,Z
 Rotational constants:       0.0000000      0.0000000      0.0000000 GHz  (calculated with average atomic masses)

 Point group  D2h 



 ATOMIC COORDINATES

 NR  ATOM    CHARGE       X              Y              Z

   1  CR     14.00    0.000000000    0.000000000    0.000000000


          CR  CORE POTENTIAL

          d POTENTIAL

 POWERS             1              3              2              2
 EXPONENTIALS   18.28091       17.09801       16.72267       5.028651    
 COEFFICIENTS   14.00000       255.9328      -132.0183     -0.7738876    

          s - d POTENTIAL

 POWERS             2              2
 EXPONENTIALS   16.90079       7.336622    
 COEFFICIENTS   219.4815       28.07933    

          p - d POTENTIAL

 POWERS             2              2
 EXPONENTIALS   17.31975       6.924098    
 COEFFICIENTS   139.9840       19.54836    


 BASIS DATA

   Nr Sym  Nuc  Type         Exponents   Contraction coefficients

    1.1 Ag    1  1s          73.977737     0.000864   -0.000183   -0.000327   -0.000698    0.002983    0.000000
    2.1 Ag                   37.684349    -0.011595    0.002704    0.005309    0.010207   -0.026969    0.000000
    3.1 Ag                   19.278723     0.090467   -0.022650   -0.046905   -0.091261    0.199304    0.000000
    4.1 Ag                   12.130763    -0.024837    0.007181    0.015411    0.052207   -0.257094    0.000000
    5.1 Ag                    7.453002    -0.330407    0.087705    0.191697    0.342164   -0.312924    0.000000
    6.1 Ag                    3.756296    -0.200598    0.047616    0.099759    0.174866   -0.372823    0.000000
                              2.084137     0.449766   -0.125672   -0.338994   -0.994258    2.612676    0.000000
                              0.993314     0.647575   -0.244571   -0.695806   -1.190604   -1.108319    0.000000
                              0.483094     0.229025   -0.198419   -0.007315    2.271834   -3.520973    0.000000
                              0.225854     0.009217    0.030889    1.118599    1.003013    5.386315    0.000000
                              0.115338     0.001132    0.423935    0.717257   -2.605235   -1.948192    0.000000
                              0.052134    -0.000367    0.576941   -0.868565    0.265158   -1.985699    0.000000
                              0.023679     0.000092    0.148323   -0.467186    0.902286    1.706187    1.000000
    7.1 Ag    1  1s           1.569123     1.000000
    8.1 Ag    1  1s           2.404948     1.000000
    9.1 Ag    1  3d0        120.683729    -0.000006
                             42.646591     0.003111
                             21.154405     0.028641
                              9.708242     0.076222
                              4.614990     0.170595
                              2.243726     0.266908
                              1.086491     0.311039
                              0.524700     0.267312
                              0.255752     0.163336
                              0.121497     0.062782
                              0.054339     0.007872
   10.1 Ag    1  3d2+       120.683729    -0.000006
                             42.646591     0.003111
                             21.154405     0.028641
                              9.708242     0.076222
                              4.614990     0.170595
                              2.243726     0.266908
                              1.086491     0.311039
                              0.524700     0.267312
                              0.255752     0.163336
                              0.121497     0.062782
                              0.054339     0.007872
   11.1 Ag    1  3d0        120.683729     0.000017
                             42.646591    -0.003576
                             21.154405    -0.031476
                              9.708242    -0.087583
                              4.614990    -0.195740
                              2.243726    -0.270132
                              1.086491    -0.170034
                              0.524700     0.143412
                              0.255752     0.408687
                              0.121497     0.370257
                              0.054339     0.123112
   12.1 Ag    1  3d2+       120.683729     0.000017
                             42.646591    -0.003576
                             21.154405    -0.031476
                              9.708242    -0.087583
                              4.614990    -0.195740
                              2.243726    -0.270132
                              1.086491    -0.170034
                              0.524700     0.143412
                              0.255752     0.408687
                              0.121497     0.370257
                              0.054339     0.123112
   13.1 Ag    1  3d0        120.683729     0.000040
                             42.646591    -0.005181
                             21.154405    -0.043393
                              9.708242    -0.127734
                              4.614990    -0.282070
                              2.243726    -0.288390
                              1.086491     0.168269
                              0.524700     0.673062
                              0.255752     0.099196
                              0.121497    -0.570612
                              0.054339    -0.297197
   14.1 Ag    1  3d2+       120.683729     0.000040
                             42.646591    -0.005181
                             21.154405    -0.043393
                              9.708242    -0.127734
                              4.614990    -0.282070
                              2.243726    -0.288390
                              1.086491     0.168269
                              0.524700     0.673062
                              0.255752     0.099196
                              0.121497    -0.570612
                              0.054339    -0.297197
   15.1 Ag    1  3d0        120.683729     0.000119
                             42.646591    -0.007954
                             21.154405    -0.060425
                              9.708242    -0.196810
                              4.614990    -0.401389
                              2.243726    -0.072186
                              1.086491     0.940895
                              0.524700     0.035863
                              0.255752    -1.153529
                              0.121497     0.432192
                              0.054339     0.483161
   16.1 Ag    1  3d2+       120.683729     0.000119
                             42.646591    -0.007954
                             21.154405    -0.060425
                              9.708242    -0.196810
                              4.614990    -0.401389
                              2.243726    -0.072186
                              1.086491     0.940895
                              0.524700     0.035863
                              0.255752    -1.153529
                              0.121497     0.432192
                              0.054339     0.483161
   17.1 Ag    1  3d0        120.683729     0.000000
                             42.646591     0.000000
                             21.154405     0.000000
                              9.708242     0.000000
                              4.614990     0.000000
                              2.243726     0.000000
                              1.086491     0.000000
                              0.524700     0.000000
                              0.255752     0.000000
                              0.121497     0.000000
                              0.054339     1.000000
   18.1 Ag    1  3d2+       120.683729     0.000000
                             42.646591     0.000000
                             21.154405     0.000000
                              9.708242     0.000000
                              4.614990     0.000000
                              2.243726     0.000000
                              1.086491     0.000000
                              0.524700     0.000000
                              0.255752     0.000000
                              0.121497     0.000000
                              0.054339     1.000000
   19.1 Ag    1  3d0          2.459131     1.000000
   20.1 Ag    1  3d2+         2.459131     1.000000
   21.1 Ag    1  3d0          3.320540     1.000000
   22.1 Ag    1  3d2+         3.320540     1.000000
   23.1 Ag    1  5g0          0.715513     1.000000
   24.1 Ag    1  5g4+         0.715513     1.000000
   25.1 Ag    1  5g2+         0.715513     1.000000
   26.1 Ag    1  5g0          2.693396     1.000000
   27.1 Ag    1  5g4+         2.693396     1.000000
   28.1 Ag    1  5g2+         2.693396     1.000000
   29.1 Ag    1  5g0          5.007964     1.000000
   30.1 Ag    1  5g4+         5.007964     1.000000
   31.1 Ag    1  5g2+         5.007964     1.000000
    1.2 B3u   1  2px        101.951240     0.000088    0.000028   -0.000137    0.000027    0.000534    0.000000
    2.2 B3u                  52.309865    -0.000747   -0.000085    0.000932    0.000180   -0.003339    0.000000
    3.2 B3u                  27.142574     0.007135   -0.000751   -0.006845   -0.005742    0.017662    0.000000
    4.2 B3u                  15.066862    -0.014702    0.000844    0.019831    0.020419   -0.084249    0.000000
    5.2 B3u                   9.693669    -0.073353    0.022656    0.043647    0.100527   -0.080777    0.000000
    6.2 B3u                   4.985710     0.012007   -0.012781   -0.019289   -0.100608    0.272392    0.000000
                              2.761266     0.283117   -0.062386   -0.281187   -0.607746    1.310455    0.000000
                              1.417673     0.440786   -0.143581   -0.370298   -0.601705   -1.061793    0.000000
                              0.728201     0.306775   -0.062281   -0.199873    1.450905   -2.376805    0.000000
                              0.378189     0.081804   -0.054471    1.028552    0.672299    4.477317    0.000000
                              0.189359     0.008839    0.377135    0.423711   -1.904823   -2.795798    0.000000
                              0.072301     0.001022    0.471633   -0.800926    0.665814    0.203008    0.000000
                              0.037471     0.000325    0.311624   -0.141910    0.348522    0.570555    1.000000
    7.2 B3u   1  2px          1.704263     1.000000
    8.2 B3u   1  2px          5.834098     1.000000
    9.2 B3u   1  4f1+         0.342104     1.000000
   10.2 B3u   1  4f3+         0.342104     1.000000
   11.2 B3u   1  4f1+         1.160895     1.000000
   12.2 B3u   1  4f3+         1.160895     1.000000
   13.2 B3u   1  4f1+         3.939379     1.000000
   14.2 B3u   1  4f3+         3.939379     1.000000
   15.2 B3u   1  4f1+         2.544401     1.000000
   16.2 B3u   1  4f3+         2.544401     1.000000
   17.2 B3u   1  6h1+         1.706513     1.000000
   18.2 B3u   1  6h3+         1.706513     1.000000
   19.2 B3u   1  6h5+         1.706513     1.000000
   20.2 B3u   1  6h1+         4.457403     1.000000
   21.2 B3u   1  6h3+         4.457403     1.000000
   22.2 B3u   1  6h5+         4.457403     1.000000
    1.3 B2u   1  2py        101.951240     0.000088    0.000028   -0.000137    0.000027    0.000534    0.000000
    2.3 B2u                  52.309865    -0.000747   -0.000085    0.000932    0.000180   -0.003339    0.000000
    3.3 B2u                  27.142574     0.007135   -0.000751   -0.006845   -0.005742    0.017662    0.000000
    4.3 B2u                  15.066862    -0.014702    0.000844    0.019831    0.020419   -0.084249    0.000000
    5.3 B2u                   9.693669    -0.073353    0.022656    0.043647    0.100527   -0.080777    0.000000
    6.3 B2u                   4.985710     0.012007   -0.012781   -0.019289   -0.100608    0.272392    0.000000
                              2.761266     0.283117   -0.062386   -0.281187   -0.607746    1.310455    0.000000
                              1.417673     0.440786   -0.143581   -0.370298   -0.601705   -1.061793    0.000000
                              0.728201     0.306775   -0.062281   -0.199873    1.450905   -2.376805    0.000000
                              0.378189     0.081804   -0.054471    1.028552    0.672299    4.477317    0.000000
                              0.189359     0.008839    0.377135    0.423711   -1.904823   -2.795798    0.000000
                              0.072301     0.001022    0.471633   -0.800926    0.665814    0.203008    0.000000
                              0.037471     0.000325    0.311624   -0.141910    0.348522    0.570555    1.000000
    7.3 B2u   1  2py          1.704263     1.000000
    8.3 B2u   1  2py          5.834098     1.000000
    9.3 B2u   1  4f1-         0.342104     1.000000
   10.3 B2u   1  4f3-         0.342104     1.000000
   11.3 B2u   1  4f1-         1.160895     1.000000
   12.3 B2u   1  4f3-         1.160895     1.000000
   13.3 B2u   1  4f1-         3.939379     1.000000
   14.3 B2u   1  4f3-         3.939379     1.000000
   15.3 B2u   1  4f1-         2.544401     1.000000
   16.3 B2u   1  4f3-         2.544401     1.000000
   17.3 B2u   1  6h1-         1.706513     1.000000
   18.3 B2u   1  6h3-         1.706513     1.000000
   19.3 B2u   1  6h5-         1.706513     1.000000
   20.3 B2u   1  6h1-         4.457403     1.000000
   21.3 B2u   1  6h3-         4.457403     1.000000
   22.3 B2u   1  6h5-         4.457403     1.000000
    1.4 B1g   1  3d2-       120.683729    -0.000006    0.000017    0.000040    0.000119    0.000000
    2.4 B1g                  42.646591     0.003111   -0.003576   -0.005181   -0.007954    0.000000
    3.4 B1g                  21.154405     0.028641   -0.031476   -0.043393   -0.060425    0.000000
    4.4 B1g                   9.708242     0.076222   -0.087583   -0.127734   -0.196810    0.000000
    5.4 B1g                   4.614990     0.170595   -0.195740   -0.282070   -0.401389    0.000000
                              2.243726     0.266908   -0.270132   -0.288390   -0.072186    0.000000
                              1.086491     0.311039   -0.170034    0.168269    0.940895    0.000000
                              0.524700     0.267312    0.143412    0.673062    0.035863    0.000000
                              0.255752     0.163336    0.408687    0.099196   -1.153529    0.000000
                              0.121497     0.062782    0.370257   -0.570612    0.432192    0.000000
                              0.054339     0.007872    0.123112   -0.297197    0.483161    1.000000
    6.4 B1g   1  3d2-         2.459131     1.000000
    7.4 B1g   1  3d2-         3.320540     1.000000
    8.4 B1g   1  5g2-         0.715513     1.000000
    9.4 B1g   1  5g4-         0.715513     1.000000
   10.4 B1g   1  5g2-         2.693396     1.000000
   11.4 B1g   1  5g4-         2.693396     1.000000
   12.4 B1g   1  5g2-         5.007964     1.000000
   13.4 B1g   1  5g4-         5.007964     1.000000
    1.5 B1u   1  2pz        101.951240     0.000088    0.000028   -0.000137    0.000027    0.000534    0.000000
    2.5 B1u                  52.309865    -0.000747   -0.000085    0.000932    0.000180   -0.003339    0.000000
    3.5 B1u                  27.142574     0.007135   -0.000751   -0.006845   -0.005742    0.017662    0.000000
    4.5 B1u                  15.066862    -0.014702    0.000844    0.019831    0.020419   -0.084249    0.000000
    5.5 B1u                   9.693669    -0.073353    0.022656    0.043647    0.100527   -0.080777    0.000000
    6.5 B1u                   4.985710     0.012007   -0.012781   -0.019289   -0.100608    0.272392    0.000000
                              2.761266     0.283117   -0.062386   -0.281187   -0.607746    1.310455    0.000000
                              1.417673     0.440786   -0.143581   -0.370298   -0.601705   -1.061793    0.000000
                              0.728201     0.306775   -0.062281   -0.199873    1.450905   -2.376805    0.000000
                              0.378189     0.081804   -0.054471    1.028552    0.672299    4.477317    0.000000
                              0.189359     0.008839    0.377135    0.423711   -1.904823   -2.795798    0.000000
                              0.072301     0.001022    0.471633   -0.800926    0.665814    0.203008    0.000000
                              0.037471     0.000325    0.311624   -0.141910    0.348522    0.570555    1.000000
    7.5 B1u   1  2pz          1.704263     1.000000
    8.5 B1u   1  2pz          5.834098     1.000000
    9.5 B1u   1  4f0          0.342104     1.000000
   10.5 B1u   1  4f2+         0.342104     1.000000
   11.5 B1u   1  4f0          1.160895     1.000000
   12.5 B1u   1  4f2+         1.160895     1.000000
   13.5 B1u   1  4f0          3.939379     1.000000
   14.5 B1u   1  4f2+         3.939379     1.000000
   15.5 B1u   1  4f0          2.544401     1.000000
   16.5 B1u   1  4f2+         2.544401     1.000000
   17.5 B1u   1  6h2+         1.706513     1.000000
   18.5 B1u   1  6h4+         1.706513     1.000000
   19.5 B1u   1  6h0          1.706513     1.000000
   20.5 B1u   1  6h2+         4.457403     1.000000
   21.5 B1u   1  6h4+         4.457403     1.000000
   22.5 B1u   1  6h0          4.457403     1.000000
    1.6 B2g   1  3d1+       120.683729    -0.000006    0.000017    0.000040    0.000119    0.000000
    2.6 B2g                  42.646591     0.003111   -0.003576   -0.005181   -0.007954    0.000000
    3.6 B2g                  21.154405     0.028641   -0.031476   -0.043393   -0.060425    0.000000
    4.6 B2g                   9.708242     0.076222   -0.087583   -0.127734   -0.196810    0.000000
    5.6 B2g                   4.614990     0.170595   -0.195740   -0.282070   -0.401389    0.000000
                              2.243726     0.266908   -0.270132   -0.288390   -0.072186    0.000000
                              1.086491     0.311039   -0.170034    0.168269    0.940895    0.000000
                              0.524700     0.267312    0.143412    0.673062    0.035863    0.000000
                              0.255752     0.163336    0.408687    0.099196   -1.153529    0.000000
                              0.121497     0.062782    0.370257   -0.570612    0.432192    0.000000
                              0.054339     0.007872    0.123112   -0.297197    0.483161    1.000000
    6.6 B2g   1  3d1+         2.459131     1.000000
    7.6 B2g   1  3d1+         3.320540     1.000000
    8.6 B2g   1  5g1+         0.715513     1.000000
    9.6 B2g   1  5g3+         0.715513     1.000000
   10.6 B2g   1  5g1+         2.693396     1.000000
   11.6 B2g   1  5g3+         2.693396     1.000000
   12.6 B2g   1  5g1+         5.007964     1.000000
   13.6 B2g   1  5g3+         5.007964     1.000000
    1.7 B3g   1  3d1-       120.683729    -0.000006    0.000017    0.000040    0.000119    0.000000
    2.7 B3g                  42.646591     0.003111   -0.003576   -0.005181   -0.007954    0.000000
    3.7 B3g                  21.154405     0.028641   -0.031476   -0.043393   -0.060425    0.000000
    4.7 B3g                   9.708242     0.076222   -0.087583   -0.127734   -0.196810    0.000000
    5.7 B3g                   4.614990     0.170595   -0.195740   -0.282070   -0.401389    0.000000
                              2.243726     0.266908   -0.270132   -0.288390   -0.072186    0.000000
                              1.086491     0.311039   -0.170034    0.168269    0.940895    0.000000
                              0.524700     0.267312    0.143412    0.673062    0.035863    0.000000
                              0.255752     0.163336    0.408687    0.099196   -1.153529    0.000000
                              0.121497     0.062782    0.370257   -0.570612    0.432192    0.000000
                              0.054339     0.007872    0.123112   -0.297197    0.483161    1.000000
    6.7 B3g   1  3d1-         2.459131     1.000000
    7.7 B3g   1  3d1-         3.320540     1.000000
    8.7 B3g   1  5g1-         0.715513     1.000000
    9.7 B3g   1  5g3-         0.715513     1.000000
   10.7 B3g   1  5g1-         2.693396     1.000000
   11.7 B3g   1  5g3-         2.693396     1.000000
   12.7 B3g   1  5g1-         5.007964     1.000000
   13.7 B3g   1  5g3-         5.007964     1.000000
    1.8 Au    1  4f2-         0.342104     1.000000
    2.8 Au    1  4f2-         1.160895     1.000000
    3.8 Au    1  4f2-         3.939379     1.000000
    4.8 Au    1  4f2-         2.544401     1.000000
    5.8 Au    1  6h4-         1.706513     1.000000
    6.8 Au    1  6h2-         1.706513     1.000000
    7.8 Au    1  6h4-         4.457403     1.000000
    8.8 Au    1  6h2-         4.457403     1.000000

 NUCLEAR CHARGE:                   14
 NUMBER OF PRIMITIVE AOS:         265
 NUMBER OF SYMMETRY AOS:          202
 NUMBER OF CONTRACTIONS:          144   (  31Ag  +  22B3u +  22B2u +  13B1g +  22B1u +  13B2g +  13B3g +   8Au  )
 NUMBER OF CORE ORBITALS:           4   (   1Ag  +   1B3u +   1B2u +   0B1g +   1B1u +   0B2g +   0B3g +   0Au  )
 NUMBER OF VALENCE ORBITALS:        6   (   3Ag  +   0B3u +   0B2u +   1B1g +   0B1u +   1B2g +   1B3g +   0Au  )


 NUCLEAR REPULSION ENERGY    0.00000000

 EXTRA SYMMETRY OF AOS IN SYMMETRY 1:   1 1 1 1 1 1 1 1 2 3   2 3 2 3 2 3 2 3 2 3   2 3 4 5 6 4 5 6 4 5   6
 EXTRA SYMMETRY OF AOS IN SYMMETRY 2:   1 1 1 1 1 1 1 1 2 3   2 3 2 3 2 3 4 5 6 4   5 6
 EXTRA SYMMETRY OF AOS IN SYMMETRY 3:   1 1 1 1 1 1 1 1 2 3   2 3 2 3 2 3 4 5 6 4   5 6
 EXTRA SYMMETRY OF AOS IN SYMMETRY 4:   1 1 1 1 1 1 1 2 3 2   3 2 3
 EXTRA SYMMETRY OF AOS IN SYMMETRY 5:   1 1 1 1 1 1 1 1 2 3   2 3 2 3 2 3 4 5 6 4   5 6
 EXTRA SYMMETRY OF AOS IN SYMMETRY 6:   1 1 1 1 1 1 1 2 3 2   3 2 3
 EXTRA SYMMETRY OF AOS IN SYMMETRY 7:   1 1 1 1 1 1 1 2 3 2   3 2 3
 EXTRA SYMMETRY OF AOS IN SYMMETRY 8:   1 1 1 1 2 3 2 3

 Eigenvalues of metric

         1 0.604E-03 0.282E-02 0.644E-02 0.644E-02 0.316E-01 0.316E-01 0.702E-01 0.702E-01
         2 0.129E-02 0.177E-01 0.381E-01 0.381E-01 0.170E+00 0.391E+00 0.391E+00 0.514E+00
         3 0.129E-02 0.177E-01 0.381E-01 0.381E-01 0.170E+00 0.391E+00 0.391E+00 0.514E+00
         4 0.644E-02 0.316E-01 0.702E-01 0.197E+00 0.197E+00 0.927E+00 0.927E+00 0.994E+00
         5 0.129E-02 0.177E-01 0.381E-01 0.381E-01 0.170E+00 0.391E+00 0.391E+00 0.514E+00
         6 0.644E-02 0.316E-01 0.702E-01 0.197E+00 0.197E+00 0.927E+00 0.927E+00 0.994E+00
         7 0.644E-02 0.316E-01 0.702E-01 0.197E+00 0.197E+00 0.927E+00 0.927E+00 0.994E+00
         8 0.381E-01 0.391E+00 0.514E+00 0.514E+00 0.109E+01 0.149E+01 0.149E+01 0.248E+01


 Contracted 2-electron integrals neglected if value below      1.0D-12
 AO integral compression algorithm  1   Integral accuracy      1.0D-12

     51.118 MB (compressed) written to integral file ( 55.2%)


 NUMBER OF SORTED TWO-ELECTRON INTEGRALS:    7063297.     BUFFER LENGTH:  32768
 NUMBER OF SEGMENTS:   1  SEGMENT LENGTH:    7063297      RECORD LENGTH: 524288

 Memory used in sort:       7.62 MW

 SORT1 READ    11599838. AND WROTE     4948094. INTEGRALS IN     15 RECORDS. CPU TIME:     0.39 SEC, REAL TIME:     0.55 SEC
 SORT2 READ     4948094. AND WROTE     7063297. INTEGRALS IN    195 RECORDS. CPU TIME:     0.25 SEC, REAL TIME:     0.53 SEC

 FILE SIZES:   FILE 1:    70.7 MBYTE,  FILE 4:    62.9 MBYTE,   TOTAL:    133.7 MBYTE

 OPERATOR DM      FOR CENTER  0  COORDINATES:    0.000000    0.000000    0.000000
 OPERATOR EKIN    FOR CENTER  0  COORDINATES:    0.000000    0.000000    0.000000
 OPERATOR POT     FOR CENTER  0  COORDINATES:    0.000000    0.000000    0.000000


 **********************************************************************************************************************************
 DATASETS  * FILE   NREC   LENGTH (MB)   RECORD NAMES
              1      20       50.12       500      610      700      900      950      970     1000      129      960     1100   
                                          VAR    BASINP    GEOM    SYMINP    ZMAT    AOBASIS   BASIS     P2S    ABASIS      S 
                                         1400     1410     1420     1200     1210     1080     1600     1650     1300     1700   
                                         EKIN       V       ECP      H0       H01     AOSYM     SMH    MOLCAS    ERIS     OPER   

 PROGRAMS   *        TOTAL       INT
 CPU TIMES  *         4.48      4.36
 REAL TIME  *         6.74 SEC
 DISK USED  *       133.97 MB      
 **********************************************************************************************************************************


 PROGRAM * RHF-SCF (OPEN SHELL)       Authors: W. Meyer, H.-J. Werner


 NUMBER OF ELECTRONS:      10+    4-    SPACE SYMMETRY=1    SPIN SYMMETRY: Septet  
 CONVERGENCE THRESHOLDS:    1.00E-05 (Density)    1.00E-07 (Energy)
 MAX. NUMBER OF ITERATIONS:       60
 INTERPOLATION TYPE:            DIIS
 INTERPOLATION STEPS:              2 (START)      1 (STEP)
 LEVEL SHIFTS:                 -0.60 (CLOSED) -0.30 (OPEN) 


 Singly occupied orbitals:      2.1       3.1       4.1       1.4       1.6       1.7
 
 Extra symmetries of mos in symmetry 1:   1   1   2   3

   Atom=CR basis=ECP10MDF_GUESS    lmin=0  lmax=2

 Orbital guess generated from atomic densities. Full valence occupancy:    4   1   1   1   1   1   1   0


 Molecular orbital dump at record        4202.2

 ITERATION    DDIFF          GRAD             ENERGY        2-EL.EN.            DIPOLE MOMENTS         DIIS   ORB.
    1      0.000D+00      0.000D+00       -86.01121794    132.562635    0.00000    0.00000    0.00000    0    start
    2      0.000D+00      0.198D-01       -86.04135141    128.349451    0.00000    0.00000    0.00000    1    diag,B
    3      0.452D-02      0.692D-02       -86.04771069    129.737622    0.00000    0.00000    0.00000    2    diag,B
    4      0.155D-02      0.153D-02       -86.04838874    129.690966    0.00000    0.00000    0.00000    3    diag,B
    5      0.762D-03      0.304D-03       -86.04850122    129.673671    0.00000    0.00000    0.00000    4    diag,B
    6      0.309D-03      0.111D-03       -86.04854813    129.652455    0.00000    0.00000    0.00000    5    diag,B
    7      0.628D-03      0.374D-04       -86.04855324    129.643815    0.00000    0.00000    0.00000    6    fixocc
    8      0.631D-03      0.122D-04       -86.04855373    129.639742    0.00000    0.00000    0.00000    7    diag,B
    9      0.358D-03      0.325D-05       -86.04855377    129.639198    0.00000    0.00000    0.00000    8    diag,B
   10      0.115D-03      0.451D-06       -86.04855377    129.639179    0.00000    0.00000    0.00000    9    orth
   11      0.983D-05      0.273D-07       -86.04855377    129.639181    0.00000    0.00000    0.00000    0    orth

 Final alpha occupancy:   4   1   1   1   1   1   1   0
 Final beta  occupancy:   1   1   1   0   1   0   0   0

 !RHF STATE 1.1 Energy                -86.048553765984
 Nuclear energy                         0.00000000
 One-electron energy                 -150.86814450
 Two-electron energy                   64.81959074
 Virial quotient                       -1.85664941
 !RHF STATE 1.1 Dipole moment           0.00000000     0.00000000     0.00000000
 Dipole moment /Debye                   0.00000000     0.00000000     0.00000000
 

 !RHF expec          <1.1|EKIN|1.1>    46.346150973890
 
 !RHF expec           <1.1|POT|1.1>   -14.863249649714

 ELECTRON ORBITALS
 =================


   Orb  Occ    Energy  Couls-En    Coefficients

                                   1 1s      1 1s      1 1s      1 1s      1 1s      1 1s      1 1s      1 1s      1 3d0     1 3d2+ 
                                   1 3d0     1 3d2+    1 3d0     1 3d2+    1 3d0     1 3d2+    1 3d0     1 3d2+    1 3d0     1 3d2+ 
                                   1 3d0     1 3d2+    1 5g0     1 5g4+    1 5g2+    1 5g0     1 5g4+    1 5g2+    1 5g0     1 5g4+ 
                                   1 5g2+ 

   1.1   2    -3.3599  -16.9192  1.002181  0.008133  0.007307  0.004677 -0.000786 -0.000876 -0.006157  0.004562  0.000000 -0.000000
                                 0.000000 -0.000000 -0.000000  0.000000  0.000000 -0.000000 -0.000000  0.000000 -0.000000  0.000000
                                 0.000000 -0.000000  0.000000 -0.000000 -0.000000  0.000000  0.000000  0.000000 -0.000000 -0.000000
                                -0.000000

   2.1   +    -0.2255   -4.5806 -0.011231  0.973361 -0.044929  0.008385  0.000010  0.027945 -0.001791  0.000434 -0.000000  0.000000
                                -0.000000  0.000000  0.000000  0.000000 -0.000000 -0.000000  0.000000  0.000000  0.000000  0.000000
                                 0.000000 -0.000000  0.000000  0.000000 -0.000000 -0.000000  0.000000  0.000000  0.000000 -0.000000
                                -0.000000

   3.1   +    -0.3697   -9.6268 -0.000000  0.000000  0.000000  0.000000  0.000000 -0.000000  0.000000 -0.000000  0.992922 -0.096296
                                 0.084501 -0.008195 -0.019248  0.001867  0.000294 -0.000029 -0.001399  0.000136  0.000363 -0.000035
                                 0.000154 -0.000015  0.000000 -0.000000 -0.000000 -0.000000 -0.000000 -0.000000  0.000000 -0.000000
                                 0.000000

   4.1   +    -0.3697   -9.6268 -0.000000  0.000000  0.000000  0.000000  0.000000 -0.000000  0.000000 -0.000000  0.096296  0.992922
                                 0.008195  0.084501 -0.001867 -0.019248  0.000029  0.000294 -0.000136 -0.001399  0.000035  0.000363
                                 0.000015  0.000154  0.000000 -0.000000  0.000000 -0.000000  0.000000  0.000000  0.000000  0.000000
                                -0.000000

                                   1 2px     1 2px     1 2px     1 2px     1 2px     1 2px     1 2px     1 2px     1 4f1+    1 4f3+ 
                                   1 4f1+    1 4f3+    1 4f1+    1 4f3+    1 4f1+    1 4f3+    1 6h1+    1 6h3+    1 6h5+    1 6h1+ 
                                   1 6h3+    1 6h5+ 

   1.2   2    -2.0725  -14.2574  1.004923  0.033930  0.026059  0.007965  0.000817 -0.010685 -0.004736  0.000845 -0.000000  0.000000
                                 0.000000 -0.000000  0.000000 -0.000000 -0.000000  0.000000  0.000000 -0.000000 -0.000000 -0.000000
                                -0.000000  0.000000

                                   1 2py     1 2py     1 2py     1 2py     1 2py     1 2py     1 2py     1 2py     1 4f1-    1 4f3- 
                                   1 4f1-    1 4f3-    1 4f1-    1 4f3-    1 4f1-    1 4f3-    1 6h1-    1 6h3-    1 6h5-    1 6h1- 
                                   1 6h3-    1 6h5- 

   1.3   2    -2.0725  -14.2574  1.004923  0.033930  0.026059  0.007965  0.000817 -0.010685 -0.004736  0.000845 -0.000000 -0.000000
                                 0.000000  0.000000  0.000000  0.000000 -0.000000 -0.000000  0.000000  0.000000 -0.000000 -0.000000
                                 0.000000  0.000000

                                   1 3d2-    1 3d2-    1 3d2-    1 3d2-    1 3d2-    1 3d2-    1 3d2-    1 5g2-    1 5g4-    1 5g2- 
                                   1 5g4-    1 5g2-    1 5g4- 

   1.4   +    -0.3697   -9.6268  0.997580  0.084897 -0.019338  0.000296 -0.001405  0.000364  0.000155  0.000000 -0.000000  0.000000
                                -0.000000 -0.000000 -0.000000

                                   1 2pz     1 2pz     1 2pz     1 2pz     1 2pz     1 2pz     1 2pz     1 2pz     1 4f0     1 4f2+ 
                                   1 4f0     1 4f2+    1 4f0     1 4f2+    1 4f0     1 4f2+    1 6h2+    1 6h4+    1 6h0     1 6h2+ 
                                   1 6h4+    1 6h0  

   1.5   2    -2.0725  -14.2574  1.004923  0.033930  0.026059  0.007965  0.000817 -0.010685 -0.004736  0.000845  0.000000 -0.000000
                                -0.000000 -0.000000 -0.000000 -0.000000  0.000000  0.000000 -0.000000 -0.000000  0.000000  0.000000
                                 0.000000  0.000000

                                   1 3d1+    1 3d1+    1 3d1+    1 3d1+    1 3d1+    1 3d1+    1 3d1+    1 5g1+    1 5g3+    1 5g1+ 
                                   1 5g3+    1 5g1+    1 5g3+ 

   1.6   +    -0.3697   -9.6268  0.997580  0.084897 -0.019338  0.000296 -0.001405  0.000364  0.000155  0.000000 -0.000000 -0.000000
                                -0.000000  0.000000  0.000000

                                   1 3d1-    1 3d1-    1 3d1-    1 3d1-    1 3d1-    1 3d1-    1 3d1-    1 5g1-    1 5g3-    1 5g1- 
                                   1 5g3-    1 5g1-    1 5g3- 

   1.7   +    -0.3697   -9.6268  0.997580  0.084897 -0.019338  0.000296 -0.001405  0.000364  0.000155  0.000000  0.000000 -0.000000
                                 0.000000  0.000000 -0.000000

 HOMO      4.1    -0.369745 =     -10.0613eV
 LUMO      2.2     0.035597 =       0.9686eV
 LUMO-HOMO         0.405342 =      11.0299eV


 **********************************************************************************************************************************
 DATASETS  * FILE   NREC   LENGTH (MB)   RECORD NAMES
              1      20       50.12       500      610      700      900      950      970     1000      129      960     1100   
                                          VAR    BASINP    GEOM    SYMINP    ZMAT    AOBASIS   BASIS     P2S    ABASIS      S 
                                         1400     1410     1420     1200     1210     1080     1600     1650     1300     1700   
                                         EKIN       V       ECP      H0       H01     AOSYM     SMH    MOLCAS    ERIS     OPER   

              2       4        2.86       700     1000      520     4202   
                                         GEOM     BASIS   MCVARS     RHF  

 PROGRAMS   *        TOTAL       RHF       INT
 CPU TIMES  *         4.88      0.40      4.36
 REAL TIME  *         7.38 SEC
 DISK USED  *       133.97 MB      
 **********************************************************************************************************************************


 PROGRAM * MULTI (Direct Multiconfiguration SCF)       Authors: P.J. Knowles, H.-J. Werner (1984)     S.T. Elbert (1988)


 Number of closed-shell orbitals:   4 (   1   1   1   0   1   0   0   0 )
 Number of active  orbitals:        6 (   3   0   0   1   0   1   1   0 )
 Number of external orbitals:     134 (  27  21  21  12  21  12  12   8 )

 State symmetry 1

 Orbital occupancy restrictions for symmetry 1
  1      1       002000                          

 Number of electrons:     6    Spin symmetry=Septet    Space symmetry=1
 Number of states:        1
 Number of CSFs:          1
 
 Maximum number of shells:             1
 Maximum number of spin couplings:     1

 Storage for configuration lists      22, coupling coefficients      6, address lists     92

 Molecular orbitals read from record     4202.2  Type=RHF/CANONICAL (state 1.1)
 *** IN SYMMETRY 1 ORBITAL  3 SYMMETRY CONTAMINATION OF 0.884D-01 HAS BEEN REMOVED
 *** IN SYMMETRY 1 ORBITAL  4 SYMMETRY CONTAMINATION OF 0.884D-01 HAS BEEN REMOVED

 EXTRA SYMMETRY OF MOS IN SYMMETRY 1:   1 1 2 3 1 2 3 1 2 3   1 2 3 6 4 5 1 3 2 1   5 6 4 3 2 3 2 4 6 5   1
 EXTRA SYMMETRY OF MOS IN SYMMETRY 2:   1 1 1 1 2 3 1 3 2 1   2 3 5 4 6 1 2 3 5 4   6 1
 EXTRA SYMMETRY OF MOS IN SYMMETRY 3:   1 1 1 1 2 3 1 3 2 1   2 3 5 4 6 1 2 3 5 4   6 1
 EXTRA SYMMETRY OF MOS IN SYMMETRY 4:   1 1 1 1 2 3 1 3 2 1   1 2 3
 EXTRA SYMMETRY OF MOS IN SYMMETRY 5:   1 1 1 1 2 3 1 2 3 1   2 3 6 5 4 1 2 3 6 4   5 1
 EXTRA SYMMETRY OF MOS IN SYMMETRY 6:   1 1 1 1 2 3 1 3 2 1   1 3 2
 EXTRA SYMMETRY OF MOS IN SYMMETRY 7:   1 1 1 1 2 3 1 3 2 1   1 3 2
 EXTRA SYMMETRY OF MOS IN SYMMETRY 8:   1 1 1 2 3 1 2 3

 Wavefunction dump at record             5202.2

 Convergence thresholds  0.10E-01 (gradient)  0.10E-05 (energy)  0.10E-02 (step length)

 Eigenvalues of redundancy matrix
   1-  3    0.000000    0.000000    0.000000

 Number of orbital rotations:      210   (     3 Core/Active     90 Core/Virtual   0 Active/Active    117 Active/Virtual)
 Total number of variables:        211


 ITER. MIC  NCI  NEG     ENERGY(VAR)     ENERGY(PROJ)   ENERGY CHANGE     GRAD(0)  GRAD(ORB)   GRAD(CI)     STEP       TIME

   1   26    4    0     -86.04855377     -86.04855377   -0.00000000    0.00000033 0.00000000 0.00000000  0.68D-06      0.09

 ** WVFN ****  CONVERGENCE REACHED, FINAL GRADIENT:  0.21D-12


 First order charge density matrix for state 1.1 saved on record  5202.2 (density set 1)

 Results for state 1.1
 =====================

 !MCSCF STATE 1.1 Energy              -86.048553765984
 Nuclear energy                         0.00000000
 Kinetic energy                        46.34615105
 One electron energy                 -150.86814604
 Two electron energy                   64.81959227
 Virial ratio                           2.85664941

 !MCSCF STATE 1.1 Dipole moment         0.00000000     0.00000000     0.00000000
 Dipole moment /Debye                   0.00000000     0.00000000     0.00000000

 !MCSCF expec        <1.1|EKIN|1.1>    46.346151046517

 !MCSCF expec         <1.1|POT|1.1>   -14.863249775362


 NATURAL ORBITALS
 ================

 Some active orbitals have been swapped

   Orb     Occ        Energy       Coefficients

                                   1 1s      1 1s      1 1s      1 1s      1 1s      1 1s      1 1s      1 1s      1 3d0     1 3d2+ 
                                   1 3d0     1 3d2+    1 3d0     1 3d2+    1 3d0     1 3d2+    1 3d0     1 3d2+    1 3d0     1 3d2+ 
                                   1 3d0     1 3d2+    1 5g0     1 5g4+    1 5g2+    1 5g0     1 5g4+    1 5g2+    1 5g0     1 5g4+ 
                                   1 5g2+ 

   1.1  2.00000    -3.359884     1.002181  0.008133  0.007307  0.004677 -0.000786 -0.000876 -0.006157  0.004562  0.000000  0.000000
                                 0.000000  0.000000  0.000000  0.000000  0.000000  0.000000  0.000000  0.000000  0.000000  0.000000
                                 0.000000  0.000000  0.000000  0.000000  0.000000  0.000000  0.000000  0.000000  0.000000  0.000000
                                 0.000000

   2.1  1.00000    -0.079345    -0.011231  0.973358 -0.044927  0.008384  0.000009  0.027949 -0.001792  0.000435  0.000000  0.000000
                                 0.000000  0.000000  0.000000  0.000000  0.000000  0.000000  0.000000  0.000000  0.000000  0.000000
                                 0.000000  0.000000  0.000000  0.000000  0.000000  0.000000  0.000000  0.000000  0.000000  0.000000
                                 0.000000

   3.1  1.00000     0.047829     0.000000  0.000000  0.000000  0.000000  0.000000  0.000000  0.000000  0.000000  0.997580  0.000000
                                 0.084898  0.000000 -0.019338  0.000000  0.000296  0.000000 -0.001405  0.000000  0.000364  0.000000
                                 0.000155  0.000000  0.000000  0.000000  0.000000  0.000000  0.000000  0.000000  0.000000  0.000000
                                 0.000000

   4.1  1.00000     0.047829     0.000000  0.000000  0.000000  0.000000  0.000000  0.000000  0.000000  0.000000  0.000000  0.997580
                                 0.000000  0.084898  0.000000 -0.019338  0.000000  0.000296  0.000000 -0.001405  0.000000  0.000364
                                 0.000000  0.000155  0.000000  0.000000  0.000000  0.000000  0.000000  0.000000  0.000000  0.000000
                                 0.000000

                                   1 2px     1 2px     1 2px     1 2px     1 2px     1 2px     1 2px     1 2px     1 4f1+    1 4f3+ 
                                   1 4f1+    1 4f3+    1 4f1+    1 4f3+    1 4f1+    1 4f3+    1 6h1+    1 6h3+    1 6h5+    1 6h1+ 
                                   1 6h3+    1 6h5+ 

   1.2  2.00000    -2.072495     1.004923  0.033930  0.026059  0.007965  0.000817 -0.010684 -0.004736  0.000845  0.000000  0.000000
                                 0.000000  0.000000  0.000000  0.000000  0.000000  0.000000  0.000000  0.000000  0.000000  0.000000
                                 0.000000  0.000000

                                   1 2py     1 2py     1 2py     1 2py     1 2py     1 2py     1 2py     1 2py     1 4f1-    1 4f3- 
                                   1 4f1-    1 4f3-    1 4f1-    1 4f3-    1 4f1-    1 4f3-    1 6h1-    1 6h3-    1 6h5-    1 6h1- 
                                   1 6h3-    1 6h5- 

   1.3  2.00000    -2.072495     1.004923  0.033930  0.026059  0.007965  0.000817 -0.010684 -0.004736  0.000845  0.000000  0.000000
                                 0.000000  0.000000  0.000000  0.000000  0.000000  0.000000  0.000000  0.000000  0.000000  0.000000
                                 0.000000  0.000000

                                   1 3d2-    1 3d2-    1 3d2-    1 3d2-    1 3d2-    1 3d2-    1 3d2-    1 5g2-    1 5g4-    1 5g2- 
                                   1 5g4-    1 5g2-    1 5g4- 

   1.4  1.00000     0.047829     0.997580  0.084898 -0.019338  0.000296 -0.001405  0.000364  0.000155  0.000000  0.000000  0.000000
                                 0.000000  0.000000  0.000000

                                   1 2pz     1 2pz     1 2pz     1 2pz     1 2pz     1 2pz     1 2pz     1 2pz     1 4f0     1 4f2+ 
                                   1 4f0     1 4f2+    1 4f0     1 4f2+    1 4f0     1 4f2+    1 6h2+    1 6h4+    1 6h0     1 6h2+ 
                                   1 6h4+    1 6h0  

   1.5  2.00000    -2.072495     1.004923  0.033930  0.026059  0.007965  0.000817 -0.010684 -0.004736  0.000845  0.000000  0.000000
                                 0.000000  0.000000  0.000000  0.000000  0.000000  0.000000  0.000000  0.000000  0.000000  0.000000
                                 0.000000  0.000000

                                   1 3d1+    1 3d1+    1 3d1+    1 3d1+    1 3d1+    1 3d1+    1 3d1+    1 5g1+    1 5g3+    1 5g1+ 
                                   1 5g3+    1 5g1+    1 5g3+ 

   1.6  1.00000     0.047829     0.997580  0.084898 -0.019338  0.000296 -0.001405  0.000364  0.000155  0.000000  0.000000  0.000000
                                 0.000000  0.000000  0.000000

                                   1 3d1-    1 3d1-    1 3d1-    1 3d1-    1 3d1-    1 3d1-    1 3d1-    1 5g1-    1 5g3-    1 5g1- 
                                   1 5g3-    1 5g1-    1 5g3- 

   1.7  1.00000     0.047829     0.997580  0.084898 -0.019338  0.000296 -0.001405  0.000364  0.000155  0.000000  0.000000  0.000000
                                 0.000000  0.000000  0.000000
 

 EXTRA SYMMETRY OF MOS IN SYMMETRY 1:   1 1 2 3 1 2 3 1 2 3   1 3 2 4 6 5 1 3 2 1   5 6 4 3 2 3 2 4 6 5   1

 Natural orbital dump at molpro section  5202.2    (Orbital set 2)


 CI vector
 =========

 /// / / /          1.0000000


 **********************************************************************************************************************************
 DATASETS  * FILE   NREC   LENGTH (MB)   RECORD NAMES
              1      21       51.95       500      610      700      900      950      970     1000      129      960     1100   
                                          VAR    BASINP    GEOM    SYMINP    ZMAT    AOBASIS   BASIS     P2S    ABASIS      S 
                                         1400     1410     1420     1200     1210     1080     1600     1650     1300     1700   
                                         EKIN       V       ECP      H0       H01     AOSYM     SMH    MOLCAS    ERIS     OPER   
                                         1380   
                                         JKOP   

              2       5        5.47       700     1000      520     4202     5202   
                                         GEOM     BASIS   MCVARS     RHF     MCSCF   

 PROGRAMS   *        TOTAL     MULTI       RHF       INT
 CPU TIMES  *         5.18      0.30      0.40      4.36
 REAL TIME  *         8.07 SEC
 DISK USED  *       133.97 MB      
 **********************************************************************************************************************************


 PROGRAM * RHF-SCF (OPEN SHELL)       Authors: W. Meyer, H.-J. Werner


 NUMBER OF ELECTRONS:      10+    4-    SPACE SYMMETRY=1    SPIN SYMMETRY: Septet  
 CONVERGENCE THRESHOLDS:    1.00E-05 (Density)    1.00E-07 (Energy)
 MAX. NUMBER OF ITERATIONS:        0
 INTERPOLATION TYPE:            DIIS
 INTERPOLATION STEPS:              2 (START)      1 (STEP)
 LEVEL SHIFTS:                 -0.60 (CLOSED) -0.30 (OPEN) 


 Singly occupied orbitals:      2.1       3.1       4.1       1.4       1.6       1.7
 Molecular orbitals read from record     5202.2  Type=MCSCF/NATURAL (state 1.1)

 Molecular orbital dump at record        2101.2

 ITERATION    DDIFF          GRAD             ENERGY        2-EL.EN.            DIPOLE MOMENTS         DIIS   ORB.
    1      0.000D+00      0.000D+00       -86.04855377    129.639185    0.00000    0.00000    0.00000    0    start

 Final alpha occupancy:   4   1   1   1   1   1   1   0
 Final beta  occupancy:   1   1   1   0   1   0   0   0

 !RHF STATE 1.1 Energy                -86.048553765984
 Nuclear energy                         0.00000000
 One-electron energy                 -150.86814604
 Two-electron energy                   64.81959227
 Virial quotient                       -1.85664941
 !RHF STATE 1.1 Dipole moment           0.00000000     0.00000000     0.00000000
 Dipole moment /Debye                   0.00000000     0.00000000     0.00000000
 

 !RHF expec          <1.1|EKIN|1.1>    46.346151046517
 
 !RHF expec           <1.1|POT|1.1>   -14.863249775362

 ELECTRON ORBITALS
 =================


   Orb  Occ    Energy  Couls-En    Coefficients

                                   1 1s      1 1s      1 1s      1 1s      1 1s      1 1s      1 1s      1 1s      1 3d0     1 3d2+ 
                                   1 3d0     1 3d2+    1 3d0     1 3d2+    1 3d0     1 3d2+    1 3d0     1 3d2+    1 3d0     1 3d2+ 
                                   1 3d0     1 3d2+    1 5g0     1 5g4+    1 5g2+    1 5g0     1 5g4+    1 5g2+    1 5g0     1 5g4+ 
                                   1 5g2+ 

   1.1   2    -3.3599  -16.9192  1.002181  0.008133  0.007307  0.004677 -0.000786 -0.000876 -0.006157  0.004562  0.000000  0.000000
                                 0.000000  0.000000  0.000000  0.000000  0.000000  0.000000  0.000000  0.000000  0.000000  0.000000
                                 0.000000  0.000000  0.000000  0.000000  0.000000  0.000000  0.000000  0.000000  0.000000  0.000000
                                 0.000000

   2.1   +    -0.0793   -4.4344 -0.011231  0.973358 -0.044927  0.008384  0.000009  0.027949 -0.001792  0.000435  0.000000  0.000000
                                 0.000000  0.000000  0.000000  0.000000  0.000000  0.000000  0.000000  0.000000  0.000000  0.000000
                                 0.000000  0.000000  0.000000  0.000000  0.000000  0.000000  0.000000  0.000000  0.000000  0.000000
                                 0.000000

   3.1   +     0.0478   -9.2092  0.000000  0.000000  0.000000  0.000000  0.000000  0.000000  0.000000  0.000000  0.997580  0.000000
                                 0.084898  0.000000 -0.019338  0.000000  0.000296  0.000000 -0.001405  0.000000  0.000364  0.000000
                                 0.000155  0.000000  0.000000  0.000000  0.000000  0.000000  0.000000  0.000000  0.000000  0.000000
                                 0.000000

   4.1   +     0.0478   -9.2092  0.000000  0.000000  0.000000  0.000000  0.000000  0.000000  0.000000  0.000000  0.000000  0.997580
                                 0.000000  0.084898  0.000000 -0.019338  0.000000  0.000296  0.000000 -0.001405  0.000000  0.000364
                                 0.000000  0.000155  0.000000  0.000000  0.000000  0.000000  0.000000  0.000000  0.000000  0.000000
                                 0.000000

                                   1 2px     1 2px     1 2px     1 2px     1 2px     1 2px     1 2px     1 2px     1 4f1+    1 4f3+ 
                                   1 4f1+    1 4f3+    1 4f1+    1 4f3+    1 4f1+    1 4f3+    1 6h1+    1 6h3+    1 6h5+    1 6h1+ 
                                   1 6h3+    1 6h5+ 

   1.2   2    -2.0725  -14.2574  1.004923  0.033930  0.026059  0.007965  0.000817 -0.010684 -0.004736  0.000845  0.000000  0.000000
                                 0.000000  0.000000  0.000000  0.000000  0.000000  0.000000  0.000000  0.000000  0.000000  0.000000
                                 0.000000  0.000000

                                   1 2py     1 2py     1 2py     1 2py     1 2py     1 2py     1 2py     1 2py     1 4f1-    1 4f3- 
                                   1 4f1-    1 4f3-    1 4f1-    1 4f3-    1 4f1-    1 4f3-    1 6h1-    1 6h3-    1 6h5-    1 6h1- 
                                   1 6h3-    1 6h5- 

   1.3   2    -2.0725  -14.2574  1.004923  0.033930  0.026059  0.007965  0.000817 -0.010684 -0.004736  0.000845  0.000000  0.000000
                                 0.000000  0.000000  0.000000  0.000000  0.000000  0.000000  0.000000  0.000000  0.000000  0.000000
                                 0.000000  0.000000

                                   1 3d2-    1 3d2-    1 3d2-    1 3d2-    1 3d2-    1 3d2-    1 3d2-    1 5g2-    1 5g4-    1 5g2- 
                                   1 5g4-    1 5g2-    1 5g4- 

   1.4   +     0.0478   -9.2092  0.997580  0.084898 -0.019338  0.000296 -0.001405  0.000364  0.000155  0.000000  0.000000  0.000000
                                 0.000000  0.000000  0.000000

                                   1 2pz     1 2pz     1 2pz     1 2pz     1 2pz     1 2pz     1 2pz     1 2pz     1 4f0     1 4f2+ 
                                   1 4f0     1 4f2+    1 4f0     1 4f2+    1 4f0     1 4f2+    1 6h2+    1 6h4+    1 6h0     1 6h2+ 
                                   1 6h4+    1 6h0  

   1.5   2    -2.0725  -14.2574  1.004923  0.033930  0.026059  0.007965  0.000817 -0.010684 -0.004736  0.000845  0.000000  0.000000
                                 0.000000  0.000000  0.000000  0.000000  0.000000  0.000000  0.000000  0.000000  0.000000  0.000000
                                 0.000000  0.000000

                                   1 3d1+    1 3d1+    1 3d1+    1 3d1+    1 3d1+    1 3d1+    1 3d1+    1 5g1+    1 5g3+    1 5g1+ 
                                   1 5g3+    1 5g1+    1 5g3+ 

   1.6   +     0.0478   -9.2092  0.997580  0.084898 -0.019338  0.000296 -0.001405  0.000364  0.000155  0.000000  0.000000  0.000000
                                 0.000000  0.000000  0.000000

                                   1 3d1-    1 3d1-    1 3d1-    1 3d1-    1 3d1-    1 3d1-    1 3d1-    1 5g1-    1 5g3-    1 5g1- 
                                   1 5g3-    1 5g1-    1 5g3- 

   1.7   +     0.0478   -9.2092  0.997580  0.084898 -0.019338  0.000296 -0.001405  0.000364  0.000155  0.000000  0.000000  0.000000
                                 0.000000  0.000000  0.000000

 HOMO      4.1     0.047829 =       1.3015eV
 LUMO      2.2     0.054917 =       1.4944eV
 LUMO-HOMO         0.007088 =       0.1929eV


 **********************************************************************************************************************************
 DATASETS  * FILE   NREC   LENGTH (MB)   RECORD NAMES
              1      21       51.95       500      610      700      900      950      970     1000      129      960     1100   
                                          VAR    BASINP    GEOM    SYMINP    ZMAT    AOBASIS   BASIS     P2S    ABASIS      S 
                                         1400     1410     1420     1200     1210     1080     1600     1650     1300     1700   
                                         EKIN       V       ECP      H0       H01     AOSYM     SMH    MOLCAS    ERIS     OPER   
                                         1380   
                                         JKOP   

              2       6        8.07       700     1000      520     4202     5202     2101   
                                         GEOM     BASIS   MCVARS     RHF     MCSCF     RHF  

 PROGRAMS   *        TOTAL       RHF     MULTI       RHF       INT
 CPU TIMES  *         5.29      0.10      0.30      0.40      4.36
 REAL TIME  *         8.30 SEC
 DISK USED  *       133.97 MB      
 **********************************************************************************************************************************
 SETTING SCF(I)         =       -86.04855377  AU                              
 SETTING _CC_NORM_MAX   =         2.00000000                                  


 PROGRAM * CI (Multireference internally contracted CI)     Authors: H.-J. Werner, P.J. Knowles, 1987


 Convergence thresholds:  THRVAR = 1.00D-08  THRDEN = 1.00D-06

 Number of optimized states:  1  Roots:   1
 Number of reference states:  1  Roots:   1

 Reference symmetry:                   1   Septet  
 Number of electrons:                 14
 Maximum number of shells:             3
 Maximum number of spin couplings:    35

 Reference space:        1 conf        1 CSFs
 N elec internal:      115 conf      115 CSFs
 N-1 el internal:      190 conf      430 CSFs
 N-2 el internal:       49 conf      421 CSFs

 Number of electrons in valence space:                     14
 Maximum number of open shell orbitals in reference space:  6
 Maximum number of open shell orbitals in internal spaces: 10


 Number of closed-shell orbitals:   4 (   1   1   1   0   1   0   0   0 )
 Number of active  orbitals:        6 (   3   0   0   1   0   1   1   0 )
 Number of external orbitals:     134 (  27  21  21  12  21  12  12   8 )

 Molecular orbitals read from record     2101.2  Type=RHF/CANONICAL (state 1.1)

 Coulomb and exchange operators available. No transformation done.

 Number of p-space configurations:   1

 Reference wavefunction optimized for reference space (refopt=1)

 State     Reference Energy 
   1         -86.04855377

 Number of blocks in overlap matrix:    79   Smallest eigenvalue:  0.10D+01
 Number of N-2 electron functions:      79
 Number of N-1 electron functions:     430

 Number of internal configurations:                   16
 Number of singly external configurations:          7443
 Number of doubly external configurations:         90321
 Total number of contracted configurations:        97780
 Total number of uncontracted configurations:     485269

 Diagonal Coupling coefficients finished.               Storage:   49985 words, CPU-Time:      0.00 seconds.
 Energy denominators for pairs finished in 1 passes.    Storage:   78693 words, CPU-time:      0.00 seconds.

  ITER. STATE  ROOT     SQ.NORM     CORR.ENERGY   TOTAL ENERGY   ENERGY CHANGE       DEN1      VAR(S)    VAR(P)      TIME
    1     1     1     1.00000000     0.00000000   -86.04855377     0.00000000    -0.58227958  0.30D-01  0.64D-01     0.03
    2     1     1     1.06658471    -0.50486515   -86.55341891    -0.50486515    -0.00949764  0.12D-02  0.81D-03     0.41
    3     1     1     1.06298000    -0.51408032   -86.56263408    -0.00921517    -0.00015804  0.14D-04  0.22D-04     0.77
    4     1     1     1.06377578    -0.51424310   -86.56279687    -0.00016279    -0.00001058  0.48D-05  0.78D-06     1.15
    5     1     1     1.06402440    -0.51425422   -86.56280799    -0.00001112    -0.00000062  0.10D-06  0.93D-07     1.54
    6     1     1     1.06407930    -0.51425492   -86.56280869    -0.00000070    -0.00000004  0.76D-08  0.44D-08     1.92
    7     1     1     1.06407880    -0.51425496   -86.56280873    -0.00000004    -0.00000000  0.25D-09  0.17D-09     2.29


 =====================================
 Analysis of CPU times by interactions
 =====================================

       I      S      P

 I   0.4%
 S   0.0%  39.3%
 P   0.4%   8.3%  12.2%

 Initialization:   0.9%
 Other:           38.4%

 Total CPU:        2.3 seconds
 =====================================



 Reference coefficients greater than 0.0500000
 =============================================
 2///22/2//           0.9679924



 RESULTS FOR STATE 1.1
 =====================

 Coefficient of reference function:   C(0) = 0.96799238 (fixed)   0.96799238 (relaxed)

 Energy contributions of configuration classes

 CLASS          SQ.NORM        ECORR1        ECORR2
 +++++++++++++++++++++++++++++++++++++++++++++++++++
 Internals    0.00295704   -0.01553957   -0.01598561
 Singles      0.01909303   -0.12348072   -0.12490245
 Pairs        0.04517526   -0.37523467   -0.37336691
 Total        1.06722532   -0.51425496   -0.51425496
 +++++++++++++++++++++++++++++++++++++++++++++++++++


 Reference energy                     -86.04855377
 Nuclear energy                         0.00000000
 Kinetic energy                        46.81694513
 One electron energy                 -150.41290970
 Two electron energy                   63.85010097
 Virial quotient                       -1.84896320
 Correlation energy                    -0.51425496
 !CI(SD) STATE 1.1 Energy             -86.562808728283

 Properties without orbital relaxation:

 !CI(SD) STATE 1.1 Dipole moment        0.00000000     0.00000000     0.00000000
 Dipole moment /Debye                   0.00000000     0.00000000     0.00000000

 Cluster corrected energies           -86.59737968 (Davidson, fixed reference)
 Cluster corrected energies           -86.59737968 (Davidson, relaxed reference)

 Cluster corrected energies           -86.58961447 (Pople, fixed reference)
 Cluster corrected energies           -86.58961447 (Pople, relaxed reference)

 

 !CI(SD) expec       <1.1|EKIN|1.1>    46.816945132419
 
 !CI(SD) expec        <1.1|POT|1.1>   -14.865211711832


 **********************************************************************************************************************************
 DATASETS  * FILE   NREC   LENGTH (MB)   RECORD NAMES
              1      21       51.95       500      610      700      900      950      970     1000      129      960     1100   
                                          VAR    BASINP    GEOM    SYMINP    ZMAT    AOBASIS   BASIS     P2S    ABASIS      S 
                                         1400     1410     1420     1200     1210     1080     1600     1650     1300     1700   
                                         EKIN       V       ECP      H0       H01     AOSYM     SMH    MOLCAS    ERIS     OPER   
                                         1380   
                                         JKOP   

              2       6        8.07       700     1000      520     4202     5202     2101   
                                         GEOM     BASIS   MCVARS     RHF     MCSCF     RHF  

 PROGRAMS   *        TOTAL        CI       RHF     MULTI       RHF       INT
 CPU TIMES  *         7.62      2.33      0.10      0.30      0.40      4.36
 REAL TIME  *        11.67 SEC
 DISK USED  *       133.97 MB      
 **********************************************************************************************************************************
 SETTING POSTHF(I)      =       -86.56280873  AU                              
                                                                                                                                                                                                                                                                

        SCF            POSTHF        EKIN           POT
    -86.04855377   -86.56280873   46.81694513   -14.86521171
                                                  

 CI/USERDEF energy=    -86.562808728283

        CI              RHF-SCF         MULTI           RHF-SCF 
    -86.56280873    -86.04855377    -86.04855377    -86.04855377
 **********************************************************************************************************************************
 Variable memory released
