
 Primary working directories    : /global/cscratch1/sd/aannabe
 Secondary working directories  : /global/cscratch1/sd/aannabe
 Wavefunction directory         : /global/homes/a/aannabe/wfu/
 Main file repository           : /global/cscratch1/sd/aannabe/

 SHA1      : 2873118e99aab1bc19f5b6fc1784693c06d15c95
 NAME      : 2015.1.8
 ARCHNAME  : linux/x86_64
 FC        : /opt/cray/pe/craype/2.5.5/bin/ftn
 BLASLIB   : -Wl,-_start-group /opt/intel/compilers_and_libraries_2016.3.210/linux/mkl/lib/intel64/libmkl_intel_ilp64.a /opt/intel/compilers_and_libraries_2016.3.210/linux/mkl/lib/intel64/libmkl_intel_thread.a /opt/intel/compilers_and_libraries_2016.3.210/linux/mkl/lib/intel64/libmkl_core.a -Wl,-_end-group
 id        : lbl

 Nodes     nprocs
 nid00466     1

 Using customized tuning parameters: mindgm=8; mindgv=16; mindgc=4; mindgr=1; noblas=0; minvec=7
 default implementation of scratch files=df  

 ***,Co
 memory,512,m
 gthresh,twoint=1.e-12
 
 gprint,basis,orbitals
 gexpec,ekin,pot
 
 angstrom
 geometry={
 1                                                                               ! Number of atoms
 Co 0.0 0.0 0.0
 }
 
 basis={
 Including file /global/homes/a/aannabe/docs/totals_stu_symm/pps/Co.pp
 Including file /global/homes/a/aannabe/docs/totals_stu_symm/basis/unc-aug-cc-pwCVnZ/Co_tz.basis
 }
 
 {rhf
  start,atden
  print,orbitals=2
  wf,17,1,3
  occ,4,1,1,1,1,1,1,0
  open,1.4,1.6,1.7
  sym,1,1,1,3,2
  orbital,4202.2
 }
 pop
 {multi
  start,4202.2
  occ,4,1,1,1,1,1,1,0
  closed,2,1,1,0,1,0,0
  wf,17,1,3;state,1
  wf,17,4,3;state,3
  wf,17,6,3;state,3
  wf,17,7,3;state,3
  natorb,ci,print
  orbital,5202.2
 }
 {rhf,nitord=1,maxit=0
  start,5202.2
  wf,17,1,3
  occ,4,1,1,1,1,1,1,0
  open,1.4,1.6,1.7
 }
 
 scf(i)=energy
 
 _CC_NORM_MAX=2.0
 {rccsd(t)
 maxit,100
 core
 }
 posthf(i)=energy
 
 table,scf,posthf,ekin,pot
 save,3.csv,new
 
 

 Variables initialized (889), CPU time= 0.01 sec
 Commands  initialized (702), CPU time= 0.00 sec, 572 directives.
 Default parameters read. Elapsed time= 0.11 sec

 Checking input...
 Passed
1


                                         ***  PROGRAM SYSTEM MOLPRO  ***
                                       Copyright, TTI GmbH Stuttgart, 2015
                                    Version 2015.1 linked Sep  7 2016 23:09:38


 **********************************************************************************************************************************
 LABEL *   Co                                                                            
  64 bit serial version                                                                  DATE: 05-Oct-18          TIME: 09:05:40  
 **********************************************************************************************************************************

 SHA1:             2873118e99aab1bc19f5b6fc1784693c06d15c95
 **********************************************************************************************************************************

 THRESHOLDS:

 ZERO    =  1.00D-12  ONEINT  =  1.00D-12  TWOINT  =  1.00D-12  PREFAC  =  1.00D-14  LOCALI  =  1.00D-09  EORDER  =  1.00D-04
 ENERGY  =  0.00D+00  ETEST   =  0.00D+00  EDENS   =  0.00D+00  THRDEDEF=  1.00D-06  GRADIENT=  1.00D-02  STEP    =  1.00D-03
 ORBITAL =  1.00D-05  CIVEC   =  1.00D-05  COEFF   =  1.00D-04  PRINTCI =  5.00D-02  PUNCHCI =  9.90D+01  OPTGRAD =  3.00D-04
 OPTENERG=  1.00D-06  OPTSTEP =  3.00D-04  THRGRAD =  1.00D-10  COMPRESS=  1.00D-11  VARMIN  =  1.00D-07  VARMAX  =  1.00D-03
 THRDOUB =  0.00D+00  THRDIV  =  1.00D-05  THRRED  =  1.00D-07  THRPSP  =  1.00D+00  THRDC   =  1.00D-10  THRCS   =  1.00D-10
 THRNRM  =  1.00D-08  THREQ   =  0.00D+00  THRDE   =  1.00D+00  THRREF  =  1.00D-05  SPARFAC =  1.00D+00  THRDLP  =  1.00D-07
 THRDIA  =  1.00D-10  THRDLS  =  1.00D-07  THRGPS  =  0.00D+00  THRKEX  =  0.00D+00  THRDIS  =  2.00D-01  THRVAR  =  1.00D-10
 THRLOC  =  1.00D-06  THRGAP  =  1.00D-06  THRLOCT = -1.00D+00  THRGAPT = -1.00D+00  THRORB  =  1.00D-06  THRMLTP =  0.00D+00
 THRCPQCI=  1.00D-10  KEXTA   =  0.00D+00  THRCOARS=  0.00D+00  SYMTOL  =  1.00D-06  GRADTOL =  1.00D-06  THROVL  =  1.00D-08
 THRORTH =  1.00D-08  GRID    =  1.00D-06  GRIDMAX =  1.00D-03  DTMAX   =  0.00D+00  THROCCDE=  1.00D-01  THROCCDE=  1.00D-01



 ZUNIT=ANG
 

Geometry recognized as XYZ


 Variable memory set to  512000000 words,  buffer space   230000 words

 SETTING BASIS          =    USERDEF


 Recomputing integrals since basis changed


 Using spherical harmonics



 PROGRAM * SEWARD (Integral evaluation for generally contracted gaussian basis sets)     Author: Roland Lindh, 1990

 Geometry written to block  1 of record 700

 Orientation using atomic masses  
 Molecule type: Atom
 Symmetry elements: X,Y,Z
 Rotational constants:       0.0000000      0.0000000      0.0000000 GHz  (calculated with average atomic masses)

 Point group  D2h 



 ATOMIC COORDINATES

 NR  ATOM    CHARGE       X              Y              Z

   1  CO     17.00    0.000000000    0.000000000    0.000000000


          CO  CORE POTENTIAL

          f POTENTIAL

 POWERS             2
 EXPONENTIALS   1.000000    
 COEFFICIENTS   0.000000    

          s - f POTENTIAL

 POWERS             2              2
 EXPONENTIALS   23.66000       10.61000    
 COEFFICIENTS   283.9606       47.15685    

          p - f POTENTIAL

 POWERS             2              2
 EXPONENTIALS   25.04000       10.44000    
 COEFFICIENTS   182.2122       35.23335    

          d - f POTENTIAL

 POWERS             2              2
 EXPONENTIALS   29.54000       10.18000    
 COEFFICIENTS  -26.47533      -1.825787    


 BASIS DATA

   Nr Sym  Nuc  Type         Exponents   Contraction coefficients

    1.1 Ag    1  1s     4675675.000000     1.000000
    2.1 Ag    1  1s      700161.500000     1.000000
    3.1 Ag    1  1s      159337.300000     1.000000
    4.1 Ag    1  1s       45130.460000     1.000000
    5.1 Ag    1  1s       14722.380000     1.000000
    6.1 Ag    1  1s        5314.222000     1.000000
    7.1 Ag    1  1s        2072.018000     1.000000
    8.1 Ag    1  1s         858.618800     1.000000
    9.1 Ag    1  1s         373.549700     1.000000
   10.1 Ag    1  1s         168.922900     1.000000
   11.1 Ag    1  1s          78.296390     1.000000
   12.1 Ag    1  1s          35.521230     1.000000
   13.1 Ag    1  1s          17.041440     1.000000
   14.1 Ag    1  1s           8.173000     1.000000
   15.1 Ag    1  1s           3.610318     1.000000
   16.1 Ag    1  1s           1.697047     1.000000
   17.1 Ag    1  1s           0.743532     1.000000
   18.1 Ag    1  1s           0.158344     1.000000
   19.1 Ag    1  1s           0.075036     1.000000
   20.1 Ag    1  1s           0.033091     1.000000
   21.1 Ag    1  1s           5.225500     1.000000
   22.1 Ag    1  1s           1.363800     1.000000
   23.1 Ag    1  1s           0.014590     1.000000
   24.1 Ag    1  3d0        128.392000     1.000000
   25.1 Ag    1  3d2+       128.392000     1.000000
   26.1 Ag    1  3d0         37.893800     1.000000
   27.1 Ag    1  3d2+        37.893800     1.000000
   28.1 Ag    1  3d0         13.879800     1.000000
   29.1 Ag    1  3d2+        13.879800     1.000000
   30.1 Ag    1  3d0          5.625440     1.000000
   31.1 Ag    1  3d2+         5.625440     1.000000
   32.1 Ag    1  3d0          2.335390     1.000000
   33.1 Ag    1  3d2+         2.335390     1.000000
   34.1 Ag    1  3d0          0.935192     1.000000
   35.1 Ag    1  3d2+         0.935192     1.000000
   36.1 Ag    1  3d0          0.346953     1.000000
   37.1 Ag    1  3d2+         0.346953     1.000000
   38.1 Ag    1  3d0          0.111723     1.000000
   39.1 Ag    1  3d2+         0.111723     1.000000
   40.1 Ag    1  3d0          5.138400     1.000000
   41.1 Ag    1  3d2+         5.138400     1.000000
   42.1 Ag    1  3d0          2.405600     1.000000
   43.1 Ag    1  3d2+         2.405600     1.000000
   44.1 Ag    1  3d0          0.035980     1.000000
   45.1 Ag    1  3d2+         0.035980     1.000000
   46.1 Ag    1  5g0          6.324800     1.000000
   47.1 Ag    1  5g4+         6.324800     1.000000
   48.1 Ag    1  5g2+         6.324800     1.000000
   49.1 Ag    1  5g0          2.422900     1.000000
   50.1 Ag    1  5g4+         2.422900     1.000000
   51.1 Ag    1  5g2+         2.422900     1.000000
   52.1 Ag    1  5g0          0.928160     1.000000
   53.1 Ag    1  5g4+         0.928160     1.000000
   54.1 Ag    1  5g2+         0.928160     1.000000
    1.2 B3u   1  2px      19267.780000     1.000000
    2.2 B3u   1  2px       4560.986000     1.000000
    3.2 B3u   1  2px       1481.436000     1.000000
    4.2 B3u   1  2px        566.867100     1.000000
    5.2 B3u   1  2px        240.491000     1.000000
    6.2 B3u   1  2px        109.610500     1.000000
    7.2 B3u   1  2px         52.594910     1.000000
    8.2 B3u   1  2px         26.083610     1.000000
    9.2 B3u   1  2px         13.261430     1.000000
   10.2 B3u   1  2px          6.799778     1.000000
   11.2 B3u   1  2px          3.393414     1.000000
   12.2 B3u   1  2px          1.648766     1.000000
   13.2 B3u   1  2px          0.776282     1.000000
   14.2 B3u   1  2px          0.297209     1.000000
   15.2 B3u   1  2px          0.113352     1.000000
   16.2 B3u   1  2px          0.041510     1.000000
   17.2 B3u   1  2px          7.741100     1.000000
   18.2 B3u   1  2px          1.767200     1.000000
   19.2 B3u   1  2px          0.015200     1.000000
   20.2 B3u   1  4f1+         6.924000     1.000000
   21.2 B3u   1  4f3+         6.924000     1.000000
   22.2 B3u   1  4f1+         2.624400     1.000000
   23.2 B3u   1  4f3+         2.624400     1.000000
   24.2 B3u   1  4f1+         0.917000     1.000000
   25.2 B3u   1  4f3+         0.917000     1.000000
   26.2 B3u   1  4f1+         0.320410     1.000000
   27.2 B3u   1  4f3+         0.320410     1.000000
    1.3 B2u   1  2py      19267.780000     1.000000
    2.3 B2u   1  2py       4560.986000     1.000000
    3.3 B2u   1  2py       1481.436000     1.000000
    4.3 B2u   1  2py        566.867100     1.000000
    5.3 B2u   1  2py        240.491000     1.000000
    6.3 B2u   1  2py        109.610500     1.000000
    7.3 B2u   1  2py         52.594910     1.000000
    8.3 B2u   1  2py         26.083610     1.000000
    9.3 B2u   1  2py         13.261430     1.000000
   10.3 B2u   1  2py          6.799778     1.000000
   11.3 B2u   1  2py          3.393414     1.000000
   12.3 B2u   1  2py          1.648766     1.000000
   13.3 B2u   1  2py          0.776282     1.000000
   14.3 B2u   1  2py          0.297209     1.000000
   15.3 B2u   1  2py          0.113352     1.000000
   16.3 B2u   1  2py          0.041510     1.000000
   17.3 B2u   1  2py          7.741100     1.000000
   18.3 B2u   1  2py          1.767200     1.000000
   19.3 B2u   1  2py          0.015200     1.000000
   20.3 B2u   1  4f1-         6.924000     1.000000
   21.3 B2u   1  4f3-         6.924000     1.000000
   22.3 B2u   1  4f1-         2.624400     1.000000
   23.3 B2u   1  4f3-         2.624400     1.000000
   24.3 B2u   1  4f1-         0.917000     1.000000
   25.3 B2u   1  4f3-         0.917000     1.000000
   26.3 B2u   1  4f1-         0.320410     1.000000
   27.3 B2u   1  4f3-         0.320410     1.000000
    1.4 B1g   1  3d2-       128.392000     1.000000
    2.4 B1g   1  3d2-        37.893800     1.000000
    3.4 B1g   1  3d2-        13.879800     1.000000
    4.4 B1g   1  3d2-         5.625440     1.000000
    5.4 B1g   1  3d2-         2.335390     1.000000
    6.4 B1g   1  3d2-         0.935192     1.000000
    7.4 B1g   1  3d2-         0.346953     1.000000
    8.4 B1g   1  3d2-         0.111723     1.000000
    9.4 B1g   1  3d2-         5.138400     1.000000
   10.4 B1g   1  3d2-         2.405600     1.000000
   11.4 B1g   1  3d2-         0.035980     1.000000
   12.4 B1g   1  5g2-         6.324800     1.000000
   13.4 B1g   1  5g4-         6.324800     1.000000
   14.4 B1g   1  5g2-         2.422900     1.000000
   15.4 B1g   1  5g4-         2.422900     1.000000
   16.4 B1g   1  5g2-         0.928160     1.000000
   17.4 B1g   1  5g4-         0.928160     1.000000
    1.5 B1u   1  2pz      19267.780000     1.000000
    2.5 B1u   1  2pz       4560.986000     1.000000
    3.5 B1u   1  2pz       1481.436000     1.000000
    4.5 B1u   1  2pz        566.867100     1.000000
    5.5 B1u   1  2pz        240.491000     1.000000
    6.5 B1u   1  2pz        109.610500     1.000000
    7.5 B1u   1  2pz         52.594910     1.000000
    8.5 B1u   1  2pz         26.083610     1.000000
    9.5 B1u   1  2pz         13.261430     1.000000
   10.5 B1u   1  2pz          6.799778     1.000000
   11.5 B1u   1  2pz          3.393414     1.000000
   12.5 B1u   1  2pz          1.648766     1.000000
   13.5 B1u   1  2pz          0.776282     1.000000
   14.5 B1u   1  2pz          0.297209     1.000000
   15.5 B1u   1  2pz          0.113352     1.000000
   16.5 B1u   1  2pz          0.041510     1.000000
   17.5 B1u   1  2pz          7.741100     1.000000
   18.5 B1u   1  2pz          1.767200     1.000000
   19.5 B1u   1  2pz          0.015200     1.000000
   20.5 B1u   1  4f0          6.924000     1.000000
   21.5 B1u   1  4f2+         6.924000     1.000000
   22.5 B1u   1  4f0          2.624400     1.000000
   23.5 B1u   1  4f2+         2.624400     1.000000
   24.5 B1u   1  4f0          0.917000     1.000000
   25.5 B1u   1  4f2+         0.917000     1.000000
   26.5 B1u   1  4f0          0.320410     1.000000
   27.5 B1u   1  4f2+         0.320410     1.000000
    1.6 B2g   1  3d1+       128.392000     1.000000
    2.6 B2g   1  3d1+        37.893800     1.000000
    3.6 B2g   1  3d1+        13.879800     1.000000
    4.6 B2g   1  3d1+         5.625440     1.000000
    5.6 B2g   1  3d1+         2.335390     1.000000
    6.6 B2g   1  3d1+         0.935192     1.000000
    7.6 B2g   1  3d1+         0.346953     1.000000
    8.6 B2g   1  3d1+         0.111723     1.000000
    9.6 B2g   1  3d1+         5.138400     1.000000
   10.6 B2g   1  3d1+         2.405600     1.000000
   11.6 B2g   1  3d1+         0.035980     1.000000
   12.6 B2g   1  5g1+         6.324800     1.000000
   13.6 B2g   1  5g3+         6.324800     1.000000
   14.6 B2g   1  5g1+         2.422900     1.000000
   15.6 B2g   1  5g3+         2.422900     1.000000
   16.6 B2g   1  5g1+         0.928160     1.000000
   17.6 B2g   1  5g3+         0.928160     1.000000
    1.7 B3g   1  3d1-       128.392000     1.000000
    2.7 B3g   1  3d1-        37.893800     1.000000
    3.7 B3g   1  3d1-        13.879800     1.000000
    4.7 B3g   1  3d1-         5.625440     1.000000
    5.7 B3g   1  3d1-         2.335390     1.000000
    6.7 B3g   1  3d1-         0.935192     1.000000
    7.7 B3g   1  3d1-         0.346953     1.000000
    8.7 B3g   1  3d1-         0.111723     1.000000
    9.7 B3g   1  3d1-         5.138400     1.000000
   10.7 B3g   1  3d1-         2.405600     1.000000
   11.7 B3g   1  3d1-         0.035980     1.000000
   12.7 B3g   1  5g1-         6.324800     1.000000
   13.7 B3g   1  5g3-         6.324800     1.000000
   14.7 B3g   1  5g1-         2.422900     1.000000
   15.7 B3g   1  5g3-         2.422900     1.000000
   16.7 B3g   1  5g1-         0.928160     1.000000
   17.7 B3g   1  5g3-         0.928160     1.000000
    1.8 Au    1  4f2-         6.924000     1.000000
    2.8 Au    1  4f2-         2.624400     1.000000
    3.8 Au    1  4f2-         0.917000     1.000000
    4.8 Au    1  4f2-         0.320410     1.000000

 NUCLEAR CHARGE:                   17
 NUMBER OF PRIMITIVE AOS:         231
 NUMBER OF SYMMETRY AOS:          190
 NUMBER OF CONTRACTIONS:          190   (  54Ag  +  27B3u +  27B2u +  17B1g +  27B1u +  17B2g +  17B3g +   4Au  )
 NUMBER OF CORE ORBITALS:           4   (   1Ag  +   1B3u +   1B2u +   0B1g +   1B1u +   0B2g +   0B3g +   0Au  )
 NUMBER OF VALENCE ORBITALS:        6   (   3Ag  +   0B3u +   0B2u +   1B1g +   0B1u +   1B2g +   1B3g +   0Au  )


 NUCLEAR REPULSION ENERGY    0.00000000

 EXTRA SYMMETRY OF AOS IN SYMMETRY 1:   1 1 1 1 1 1 1 1 1 1   1 1 1 1 1 1 1 1 1 1   1 1 1 2 3 2 3 2 3 2   3 2 3 2 3 2 3 2 3 2
                                        3 2 3 2 3 4 5 6 4 5   6 4 5 6
 EXTRA SYMMETRY OF AOS IN SYMMETRY 2:   1 1 1 1 1 1 1 1 1 1   1 1 1 1 1 1 1 1 1 2   3 2 3 2 3 2 3
 EXTRA SYMMETRY OF AOS IN SYMMETRY 3:   1 1 1 1 1 1 1 1 1 1   1 1 1 1 1 1 1 1 1 2   3 2 3 2 3 2 3
 EXTRA SYMMETRY OF AOS IN SYMMETRY 4:   1 1 1 1 1 1 1 1 1 1   1 2 3 2 3 2 3
 EXTRA SYMMETRY OF AOS IN SYMMETRY 5:   1 1 1 1 1 1 1 1 1 1   1 1 1 1 1 1 1 1 1 2   3 2 3 2 3 2 3
 EXTRA SYMMETRY OF AOS IN SYMMETRY 6:   1 1 1 1 1 1 1 1 1 1   1 2 3 2 3 2 3
 EXTRA SYMMETRY OF AOS IN SYMMETRY 7:   1 1 1 1 1 1 1 1 1 1   1 2 3 2 3 2 3

 Eigenvalues of metric

         1 0.392E-05 0.392E-05 0.608E-05 0.644E-04 0.207E-03 0.207E-03 0.585E-03 0.167E-02
         2 0.221E-05 0.156E-04 0.114E-02 0.470E-02 0.118E-01 0.256E-01 0.445E-01 0.826E-01
         3 0.221E-05 0.156E-04 0.114E-02 0.470E-02 0.118E-01 0.256E-01 0.445E-01 0.826E-01
         4 0.392E-05 0.207E-03 0.539E-01 0.120E+00 0.256E+00 0.284E+00 0.284E+00 0.449E+00
         5 0.221E-05 0.156E-04 0.114E-02 0.470E-02 0.118E-01 0.256E-01 0.445E-01 0.826E-01
         6 0.392E-05 0.207E-03 0.539E-01 0.120E+00 0.256E+00 0.284E+00 0.284E+00 0.449E+00
         7 0.392E-05 0.207E-03 0.539E-01 0.120E+00 0.256E+00 0.284E+00 0.284E+00 0.449E+00
         8 0.192E+00 0.533E+00 0.124E+01 0.204E+01


 Contracted 2-electron integrals neglected if value below      1.0D-12
 AO integral compression algorithm  1   Integral accuracy      1.0D-12

     147.063 MB (compressed) written to integral file ( 47.0%)


 NUMBER OF SORTED TWO-ELECTRON INTEGRALS:   21725389.     BUFFER LENGTH:  32768
 NUMBER OF SEGMENTS:   2  SEGMENT LENGTH:   15999094      RECORD LENGTH: 524288

 Memory used in sort:      16.56 MW

 SORT1 READ    39142000. AND WROTE    14663002. INTEGRALS IN     43 RECORDS. CPU TIME:     1.01 SEC, REAL TIME:     1.44 SEC
 SORT2 READ    14663002. AND WROTE    21725389. INTEGRALS IN    561 RECORDS. CPU TIME:     0.63 SEC, REAL TIME:     1.09 SEC

 FILE SIZES:   FILE 1:   167.1 MBYTE,  FILE 4:   180.4 MBYTE,   TOTAL:    347.4 MBYTE

 OPERATOR DM      FOR CENTER  0  COORDINATES:    0.000000    0.000000    0.000000
 OPERATOR EKIN    FOR CENTER  0  COORDINATES:    0.000000    0.000000    0.000000
 OPERATOR POT     FOR CENTER  0  COORDINATES:    0.000000    0.000000    0.000000


 **********************************************************************************************************************************
 DATASETS  * FILE   NREC   LENGTH (MB)   RECORD NAMES
              1      20       94.31       500      610      700      900      950      970     1000      129      960     1100   
                                          VAR    BASINP    GEOM    SYMINP    ZMAT    AOBASIS   BASIS     P2S    ABASIS      S 
                                         1400     1410     1420     1200     1210     1080     1600     1650     1300     1700   
                                         EKIN       V       ECP      H0       H01     AOSYM     SMH    MOLCAS    ERIS     OPER   

 PROGRAMS   *        TOTAL       INT
 CPU TIMES  *        14.23     14.11
 REAL TIME  *        17.82 SEC
 DISK USED  *       347.76 MB      
 **********************************************************************************************************************************


 PROGRAM * RHF-SCF (OPEN SHELL)       Authors: W. Meyer, H.-J. Werner


 NUMBER OF ELECTRONS:      10+    7-    SPACE SYMMETRY=1    SPIN SYMMETRY: Quartet 
 CONVERGENCE THRESHOLDS:    1.00E-05 (Density)    1.00E-07 (Energy)
 MAX. NUMBER OF ITERATIONS:       60
 INTERPOLATION TYPE:            DIIS
 INTERPOLATION STEPS:              2 (START)      1 (STEP)
 LEVEL SHIFTS:                 -0.60 (CLOSED) -0.30 (OPEN) 


 Singly occupied orbitals:      1.4       1.6       1.7
 
 Extra symmetries of mos in symmetry 1:   1   1   3   2

   Atom=CO basis=ECP10MDF_GUESS    lmin=0  lmax=2

 Orbital guess generated from atomic densities. Full valence occupancy:    4   1   1   1   1   1   1   0


 Molecular orbital dump at record        4202.2

 ITERATION    DDIFF          GRAD             ENERGY        2-EL.EN.            DIPOLE MOMENTS         DIIS   ORB.
    1      0.000D+00      0.000D+00      -144.89089513    219.315786    0.00000    0.00000    0.00000    0    start
    2      0.000D+00      0.164D-01      -144.93147046    226.175964    0.00000    0.00000    0.00000    1    diag,B
    3      0.860D-02      0.118D-01      -144.94220441    224.439800    0.00000    0.00000    0.00000    2    diag,B
    4      0.254D-02      0.220D-02      -144.94313398    224.351523    0.00000    0.00000    0.00000    3    diag,B
    5      0.216D-02      0.397D-03      -144.94323215    224.342116    0.00000    0.00000    0.00000    4    diag,B
    6      0.726D-03      0.127D-03      -144.94325073    224.311624    0.00000    0.00000    0.00000    5    diag,B
    7      0.238D-03      0.489D-04      -144.94325490    224.295192    0.00000    0.00000    0.00000    6    fixocc
    8      0.200D-03      0.192D-04      -144.94325567    224.287773    0.00000    0.00000    0.00000    7    diag,B
    9      0.142D-03      0.651D-05      -144.94325577    224.285927    0.00000    0.00000    0.00000    8    diag,B
   10      0.547D-04      0.269D-05      -144.94325578    224.285545    0.00000    0.00000    0.00000    9    orth
   11      0.121D-04      0.104D-05      -144.94325579    224.285374    0.00000    0.00000    0.00000    9    diag,B
   12      0.104D-04      0.365D-06      -144.94325579    224.285342    0.00000    0.00000    0.00000    9    diag,B
   13      0.513D-05      0.795D-07      -144.94325579    224.285351    0.00000    0.00000    0.00000    0    orth

 Final alpha occupancy:   4   1   1   1   1   1   1   0
 Final beta  occupancy:   4   1   1   0   1   0   0   0

 !RHF STATE 1.1 Energy               -144.943255786137
 Nuclear energy                         0.00000000
 One-electron energy                 -257.08593143
 Two-electron energy                  112.14267565
 Virial quotient                       -1.62198542
 !RHF STATE 1.1 Dipole moment           0.00000000     0.00000000     0.00000000
 Dipole moment /Debye                   0.00000000     0.00000000     0.00000000
 

 !RHF expec          <1.1|EKIN|1.1>    89.361626731038
 
 !RHF expec           <1.1|POT|1.1>   -21.247428677092

 ELECTRON ORBITALS
 =================


   Orb  Occ    Energy  Couls-En    Coefficients

                                   1 1s      1 1s      1 1s      1 1s      1 1s      1 1s      1 1s      1 1s      1 1s      1 1s   
                                   1 1s      1 1s      1 1s      1 1s      1 1s      1 1s      1 1s      1 1s      1 1s      1 1s   
                                   1 1s      1 1s      1 1s      1 3d0     1 3d2+    1 3d0     1 3d2+    1 3d0     1 3d2+    1 3d0  
                                   1 3d2+    1 3d0     1 3d2+    1 3d0     1 3d2+    1 3d0     1 3d2+    1 3d0     1 3d2+    1 3d0  
                                   1 3d2+    1 3d0     1 3d2+    1 3d0     1 3d2+    1 5g0     1 5g4+    1 5g2+    1 5g0     1 5g4+ 
                                   1 5g2+    1 5g0     1 5g4+    1 5g2+ 

   1.1   2    -4.7049  -24.1067  0.000000  0.000000  0.000000  0.000004 -0.000004  0.000064 -0.000085  0.000652 -0.001134  0.005054
                                -0.013788  0.054286 -0.007246 -0.534699  0.041635  0.849241  0.374129  0.011381 -0.005504  0.002157
                                 0.176146 -0.089619 -0.000556 -0.000000  0.000000  0.000000 -0.000000 -0.000000  0.000000  0.000000
                                -0.000000  0.000000  0.000000 -0.000000  0.000000  0.000000 -0.000000 -0.000000  0.000000 -0.000000
                                 0.000000 -0.000000 -0.000000  0.000000 -0.000000  0.000242  0.000205  0.000000  0.000431  0.000365
                                 0.000000  0.000694  0.000587 -0.000000

   2.1   2    -0.2725   -6.4912 -0.000000 -0.000000 -0.000000 -0.000001  0.000001 -0.000015  0.000019 -0.000156  0.000265 -0.001206
                                 0.003289 -0.013321  0.003678  0.132572 -0.018250 -0.238979 -0.222396  0.347204  0.553964  0.255093
                                -0.044292 -0.004227 -0.001463  0.000000  0.000000  0.000000  0.000000  0.000000  0.000000  0.000000
                                 0.000000 -0.000000  0.000000  0.000000  0.000000  0.000000  0.000000  0.000000  0.000000 -0.000000
                                 0.000000  0.000000 -0.000000 -0.000000 -0.000000  0.000014  0.000012 -0.000000  0.000182  0.000154
                                -0.000000 -0.000157 -0.000133 -0.000000

   3.1   2    -0.6249  -14.8956  0.000000 -0.000000  0.000000 -0.000000  0.000000 -0.000000  0.000000 -0.000000  0.000000 -0.000000
                                 0.000000 -0.000000  0.000000  0.000000  0.000000 -0.000000 -0.000000  0.000000 -0.000000  0.000000
                                -0.000000  0.000000 -0.000000 -0.001186 -0.001722 -0.014508 -0.021063 -0.060587 -0.087963 -0.125548
                                -0.182275 -0.238850 -0.346770 -0.205694 -0.298633 -0.125365 -0.182009 -0.024559 -0.035656 -0.016066
                                -0.023325  0.034506  0.050097  0.001285  0.001865 -0.000058  0.000069  0.000131 -0.000092  0.000109
                                 0.000207 -0.000246  0.000291  0.000554

   4.1   2    -0.6249  -14.8956  0.000000  0.000000 -0.000000  0.000000 -0.000000  0.000000 -0.000000  0.000000 -0.000000  0.000000
                                -0.000000  0.000000 -0.000000  0.000000  0.000000 -0.000000 -0.000000  0.000000 -0.000000  0.000000
                                -0.000000  0.000000 -0.000000  0.001722 -0.001186  0.021063 -0.014508  0.087963 -0.060587  0.182275
                                -0.125548  0.346770 -0.238850  0.298633 -0.205694  0.182009 -0.125365  0.035656 -0.024559  0.023325
                                -0.016066 -0.050097  0.034506 -0.001865  0.001285  0.000084 -0.000100  0.000090  0.000133 -0.000158
                                 0.000142  0.000358 -0.000423  0.000382

   5.1   0     0.0296   -1.8716  0.000000  0.000000  0.000000  0.000000  0.000001 -0.000000  0.000010 -0.000010  0.000076 -0.000096
                                 0.000214  0.000201  0.008957 -0.084243 -0.194908  0.582977  0.237478 -0.432241  0.854175 -2.343165
                                 0.167168 -0.573698  2.362906 -0.000000 -0.000000 -0.000000 -0.000000 -0.000000 -0.000000 -0.000000
                                -0.000000  0.000000 -0.000000 -0.000000 -0.000000 -0.000000 -0.000000 -0.000000 -0.000000  0.000000
                                 0.000000 -0.000000 -0.000000 -0.000000 -0.000000 -0.000041 -0.000035  0.000000 -0.000050 -0.000043
                                -0.000000  0.000312  0.000264  0.000000

   6.1   0     0.1130   -2.3536 -0.000000  0.000000 -0.000000  0.000000 -0.000000  0.000000 -0.000000  0.000000 -0.000000  0.000000
                                -0.000000  0.000000 -0.000000  0.000000  0.000000 -0.000000 -0.000000  0.000000 -0.000000  0.000000
                                -0.000000  0.000000 -0.000000 -0.000049 -0.000076 -0.000923 -0.001447 -0.002346 -0.003676 -0.054384
                                -0.085244  0.395038  0.619197 -0.032507 -0.050953  0.030117  0.047207 -0.097535 -0.152880  0.058186
                                 0.091203 -0.407725 -0.639083  0.586567  0.919407  0.000011 -0.000013 -0.000027  0.000031 -0.000036
                                -0.000074 -0.000001  0.000001  0.000002

                                   1 2px     1 2px     1 2px     1 2px     1 2px     1 2px     1 2px     1 2px     1 2px     1 2px  
                                   1 2px     1 2px     1 2px     1 2px     1 2px     1 2px     1 2px     1 2px     1 2px     1 4f1+ 
                                   1 4f3+    1 4f1+    1 4f3+    1 4f1+    1 4f3+    1 4f1+    1 4f3+ 

   1.2   2    -3.0293  -20.5939  0.000001 -0.000001  0.000027 -0.000021  0.000448 -0.000643  0.005806 -0.006206 -0.092714  0.027151
                                 0.344402  0.425895  0.273877  0.038686 -0.002677  0.001580  0.011595  0.031320 -0.000466 -0.000899
                                 0.001160 -0.002020  0.002608 -0.002437  0.003147 -0.000559  0.000722

   2.2   0     0.0229   -2.5141  0.000000 -0.000000  0.000000 -0.000008  0.000004 -0.000071 -0.000024 -0.000829  0.012662  0.060938
                                -0.059981 -0.374395  0.017418 -0.011425  0.229719 -0.083594 -0.057136  0.337839  0.971893 -0.000031
                                 0.000040 -0.000092  0.000118  0.000047 -0.000061  0.000284 -0.000367

   3.2   0     0.0782   -3.2384 -0.000000  0.000001 -0.000010  0.000034 -0.000170  0.000469 -0.001976  0.005299 -0.011122 -0.225899
                                 0.077674  1.128741 -0.182487  0.215987 -0.104506  1.486243  0.195568 -1.184971 -1.197396 -0.000054
                                 0.000070 -0.000162  0.000210  0.000099 -0.000128  0.000529 -0.000683

                                   1 2py     1 2py     1 2py     1 2py     1 2py     1 2py     1 2py     1 2py     1 2py     1 2py  
                                   1 2py     1 2py     1 2py     1 2py     1 2py     1 2py     1 2py     1 2py     1 2py     1 4f1- 
                                   1 4f3-    1 4f1-    1 4f3-    1 4f1-    1 4f3-    1 4f1-    1 4f3- 

   1.3   2    -3.0293  -20.5939  0.000001 -0.000001  0.000027 -0.000021  0.000448 -0.000643  0.005806 -0.006206 -0.092714  0.027151
                                 0.344402  0.425895  0.273877  0.038686 -0.002677  0.001580  0.011595  0.031320 -0.000466 -0.000899
                                -0.001160 -0.002020 -0.002608 -0.002437 -0.003147 -0.000559 -0.000722

   2.3   0     0.0229   -2.5141  0.000000 -0.000000  0.000000 -0.000008  0.000004 -0.000071 -0.000024 -0.000829  0.012662  0.060938
                                -0.059981 -0.374395  0.017418 -0.011425  0.229719 -0.083594 -0.057136  0.337839  0.971893 -0.000031
                                -0.000040 -0.000092 -0.000118  0.000047  0.000061  0.000284  0.000367

   3.3   0     0.0782   -3.2384 -0.000000  0.000001 -0.000010  0.000034 -0.000170  0.000469 -0.001976  0.005299 -0.011122 -0.225899
                                 0.077674  1.128741 -0.182487  0.215987 -0.104506  1.486243  0.195568 -1.184971 -1.197396 -0.000054
                                -0.000070 -0.000162 -0.000210  0.000099  0.000128  0.000529  0.000683

                                   1 3d2-    1 3d2-    1 3d2-    1 3d2-    1 3d2-    1 3d2-    1 3d2-    1 3d2-    1 3d2-    1 3d2- 
                                   1 3d2-    1 5g2-    1 5g4-    1 5g2-    1 5g4-    1 5g2-    1 5g4- 

   1.4   +    -0.7235  -15.1815  0.002130  0.026036  0.108731  0.224648  0.439531  0.364690  0.200851  0.029821  0.030642 -0.070065
                                -0.001541  0.000319 -0.000000  0.000765  0.000000  0.000656  0.000000

   2.4   0     0.1127   -2.3519 -0.000076 -0.001543 -0.003649 -0.099257  0.734150 -0.057636  0.058383 -0.177965  0.107899 -0.755340
                                 1.088964 -0.000015  0.000000 -0.000042 -0.000000  0.000004  0.000000

   3.4   0     0.3949   -3.8277 -0.000585 -0.004951 -0.030953  0.270057 -2.875564  0.073673 -0.263906  1.378084 -0.405667  2.803842
                                -0.658287 -0.000063  0.000000 -0.000189 -0.000000  0.000090  0.000000

                                   1 2pz     1 2pz     1 2pz     1 2pz     1 2pz     1 2pz     1 2pz     1 2pz     1 2pz     1 2pz  
                                   1 2pz     1 2pz     1 2pz     1 2pz     1 2pz     1 2pz     1 2pz     1 2pz     1 2pz     1 4f0  
                                   1 4f2+    1 4f0     1 4f2+    1 4f0     1 4f2+    1 4f0     1 4f2+ 

   1.5   2    -3.0293  -20.5939  0.000001 -0.000001  0.000027 -0.000021  0.000448 -0.000643  0.005806 -0.006206 -0.092714  0.027151
                                 0.344402  0.425895  0.273877  0.038686 -0.002677  0.001580  0.011595  0.031320 -0.000466  0.001467
                                -0.000000  0.003299  0.000000  0.003980  0.000000  0.000913 -0.000000

   2.5   0     0.0229   -2.5141  0.000000 -0.000000  0.000000 -0.000008  0.000004 -0.000071 -0.000024 -0.000829  0.012662  0.060938
                                -0.059981 -0.374395  0.017418 -0.011425  0.229719 -0.083594 -0.057136  0.337839  0.971893  0.000050
                                 0.000000  0.000149  0.000000 -0.000077 -0.000000 -0.000465  0.000000

   3.5   0     0.0782   -3.2384 -0.000000  0.000001 -0.000010  0.000034 -0.000170  0.000469 -0.001976  0.005299 -0.011122 -0.225899
                                 0.077674  1.128741 -0.182487  0.215987 -0.104506  1.486243  0.195568 -1.184971 -1.197396  0.000089
                                 0.000000  0.000265 -0.000000 -0.000162 -0.000000 -0.000863  0.000000

                                   1 3d1+    1 3d1+    1 3d1+    1 3d1+    1 3d1+    1 3d1+    1 3d1+    1 3d1+    1 3d1+    1 3d1+ 
                                   1 3d1+    1 5g1+    1 5g3+    1 5g1+    1 5g3+    1 5g1+    1 5g3+ 

   1.6   +    -0.7235  -15.1815  0.002130  0.026036  0.108731  0.224648  0.439531  0.364690  0.200851  0.029821  0.030642 -0.070065
                                -0.001541 -0.000113 -0.000298 -0.000270 -0.000716 -0.000232 -0.000613

   2.6   0     0.1127   -2.3519 -0.000076 -0.001543 -0.003649 -0.099257  0.734150 -0.057636  0.058383 -0.177965  0.107899 -0.755340
                                 1.088964  0.000005  0.000014  0.000015  0.000039 -0.000001 -0.000004

   3.6   0     0.3949   -3.8277 -0.000585 -0.004951 -0.030953  0.270057 -2.875564  0.073673 -0.263906  1.378084 -0.405667  2.803842
                                -0.658287  0.000022  0.000059  0.000067  0.000177 -0.000032 -0.000084

                                   1 3d1-    1 3d1-    1 3d1-    1 3d1-    1 3d1-    1 3d1-    1 3d1-    1 3d1-    1 3d1-    1 3d1- 
                                   1 3d1-    1 5g1-    1 5g3-    1 5g1-    1 5g3-    1 5g1-    1 5g3- 

   1.7   +    -0.7235  -15.1815  0.002130  0.026036  0.108731  0.224648  0.439531  0.364690  0.200851  0.029821  0.030642 -0.070065
                                -0.001541 -0.000113  0.000298 -0.000270  0.000716 -0.000232  0.000613

   2.7   0     0.1127   -2.3519 -0.000076 -0.001543 -0.003649 -0.099257  0.734150 -0.057636  0.058383 -0.177965  0.107899 -0.755340
                                 1.088964  0.000005 -0.000014  0.000015 -0.000039 -0.000001  0.000004

   3.7   0     0.3949   -3.8277 -0.000585 -0.004951 -0.030953  0.270057 -2.875564  0.073673 -0.263906  1.378084 -0.405667  2.803842
                                -0.658287  0.000022 -0.000059  0.000067 -0.000177 -0.000032  0.000084

                                   1 4f2-    1 4f2-    1 4f2-    1 4f2- 

   1.8   0     1.1366   -4.2836 -0.005062  0.050888 -0.103771  1.048889

   2.8   0     3.3185   -3.7940  0.052120 -0.026904  1.205033 -0.604852

 HOMO      4.1    -0.624863 =     -17.0034eV
 LUMO      2.2     0.022876 =       0.6225eV
 LUMO-HOMO         0.647739 =      17.6259eV


 **********************************************************************************************************************************
 DATASETS  * FILE   NREC   LENGTH (MB)   RECORD NAMES
              1      20       94.31       500      610      700      900      950      970     1000      129      960     1100   
                                          VAR    BASINP    GEOM    SYMINP    ZMAT    AOBASIS   BASIS     P2S    ABASIS      S 
                                         1400     1410     1420     1200     1210     1080     1600     1650     1300     1700   
                                         EKIN       V       ECP      H0       H01     AOSYM     SMH    MOLCAS    ERIS     OPER   

              2       4        2.94       700     1000      520     4202   
                                         GEOM     BASIS   MCVARS     RHF  

 PROGRAMS   *        TOTAL       RHF       INT
 CPU TIMES  *        15.64      1.40     14.11
 REAL TIME  *        19.48 SEC
 DISK USED  *       347.76 MB      
 **********************************************************************************************************************************


 PROGRAM * POP (Mulliken population analysis)

 
 Density matrix read from record         4202.2  Type=RHF/CHARGE (state 1.1)
 
 Population analysis by basis function type

 Unique atom        s        p        d        f        g    Total    Charge
   1  CO      4.00000  5.99966  6.99999  0.00034  0.00001 17.00000  + 0.00000


 **********************************************************************************************************************************
 DATASETS  * FILE   NREC   LENGTH (MB)   RECORD NAMES
              1      20       94.31       500      610      700      900      950      970     1000      129      960     1100   
                                          VAR    BASINP    GEOM    SYMINP    ZMAT    AOBASIS   BASIS     P2S    ABASIS      S 
                                         1400     1410     1420     1200     1210     1080     1600     1650     1300     1700   
                                         EKIN       V       ECP      H0       H01     AOSYM     SMH    MOLCAS    ERIS     OPER   

              2       4        2.94       700     1000      520     4202   
                                         GEOM     BASIS   MCVARS     RHF  

 PROGRAMS   *        TOTAL       POP       RHF       INT
 CPU TIMES  *        15.64      0.00      1.40     14.11
 REAL TIME  *        19.49 SEC
 DISK USED  *       347.76 MB      
 **********************************************************************************************************************************


 PROGRAM * MULTI (Direct Multiconfiguration SCF)       Authors: P.J. Knowles, H.-J. Werner (1984)     S.T. Elbert (1988)


 Number of closed-shell orbitals:   5 (   2   1   1   0   1   0   0   0 )
 Number of active  orbitals:        5 (   2   0   0   1   0   1   1   0 )
 Number of external orbitals:     180 (  50  26  26  16  26  16  16   4 )

 State symmetry 1

 Number of electrons:     7    Spin symmetry=Quartet   Space symmetry=1
 Number of states:        1
 Number of CSFs:          1   (1 determinants, 10 intermediate states)

 State symmetry 2

 Number of electrons:     7    Spin symmetry=Quartet   Space symmetry=4
 Number of states:        3
 Number of CSFs:          3   (3 determinants, 10 intermediate states)

 State symmetry 3

 Number of electrons:     7    Spin symmetry=Quartet   Space symmetry=6
 Number of states:        3
 Number of CSFs:          3   (3 determinants, 10 intermediate states)

 State symmetry 4

 Number of electrons:     7    Spin symmetry=Quartet   Space symmetry=7
 Number of states:        3
 Number of CSFs:          3   (3 determinants, 10 intermediate states)

 Molecular orbitals read from record     4202.2  Type=RHF/CANONICAL (state 1.1)
 *** IN SYMMETRY 1 ORBITAL  1 SYMMETRY CONTAMINATION OF 0.116D-02 HAS BEEN REMOVED
 *** IN SYMMETRY 1 ORBITAL  2 SYMMETRY CONTAMINATION OF 0.354D-03 HAS BEEN REMOVED
 *** IN SYMMETRY 1 ORBITAL  3 SYMMETRY CONTAMINATION OF 0.408D+00 HAS BEEN REMOVED
 *** IN SYMMETRY 1 ORBITAL  4 SYMMETRY CONTAMINATION OF 0.408D+00 HAS BEEN REMOVED

 EXTRA SYMMETRY OF MOS IN SYMMETRY 1:   1 1 3 2 1 3 2 1 2 3   1 2 3 1 2 3 5 6 4 1   2 3 5 6 4 1 2 3 5 6   4 1 2 3 2 3 1 1 2 3
                                        1 1 2 3 1 1 1 1 1 1   1 1 1 1
 *** IN SYMMETRY 2 ORBITAL  1 SYMMETRY CONTAMINATION OF 0.106D-01 HAS BEEN REMOVED
 EXTRA SYMMETRY OF MOS IN SYMMETRY 2:   1 1 1 1 1 2 3 1 2 3   1 2 3 1 2 3 1 1 1 1   1 1 1 1 1 1 1
 *** IN SYMMETRY 3 ORBITAL  1 SYMMETRY CONTAMINATION OF 0.106D-01 HAS BEEN REMOVED
 EXTRA SYMMETRY OF MOS IN SYMMETRY 3:   1 1 1 1 1 2 3 1 2 3   1 2 3 1 2 3 1 1 1 1   1 1 1 1 1 1 1
 *** IN SYMMETRY 4 ORBITAL  1 SYMMETRY CONTAMINATION OF 0.116D-02 HAS BEEN REMOVED
 EXTRA SYMMETRY OF MOS IN SYMMETRY 4:   1 1 1 1 1 2 3 1 2 3   1 2 3 1 1 1 1
 *** IN SYMMETRY 5 ORBITAL  1 SYMMETRY CONTAMINATION OF 0.759D-02 HAS BEEN REMOVED
 EXTRA SYMMETRY OF MOS IN SYMMETRY 5:   1 1 1 1 1 3 2 1 3 2   1 3 2 1 3 2 1 1 1 1   1 1 1 1 1 1 1
 *** IN SYMMETRY 6 ORBITAL  1 SYMMETRY CONTAMINATION OF 0.149D-02 HAS BEEN REMOVED
 EXTRA SYMMETRY OF MOS IN SYMMETRY 6:   1 1 1 1 1 3 2 1 3 2   1 3 2 1 1 1 1
 *** IN SYMMETRY 7 ORBITAL  1 SYMMETRY CONTAMINATION OF 0.149D-02 HAS BEEN REMOVED
 EXTRA SYMMETRY OF MOS IN SYMMETRY 7:   1 1 1 1 1 3 2 1 3 2   1 3 2 1 1 1 1

 Wavefunction dump at record             5202.2

 Convergence thresholds  0.10E-01 (gradient)  0.10E-05 (energy)  0.10E-02 (step length)

 Weight factors for state symmetry  1:    0.10000
 Weight factors for state symmetry  2:    0.10000   0.10000   0.10000
 Weight factors for state symmetry  3:    0.10000   0.10000   0.10000
 Weight factors for state symmetry  4:    0.10000   0.10000   0.10000

 Number of orbital rotations:      330   (     4 Core/Active    178 Core/Virtual   0 Active/Active    148 Active/Virtual)
 Total number of variables:        358


 ITER. MIC  NCI  NEG     ENERGY(VAR)     ENERGY(PROJ)   ENERGY CHANGE     GRAD(0)  GRAD(ORB)   GRAD(CI)     STEP       TIME

   1   34   16    0    -144.91193756    -144.91401509   -0.00207753    0.07759406 0.00000000 0.00000000  0.37D-01      0.32
   2   18   20    0    -144.91402305    -144.91402323   -0.00000019    0.00072419 0.00000000 0.00000000  0.44D-03      0.62
   3   21   20    0    -144.91402323    -144.91402323   -0.00000000    0.00000009 0.00000000 0.00000000  0.66D-07      0.91

 ** WVFN ****  CONVERGENCE REACHED, FINAL GRADIENT:  0.72D-11



 Results for state 1.1
 =====================

 !MCSCF STATE 1.1 Energy             -144.939343328182
 Nuclear energy                         0.00000000
 Kinetic energy                        89.30112975
 One electron energy                 -257.05963583
 Two electron energy                  112.12029250
 Virial ratio                           2.62304042

 !MCSCF STATE 1.1 Dipole moment         0.00000000     0.00000000     0.00000000
 Dipole moment /Debye                   0.00000000     0.00000000     0.00000000



 Results for state 1.4
 =====================

 !MCSCF STATE 1.4 Energy             -144.939343328182
 Nuclear energy                         0.00000000
 Kinetic energy                        89.30112975
 One electron energy                 -257.05963583
 Two electron energy                  112.12029250
 Virial ratio                           2.62304042

 !MCSCF STATE 1.4 Dipole moment         0.00000000     0.00000000     0.00000000
 Dipole moment /Debye                   0.00000000     0.00000000     0.00000000

 Results for state 2.4
 =====================

 !MCSCF STATE 2.4 Energy             -144.939343328181
 Nuclear energy                         0.00000000
 Kinetic energy                        89.30112975
 One electron energy                 -257.05963583
 Two electron energy                  112.12029250
 Virial ratio                           2.62304042

 !MCSCF STATE 2.4 Dipole moment         0.00000000     0.00000000     0.00000000
 Dipole moment /Debye                   0.00000000     0.00000000     0.00000000

 Results for state 3.4
 =====================

 !MCSCF STATE 3.4 Energy             -144.854943010397
 Nuclear energy                         0.00000000
 Kinetic energy                        89.30112975
 One electron energy                 -257.05963583
 Two electron energy                  112.20469282
 Virial ratio                           2.62209530

 !MCSCF STATE 3.4 Dipole moment         0.00000000     0.00000000     0.00000000
 Dipole moment /Debye                   0.00000000     0.00000000     0.00000000



 Results for state 1.6
 =====================

 !MCSCF STATE 1.6 Energy             -144.939343328181
 Nuclear energy                         0.00000000
 Kinetic energy                        89.30112975
 One electron energy                 -257.05963583
 Two electron energy                  112.12029250
 Virial ratio                           2.62304042

 !MCSCF STATE 1.6 Dipole moment         0.00000000     0.00000000     0.00000000
 Dipole moment /Debye                   0.00000000     0.00000000     0.00000000

 Results for state 2.6
 =====================

 !MCSCF STATE 2.6 Energy             -144.939343328180
 Nuclear energy                         0.00000000
 Kinetic energy                        89.30112975
 One electron energy                 -257.05963583
 Two electron energy                  112.12029250
 Virial ratio                           2.62304042

 !MCSCF STATE 2.6 Dipole moment         0.00000000     0.00000000     0.00000000
 Dipole moment /Debye                   0.00000000     0.00000000     0.00000000

 Results for state 3.6
 =====================

 !MCSCF STATE 3.6 Energy             -144.854943010399
 Nuclear energy                         0.00000000
 Kinetic energy                        89.30112975
 One electron energy                 -257.05963583
 Two electron energy                  112.20469282
 Virial ratio                           2.62209530

 !MCSCF STATE 3.6 Dipole moment         0.00000000     0.00000000     0.00000000
 Dipole moment /Debye                   0.00000000     0.00000000     0.00000000



 Results for state 1.7
 =====================

 !MCSCF STATE 1.7 Energy             -144.939343328181
 Nuclear energy                         0.00000000
 Kinetic energy                        89.30112975
 One electron energy                 -257.05963583
 Two electron energy                  112.12029250
 Virial ratio                           2.62304042

 !MCSCF STATE 1.7 Dipole moment         0.00000000     0.00000000     0.00000000
 Dipole moment /Debye                   0.00000000     0.00000000     0.00000000

 Results for state 2.7
 =====================

 !MCSCF STATE 2.7 Energy             -144.939343328180
 Nuclear energy                         0.00000000
 Kinetic energy                        89.30112975
 One electron energy                 -257.05963583
 Two electron energy                  112.12029250
 Virial ratio                           2.62304042

 !MCSCF STATE 2.7 Dipole moment         0.00000000     0.00000000     0.00000000
 Dipole moment /Debye                   0.00000000     0.00000000     0.00000000

 Results for state 3.7
 =====================

 !MCSCF STATE 3.7 Energy             -144.854943010399
 Nuclear energy                         0.00000000
 Kinetic energy                        89.30112975
 One electron energy                 -257.05963583
 Two electron energy                  112.20469282
 Virial ratio                           2.62209530

 !MCSCF STATE 3.7 Dipole moment         0.00000000     0.00000000     0.00000000
 Dipole moment /Debye                   0.00000000     0.00000000     0.00000000

 State-averaged charge density matrix saved on record  5202.2 (density set 1)

 !MCSCF expec        <1.1|EKIN|1.1>    89.301129752144
 !MCSCF expec        <1.4|EKIN|1.4>    89.301129752143
 !MCSCF expec        <2.4|EKIN|2.4>    89.301129752142
 !MCSCF expec        <3.4|EKIN|3.4>    89.301129752143
 !MCSCF expec        <1.6|EKIN|1.6>    89.301129752142
 !MCSCF expec        <2.6|EKIN|2.6>    89.301129752143
 !MCSCF expec        <3.6|EKIN|3.6>    89.301129752143
 !MCSCF expec        <1.7|EKIN|1.7>    89.301129752142
 !MCSCF expec        <2.7|EKIN|2.7>    89.301129752143
 !MCSCF expec        <3.7|EKIN|3.7>    89.301129752143

 !MCSCF expec         <1.1|POT|1.1>   -21.242889188018
 !MCSCF expec         <1.4|POT|1.4>   -21.242889188018
 !MCSCF expec         <2.4|POT|2.4>   -21.242889188018
 !MCSCF expec         <3.4|POT|3.4>   -21.242889188018
 !MCSCF expec         <1.6|POT|1.6>   -21.242889188018
 !MCSCF expec         <2.6|POT|2.6>   -21.242889188018
 !MCSCF expec         <3.6|POT|3.6>   -21.242889188018
 !MCSCF expec         <1.7|POT|1.7>   -21.242889188018
 !MCSCF expec         <2.7|POT|2.7>   -21.242889188018
 !MCSCF expec         <3.7|POT|3.7>   -21.242889188018


 NATURAL ORBITALS (state averaged)
 =================================

   Orb     Occ        Energy       Coefficients

                                   1 1s      1 1s      1 1s      1 1s      1 1s      1 1s      1 1s      1 1s      1 1s      1 1s   
                                   1 1s      1 1s      1 1s      1 1s      1 1s      1 1s      1 1s      1 1s      1 1s      1 1s   
                                   1 1s      1 1s      1 1s      1 3d0     1 3d2+    1 3d0     1 3d2+    1 3d0     1 3d2+    1 3d0  
                                   1 3d2+    1 3d0     1 3d2+    1 3d0     1 3d2+    1 3d0     1 3d2+    1 3d0     1 3d2+    1 3d0  
                                   1 3d2+    1 3d0     1 3d2+    1 3d0     1 3d2+    1 5g0     1 5g4+    1 5g2+    1 5g0     1 5g4+ 
                                   1 5g2+    1 5g0     1 5g4+    1 5g2+ 

   1.1  2.00000    -4.707384     0.000000  0.000000  0.000000  0.000004 -0.000004  0.000065 -0.000085  0.000652 -0.001135  0.005055
                                -0.013791  0.054301 -0.007260 -0.534790  0.041868  0.849343  0.373826  0.011351 -0.005483  0.002147
                                 0.176076 -0.089500 -0.000553  0.000000  0.000000  0.000000  0.000000  0.000000  0.000000  0.000000
                                 0.000000  0.000000  0.000000  0.000000  0.000000  0.000000  0.000000  0.000000  0.000000  0.000000
                                 0.000000  0.000000  0.000000  0.000000  0.000000  0.000000  0.000000  0.000000  0.000000  0.000000
                                 0.000000  0.000000  0.000000  0.000000

   2.1  2.00000    -0.272632    -0.000000 -0.000000 -0.000000 -0.000001  0.000001 -0.000015  0.000020 -0.000156  0.000266 -0.001208
                                 0.003294 -0.013341  0.003707  0.132585 -0.018781 -0.237908 -0.221767  0.348132  0.553475  0.254758
                                -0.043965 -0.005881 -0.001545  0.000000  0.000000  0.000000  0.000000  0.000000  0.000000  0.000000
                                 0.000000  0.000000  0.000000  0.000000  0.000000  0.000000  0.000000  0.000000  0.000000  0.000000
                                 0.000000  0.000000  0.000000  0.000000  0.000000  0.000000  0.000000  0.000000  0.000000  0.000000
                                 0.000000  0.000000  0.000000  0.000000

   3.1  1.40000    -0.367816     0.000000  0.000000  0.000000  0.000000  0.000000  0.000000  0.000000  0.000000  0.000000  0.000000
                                 0.000000  0.000000  0.000000  0.000000  0.000000  0.000000  0.000000  0.000000  0.000000  0.000000
                                 0.000000  0.000000  0.000000  0.000000 -0.002106  0.000000 -0.025763  0.000000 -0.107589  0.000000
                                -0.222760  0.000000 -0.427441  0.000000 -0.363503  0.000000 -0.213359  0.000000 -0.037841  0.000000
                                -0.029098  0.000000  0.063648  0.000000  0.002016  0.000000  0.000000  0.000000  0.000000  0.000000
                                 0.000000  0.000000  0.000000  0.000000

   4.1  1.40000    -0.367816     0.000000  0.000000  0.000000  0.000000  0.000000  0.000000  0.000000  0.000000  0.000000  0.000000
                                 0.000000  0.000000  0.000000  0.000000  0.000000  0.000000  0.000000  0.000000  0.000000  0.000000
                                 0.000000  0.000000  0.000000  0.002106  0.000000  0.025763  0.000000  0.107589  0.000000  0.222760
                                 0.000000  0.427441  0.000000  0.363503  0.000000  0.213359  0.000000  0.037841  0.000000  0.029098
                                 0.000000 -0.063648  0.000000 -0.002016  0.000000  0.000000  0.000000  0.000000  0.000000  0.000000
                                 0.000000  0.000000  0.000000  0.000000

                                   1 2px     1 2px     1 2px     1 2px     1 2px     1 2px     1 2px     1 2px     1 2px     1 2px  
                                   1 2px     1 2px     1 2px     1 2px     1 2px     1 2px     1 2px     1 2px     1 2px     1 4f1+ 
                                   1 4f3+    1 4f1+    1 4f3+    1 4f1+    1 4f3+    1 4f1+    1 4f3+ 

   1.2  2.00000    -3.031235     0.000001 -0.000001  0.000027 -0.000021  0.000448 -0.000643  0.005808 -0.006207 -0.092748  0.027116
                                 0.344576  0.426146  0.273676  0.038626 -0.002669  0.001576  0.011646  0.031157 -0.000465  0.000000
                                 0.000000  0.000000  0.000000  0.000000  0.000000  0.000000  0.000000

                                   1 2py     1 2py     1 2py     1 2py     1 2py     1 2py     1 2py     1 2py     1 2py     1 2py  
                                   1 2py     1 2py     1 2py     1 2py     1 2py     1 2py     1 2py     1 2py     1 2py     1 4f1- 
                                   1 4f3-    1 4f1-    1 4f3-    1 4f1-    1 4f3-    1 4f1-    1 4f3- 

   1.3  2.00000    -3.031235     0.000001 -0.000001  0.000027 -0.000021  0.000448 -0.000643  0.005808 -0.006207 -0.092748  0.027116
                                 0.344576  0.426146  0.273676  0.038626 -0.002669  0.001576  0.011646  0.031157 -0.000465  0.000000
                                 0.000000  0.000000  0.000000  0.000000  0.000000  0.000000  0.000000

                                   1 3d2-    1 3d2-    1 3d2-    1 3d2-    1 3d2-    1 3d2-    1 3d2-    1 3d2-    1 3d2-    1 3d2- 
                                   1 3d2-    1 5g2-    1 5g4-    1 5g2-    1 5g4-    1 5g2-    1 5g4- 

   1.4  1.40000    -0.367816     0.002106  0.025763  0.107589  0.222760  0.427441  0.363503  0.213359  0.037841  0.029098 -0.063648
                                -0.002016  0.000000  0.000000  0.000000  0.000000  0.000000  0.000000

                                   1 2pz     1 2pz     1 2pz     1 2pz     1 2pz     1 2pz     1 2pz     1 2pz     1 2pz     1 2pz  
                                   1 2pz     1 2pz     1 2pz     1 2pz     1 2pz     1 2pz     1 2pz     1 2pz     1 2pz     1 4f0  
                                   1 4f2+    1 4f0     1 4f2+    1 4f0     1 4f2+    1 4f0     1 4f2+ 

   1.5  2.00000    -3.031235     0.000001 -0.000001  0.000027 -0.000021  0.000448 -0.000643  0.005808 -0.006207 -0.092748  0.027116
                                 0.344576  0.426146  0.273676  0.038626 -0.002669  0.001576  0.011646  0.031157 -0.000465  0.000000
                                 0.000000  0.000000  0.000000  0.000000  0.000000  0.000000  0.000000

                                   1 3d1+    1 3d1+    1 3d1+    1 3d1+    1 3d1+    1 3d1+    1 3d1+    1 3d1+    1 3d1+    1 3d1+ 
                                   1 3d1+    1 5g1+    1 5g3+    1 5g1+    1 5g3+    1 5g1+    1 5g3+ 

   1.6  1.40000    -0.367816     0.002106  0.025763  0.107589  0.222760  0.427441  0.363503  0.213359  0.037841  0.029098 -0.063648
                                -0.002016  0.000000  0.000000  0.000000  0.000000  0.000000  0.000000

                                   1 3d1-    1 3d1-    1 3d1-    1 3d1-    1 3d1-    1 3d1-    1 3d1-    1 3d1-    1 3d1-    1 3d1- 
                                   1 3d1-    1 5g1-    1 5g3-    1 5g1-    1 5g3-    1 5g1-    1 5g3- 

   1.7  1.40000    -0.367816     0.002106  0.025763  0.107589  0.222760  0.427441  0.363503  0.213359  0.037841  0.029098 -0.063648
                                -0.002016  0.000000  0.000000  0.000000  0.000000  0.000000  0.000000
 

 EXTRA SYMMETRY OF MOS IN SYMMETRY 1:   1 1 3 2 1 3 2 1 2 3   1 3 2 1 2 3 4 5 6 1   2 3 6 4 5 1 2 3 4 6   5 1 3 2 3 2 1 1 3 2
                                        1 1 3 2 1 1 1 1 1 1   1 1 1 1
 EXTRA SYMMETRY OF MOS IN SYMMETRY 2:   1 1 1 1 1 3 2 1 2 3   1 2 3 1 2 3 1 1 1 1   1 1 1 1 1 1 1
 EXTRA SYMMETRY OF MOS IN SYMMETRY 4:   1 1 1 1 1 3 2 1 2 3   1 2 3 1 1 1 1
 EXTRA SYMMETRY OF MOS IN SYMMETRY 5:   1 1 1 1 1 3 2 1 2 3   1 2 3 1 2 3 1 1 1 1   1 1 1 1 1 1 1
 EXTRA SYMMETRY OF MOS IN SYMMETRY 6:   1 1 1 1 1 2 3 1 2 3   1 3 2 1 1 1 1
 EXTRA SYMMETRY OF MOS IN SYMMETRY 7:   1 1 1 1 1 2 3 1 2 3   1 3 2 1 1 1 1

 Natural orbital dump (state averaged) at molpro section  5202.2    (Orbital set 2)


 CI vector for state symmetry 1
 ==============================

 22 a a a          1.0000000

 TOTAL ENERGIES                      -144.93934333

 CI vector for state symmetry 2
 ==============================

 a2 2 a a          1.0000000   0.0000000   0.0000000
 aa a 2 2          0.0000000   0.8944272   0.4472136
 2a 2 a a          0.0000000  -0.4472136   0.8944272

 TOTAL ENERGIES                      -144.93934333  -144.93934333  -144.85494301

 CI vector for state symmetry 3
 ==============================

 a2 a 2 a          0.0533979   0.6301973   0.7745967
 aa 2 a 2          0.7508260   0.4860662  -0.4472136
 2a a 2 a         -0.6583380   0.6054676  -0.4472136

 TOTAL ENERGIES                      -144.93934333  -144.93934333  -144.85494301

 CI vector for state symmetry 4
 ==============================

 a2 a a 2          0.0537705   0.6301656   0.7745967
 aa 2 2 a          0.7511132   0.4856222  -0.4472136
 2a a a 2          0.6579800  -0.6058567   0.4472136

 TOTAL ENERGIES                      -144.93934333  -144.93934333  -144.85494301



 **********************************************************************************************************************************
 DATASETS  * FILE   NREC   LENGTH (MB)   RECORD NAMES
              1      21       97.64       500      610      700      900      950      970     1000      129      960     1100   
                                          VAR    BASINP    GEOM    SYMINP    ZMAT    AOBASIS   BASIS     P2S    ABASIS      S 
                                         1400     1410     1420     1200     1210     1080     1600     1650     1300     1700   
                                         EKIN       V       ECP      H0       H01     AOSYM     SMH    MOLCAS    ERIS     OPER   
                                         1380   
                                         JKOP   

              2       5        5.66       700     1000      520     4202     5202   
                                         GEOM     BASIS   MCVARS     RHF     MCSCF   

 PROGRAMS   *        TOTAL     MULTI       POP       RHF       INT
 CPU TIMES  *        16.87      1.23      0.00      1.40     14.11
 REAL TIME  *        21.77 SEC
 DISK USED  *       347.76 MB      
 **********************************************************************************************************************************


 PROGRAM * RHF-SCF (OPEN SHELL)       Authors: W. Meyer, H.-J. Werner


 NUMBER OF ELECTRONS:      10+    7-    SPACE SYMMETRY=1    SPIN SYMMETRY: Quartet 
 CONVERGENCE THRESHOLDS:    1.00E-05 (Density)    1.00E-07 (Energy)
 MAX. NUMBER OF ITERATIONS:        0
 INTERPOLATION TYPE:            DIIS
 INTERPOLATION STEPS:              2 (START)      1 (STEP)
 LEVEL SHIFTS:                 -0.60 (CLOSED) -0.30 (OPEN) 


 Singly occupied orbitals:      1.4       1.6       1.7
 Molecular orbitals read from record     5202.2  Type=MCSCF/NATURAL (state averaged)

 Molecular orbital dump at record        2101.2

 ITERATION    DDIFF          GRAD             ENERGY        2-EL.EN.            DIPOLE MOMENTS         DIIS   ORB.
    1      0.000D+00      0.000D+00      -144.93934333    224.240585    0.00000    0.00000    0.00000    0    start

 Final alpha occupancy:   4   1   1   1   1   1   1   0
 Final beta  occupancy:   4   1   1   0   1   0   0   0

 !RHF STATE 1.1 Energy               -144.939343328182
 Nuclear energy                         0.00000000
 One-electron energy                 -257.05963583
 Two-electron energy                  112.12029250
 Virial quotient                       -1.62304042
 !RHF STATE 1.1 Dipole moment           0.00000000     0.00000000     0.00000000
 Dipole moment /Debye                   0.00000000     0.00000000     0.00000000
 

 !RHF expec          <1.1|EKIN|1.1>    89.301129752144
 
 !RHF expec           <1.1|POT|1.1>   -21.242889188018

 ELECTRON ORBITALS
 =================


   Orb  Occ    Energy  Couls-En    Coefficients

                                   1 1s      1 1s      1 1s      1 1s      1 1s      1 1s      1 1s      1 1s      1 1s      1 1s   
                                   1 1s      1 1s      1 1s      1 1s      1 1s      1 1s      1 1s      1 1s      1 1s      1 1s   
                                   1 1s      1 1s      1 1s      1 3d0     1 3d2+    1 3d0     1 3d2+    1 3d0     1 3d2+    1 3d0  
                                   1 3d2+    1 3d0     1 3d2+    1 3d0     1 3d2+    1 3d0     1 3d2+    1 3d0     1 3d2+    1 3d0  
                                   1 3d2+    1 3d0     1 3d2+    1 3d0     1 3d2+    1 5g0     1 5g4+    1 5g2+    1 5g0     1 5g4+ 
                                   1 5g2+    1 5g0     1 5g4+    1 5g2+ 

   1.1   2    -4.7074  -24.1100  0.000000  0.000000  0.000000  0.000004 -0.000004  0.000065 -0.000085  0.000652 -0.001135  0.005055
                                -0.013791  0.054301 -0.007260 -0.534790  0.041868  0.849343  0.373826  0.011351 -0.005483  0.002147
                                 0.176076 -0.089500 -0.000553  0.000000  0.000000  0.000000  0.000000  0.000000  0.000000  0.000000
                                 0.000000  0.000000  0.000000  0.000000  0.000000  0.000000  0.000000  0.000000  0.000000  0.000000
                                 0.000000  0.000000  0.000000  0.000000  0.000000  0.000000  0.000000  0.000000  0.000000  0.000000
                                 0.000000  0.000000  0.000000  0.000000

   2.1   2    -0.2726   -6.4940 -0.000000 -0.000000 -0.000000 -0.000001  0.000001 -0.000015  0.000020 -0.000156  0.000266 -0.001208
                                 0.003294 -0.013341  0.003707  0.132585 -0.018781 -0.237908 -0.221767  0.348132  0.553475  0.254758
                                -0.043965 -0.005881 -0.001545  0.000000  0.000000  0.000000  0.000000  0.000000  0.000000  0.000000
                                 0.000000  0.000000  0.000000  0.000000  0.000000  0.000000  0.000000  0.000000  0.000000  0.000000
                                 0.000000  0.000000  0.000000  0.000000  0.000000  0.000000  0.000000  0.000000  0.000000  0.000000
                                 0.000000  0.000000  0.000000  0.000000

   3.1   2    -0.3678  -14.7128  0.000000  0.000000  0.000000  0.000000  0.000000  0.000000  0.000000  0.000000  0.000000  0.000000
                                 0.000000  0.000000  0.000000  0.000000  0.000000  0.000000  0.000000  0.000000  0.000000  0.000000
                                 0.000000  0.000000  0.000000  0.000000 -0.002106  0.000000 -0.025763  0.000000 -0.107589  0.000000
                                -0.222760  0.000000 -0.427441  0.000000 -0.363503  0.000000 -0.213359  0.000000 -0.037841  0.000000
                                -0.029098  0.000000  0.063648  0.000000  0.002016  0.000000  0.000000  0.000000  0.000000  0.000000
                                 0.000000  0.000000  0.000000  0.000000

   4.1   2    -0.3678  -14.7128  0.000000  0.000000  0.000000  0.000000  0.000000  0.000000  0.000000  0.000000  0.000000  0.000000
                                 0.000000  0.000000  0.000000  0.000000  0.000000  0.000000  0.000000  0.000000  0.000000  0.000000
                                 0.000000  0.000000  0.000000  0.002106  0.000000  0.025763  0.000000  0.107589  0.000000  0.222760
                                 0.000000  0.427441  0.000000  0.363503  0.000000  0.213359  0.000000  0.037841  0.000000  0.029098
                                 0.000000 -0.063648  0.000000 -0.002016  0.000000  0.000000  0.000000  0.000000  0.000000  0.000000
                                 0.000000  0.000000  0.000000  0.000000

                                   1 2px     1 2px     1 2px     1 2px     1 2px     1 2px     1 2px     1 2px     1 2px     1 2px  
                                   1 2px     1 2px     1 2px     1 2px     1 2px     1 2px     1 2px     1 2px     1 2px     1 4f1+ 
                                   1 4f3+    1 4f1+    1 4f3+    1 4f1+    1 4f3+    1 4f1+    1 4f3+ 

   1.2   2    -3.0312  -20.5974  0.000001 -0.000001  0.000027 -0.000021  0.000448 -0.000643  0.005808 -0.006207 -0.092748  0.027116
                                 0.344576  0.426146  0.273676  0.038626 -0.002669  0.001576  0.011646  0.031157 -0.000465  0.000000
                                 0.000000  0.000000  0.000000  0.000000  0.000000  0.000000  0.000000

                                   1 2py     1 2py     1 2py     1 2py     1 2py     1 2py     1 2py     1 2py     1 2py     1 2py  
                                   1 2py     1 2py     1 2py     1 2py     1 2py     1 2py     1 2py     1 2py     1 2py     1 4f1- 
                                   1 4f3-    1 4f1-    1 4f3-    1 4f1-    1 4f3-    1 4f1-    1 4f3- 

   1.3   2    -3.0312  -20.5974  0.000001 -0.000001  0.000027 -0.000021  0.000448 -0.000643  0.005808 -0.006207 -0.092748  0.027116
                                 0.344576  0.426146  0.273676  0.038626 -0.002669  0.001576  0.011646  0.031157 -0.000465  0.000000
                                 0.000000  0.000000  0.000000  0.000000  0.000000  0.000000  0.000000

                                   1 3d2-    1 3d2-    1 3d2-    1 3d2-    1 3d2-    1 3d2-    1 3d2-    1 3d2-    1 3d2-    1 3d2- 
                                   1 3d2-    1 5g2-    1 5g4-    1 5g2-    1 5g4-    1 5g2-    1 5g4- 

   1.4   +    -0.3678  -14.7128  0.002106  0.025763  0.107589  0.222760  0.427441  0.363503  0.213359  0.037841  0.029098 -0.063648
                                -0.002016  0.000000  0.000000  0.000000  0.000000  0.000000  0.000000

                                   1 2pz     1 2pz     1 2pz     1 2pz     1 2pz     1 2pz     1 2pz     1 2pz     1 2pz     1 2pz  
                                   1 2pz     1 2pz     1 2pz     1 2pz     1 2pz     1 2pz     1 2pz     1 2pz     1 2pz     1 4f0  
                                   1 4f2+    1 4f0     1 4f2+    1 4f0     1 4f2+    1 4f0     1 4f2+ 

   1.5   2    -3.0312  -20.5974  0.000001 -0.000001  0.000027 -0.000021  0.000448 -0.000643  0.005808 -0.006207 -0.092748  0.027116
                                 0.344576  0.426146  0.273676  0.038626 -0.002669  0.001576  0.011646  0.031157 -0.000465  0.000000
                                 0.000000  0.000000  0.000000  0.000000  0.000000  0.000000  0.000000

                                   1 3d1+    1 3d1+    1 3d1+    1 3d1+    1 3d1+    1 3d1+    1 3d1+    1 3d1+    1 3d1+    1 3d1+ 
                                   1 3d1+    1 5g1+    1 5g3+    1 5g1+    1 5g3+    1 5g1+    1 5g3+ 

   1.6   +    -0.3678  -14.7128  0.002106  0.025763  0.107589  0.222760  0.427441  0.363503  0.213359  0.037841  0.029098 -0.063648
                                -0.002016  0.000000  0.000000  0.000000  0.000000  0.000000  0.000000

                                   1 3d1-    1 3d1-    1 3d1-    1 3d1-    1 3d1-    1 3d1-    1 3d1-    1 3d1-    1 3d1-    1 3d1- 
                                   1 3d1-    1 5g1-    1 5g3-    1 5g1-    1 5g3-    1 5g1-    1 5g3- 

   1.7   +    -0.3678  -14.7128  0.002106  0.025763  0.107589  0.222760  0.427441  0.363503  0.213359  0.037841  0.029098 -0.063648
                                -0.002016  0.000000  0.000000  0.000000  0.000000  0.000000  0.000000

 HOMO      4.1    -0.367816 =     -10.0088eV
 LUMO      2.2     0.023666 =       0.6440eV
 LUMO-HOMO         0.391483 =      10.6528eV


 **********************************************************************************************************************************
 DATASETS  * FILE   NREC   LENGTH (MB)   RECORD NAMES
              1      21       97.64       500      610      700      900      950      970     1000      129      960     1100   
                                          VAR    BASINP    GEOM    SYMINP    ZMAT    AOBASIS   BASIS     P2S    ABASIS      S 
                                         1400     1410     1420     1200     1210     1080     1600     1650     1300     1700   
                                         EKIN       V       ECP      H0       H01     AOSYM     SMH    MOLCAS    ERIS     OPER   
                                         1380   
                                         JKOP   

              2       6        8.61       700     1000      520     4202     5202     2101   
                                         GEOM     BASIS   MCVARS     RHF     MCSCF     RHF  

 PROGRAMS   *        TOTAL       RHF     MULTI       POP       RHF       INT
 CPU TIMES  *        16.95      0.08      1.23      0.00      1.40     14.11
 REAL TIME  *        22.02 SEC
 DISK USED  *       347.76 MB      
 **********************************************************************************************************************************
 SETTING SCF(I)         =      -144.93934333  AU                              
 SETTING _CC_NORM_MAX   =         2.00000000                                  


 PROGRAM * CCSD (Restricted open-shell coupled cluster)     Authors: C. Hampel, H.-J. Werner, 1991, M. Deegan, P.J. Knowles, 1992


 Convergence thresholds:  THRVAR = 1.00D-08  THRDEN = 1.00D-06

 CCSD(T)     terms to be evaluated (factor= 1.000)


 Number of closed-shell orbitals:   7 (   4   1   1   0   1   0   0   0 )
 Number of active  orbitals:        3 (   0   0   0   1   0   1   1   0 )
 Number of external orbitals:     180 (  50  26  26  16  26  16  16   4 )

 Memory could be reduced to 15.44 Mwords without degradation in triples

 Number of N-1 electron functions:              17
 Number of N-2 electron functions:             136
 Number of singly external CSFs:               607
 Number of doubly external CSFs:            459974
 Total number of CSFs:                      460581

 Molecular orbitals read from record     2101.2  Type=RHF/CANONICAL (state 1.1)

 Integral transformation finished. Total CPU:   0.45 sec, npass=  1  Memory used:   2.63 MW

 Starting RMP2 calculation

 Wavefunction is spin-projected

 ITER.      SQ.NORM     CORR.ENERGY   TOTAL ENERGY   ENERGY CHANGE        DEN1      VAR(S)    VAR(P)  DIIS     TIME
   1      1.10592035    -0.74096773  -145.68031106    -0.74096773    -0.00137662  0.72D-05  0.82D-03  1  1     0.49
   2      1.10803076    -0.74243117  -145.68177450    -0.00146344    -0.00001758  0.15D-06  0.17D-04  2  2     0.53
   3      1.10835929    -0.74256038  -145.68190371    -0.00012921    -0.00000009  0.12D-07  0.79D-07  3  3     0.56
   4      1.10837410    -0.74256390  -145.68190723    -0.00000352    -0.00000000  0.70D-09  0.73D-09  4  4     0.59
   5      1.10837418    -0.74256383  -145.68190716     0.00000007    -0.00000000  0.19D-10  0.18D-10  5  5     0.62

 Norm of t1 vector:      0.04620797      S-energy:    -0.00981529      T1 diagnostic:  0.00518383
 Norm of t2 vector:      0.32594325      P-energy:    -0.73274854
                                         Alpha-Beta:  -0.51160525
                                         Alpha-Alpha: -0.15438307
                                         Beta-Beta:   -0.06676022

 Spin contamination <S**2-Sz**2-Sz>     0.00000000
  Reference energy                   -144.939343328182
  RHF-RMP2 correlation energy          -0.742563827936
 !RHF-RMP2 energy                    -145.681907156118
 (NB above energy spin projected)

 Starting RCCSD calculation

 ITER.      SQ.NORM     CORR.ENERGY   TOTAL ENERGY   ENERGY CHANGE        DEN1      VAR(S)    VAR(P)  DIIS     TIME
   1      1.10400050    -0.70488594  -145.64422926    -0.70488594    -0.01770719  0.43D-02  0.32D-02  1  1     1.64
   2      1.11813920    -0.71941154  -145.65875487    -0.01452561    -0.00187922  0.61D-03  0.76D-03  2  2     2.69
   3      1.12813064    -0.72213845  -145.66148178    -0.00272691    -0.00033994  0.21D-03  0.11D-03  3  3     3.69
   4      1.13417874    -0.72382162  -145.66316495    -0.00168317    -0.00003982  0.22D-04  0.13D-04  4  4     4.72
   5      1.13676169    -0.72432215  -145.66366548    -0.00050053    -0.00000253  0.16D-05  0.76D-06  5  5     5.81
   6      1.13716190    -0.72437227  -145.66371560    -0.00005012    -0.00000025  0.88D-07  0.11D-06  6  6     6.91
   7      1.13721832    -0.72438050  -145.66372383    -0.00000822    -0.00000005  0.25D-07  0.18D-07  6  2     7.92
   8      1.13723054    -0.72438132  -145.66372465    -0.00000083    -0.00000000  0.71D-09  0.25D-08  6  1     8.94

 Norm of t1 vector:      0.13098176      S-energy:    -0.01053718      T1 diagnostic:  0.02059636
                                                                       D1 diagnostic:  0.06483425
 Norm of t2 vector:      0.34651742      P-energy:    -0.71384415
                                         Alpha-Beta:  -0.51709736
                                         Alpha-Alpha: -0.13532696
                                         Beta-Beta:   -0.06141983

 Singles amplitudes (print threshold =  0.500E-01):

         I         SYM. A    A   T(IA) [Alpha-Alpha]

         2         1         4     -0.06025701

 Doubles amplitudes (print threshold =  0.500E-01):

         I         J         SYM. A    SYM. B    A         B      T(IJ, AB) [Alpha-Beta]

         2         2         2         2         2         2     -0.05573605
         2         2         3         3         2         2     -0.05573605
         2         2         5         5         2         2     -0.05573605

 Spin contamination <S**2-Sz**2-Sz>     0.00000000

 Memory could be reduced to 16.05 Mwords without degradation in triples
 

  Correlated core orbitals:             1.1       1.2       1.3       1.5
  Orbital energies:                    -4.8534   -3.2082   -3.2082   -3.2082
 
  RCCSD core-core energy               -0.146514337088
  RCCSD core-valence energy            -0.311972269803
  RCCSD valence correlation energy     -0.265894717471
 

 RESULTS
 =======

  Reference energy                   -144.939343328182
  RCCSD singles energy                 -0.010537175210
  RCCSD pair energy                    -0.713844149153
  RCCSD correlation energy             -0.724381324363
  Triples (T) contribution             -0.021939246132
  Total correlation energy             -0.746320570495
 
  RHF-RCCSD energy                   -145.663724652545
  RHF-RCCSD[T] energy                -145.686784015830
  RHF-RCCSD-T energy                 -145.685324091071
 !RHF-RCCSD(T) energy                -145.685663898676

 Program statistics:

 Available memory in ccsd:               511999000
 Min. memory needed in ccsd:               1425601
 Max. memory used in ccsd:                 1980866
 Max. memory used in cckext:               1545419 ( 8 integral passes)
 Max. memory used in cckint:               2632281 ( 1 integral passes)



 **********************************************************************************************************************************
 DATASETS  * FILE   NREC   LENGTH (MB)   RECORD NAMES
              1      21       97.64       500      610      700      900      950      970     1000      129      960     1100   
                                          VAR    BASINP    GEOM    SYMINP    ZMAT    AOBASIS   BASIS     P2S    ABASIS      S 
                                         1400     1410     1420     1200     1210     1080     1600     1650     1300     1700   
                                         EKIN       V       ECP      H0       H01     AOSYM     SMH    MOLCAS    ERIS     OPER   
                                         1380   
                                         JKOP   

              2       6        8.61       700     1000      520     4202     5202     2101   
                                         GEOM     BASIS   MCVARS     RHF     MCSCF     RHF  

 PROGRAMS   *        TOTAL  RCCSD(T)       RHF     MULTI       POP       RHF       INT
 CPU TIMES  *        51.29     34.34      0.08      1.23      0.00      1.40     14.11
 REAL TIME  *        63.86 SEC
 DISK USED  *       372.25 MB      
 **********************************************************************************************************************************
 SETTING POSTHF(I)      =      -145.68566390  AU                              
                                                                                                                                                                                                                                                                

         SCF            POSTHF       EKIN           POT
    -144.9393433   -145.6856639   89.30112975   -21.24288919
                                                  

 RCCSD(T)/USERDEF energy=   -145.685663898676

        RCCSD(T)        RHF-SCF         MULTI           RHF-SCF 
   -145.68566390   -144.93934333   -144.85494301   -144.94325579
 **********************************************************************************************************************************
 Variable memory released
