----- GAMESS execution script 'rungms' -----
This job is running on host c472-051.stampede2.tacc.utexas.edu
under operating system Linux at Tue Oct 2 06:16:09 CDT 2018
Available scratch disk space (Kbyte units) at beginning of the job is
Filesystem               1K-blocks  Used Available Use% Mounted on
/dev/mapper/rootvg01-tmp 111414116 36624 111377492   1% /tmp
GAMESS temporary binary files will be written to /tmp
GAMESS supplementary output files will be written to /work/04843/aannabe/stampede2/docs/totals/Cl/TZ
Copying input file Cl.inp to your run's scratch directory...

 Distributed Data Interface kickoff program.
 Initiating 1 compute processes on 1 nodes to run the following command:
 /work/04843/aannabe/stampede2/codes/gamess-mcb/gamess/gamess.00.x Cl 

          ******************************************************
          *         GAMESS VERSION =  1 MAY 2013 (R1)          *
          *             FROM IOWA STATE UNIVERSITY             *
          * M.W.SCHMIDT, K.K.BALDRIDGE, J.A.BOATZ, S.T.ELBERT, *
          *   M.S.GORDON, J.H.JENSEN, S.KOSEKI, N.MATSUNAGA,   *
          *          K.A.NGUYEN, S.J.SU, T.L.WINDUS,           *
          *       TOGETHER WITH M.DUPUIS, J.A.MONTGOMERY       *
          *         J.COMPUT.CHEM.  14, 1347-1363(1993)        *
          **************** 64 BIT INTEL VERSION ****************

  SINCE 1993, STUDENTS AND POSTDOCS WORKING AT IOWA STATE UNIVERSITY
  AND ALSO IN THEIR VARIOUS JOBS AFTER LEAVING ISU HAVE MADE IMPORTANT
  CONTRIBUTIONS TO THE CODE:
     IVANA ADAMOVIC, CHRISTINE AIKENS, YURI ALEXEEV, POOJA ARORA,
     ANDREY ASADCHEV, ROB BELL, PRADIPTA BANDYOPADHYAY, JONATHAN BENTZ,
     BRETT BODE, GALINA CHABAN, WEI CHEN, CHEOL HO CHOI, PAUL DAY,
     ALBERT DEFUSCO, TIM DUDLEY, DMITRI FEDOROV, GRAHAM FLETCHER,
     MARK FREITAG, KURT GLAESEMANN, DAN KEMP, GRANT MERRILL,
     NORIYUKI MINEZAWA, JONATHAN MULLIN, TAKESHI NAGATA,
     SEAN NEDD, HEATHER NETZLOFF, BOSILJKA NJEGIC, RYAN OLSON, MIKE PAK,
     JIM SHOEMAKER, LYUDMILA SLIPCHENKO, SAROM SOK, JIE SONG,
     TETSUYA TAKETSUGU, SIMON WEBB, SOOHAENG YOO, FEDERICO ZAHARIEV

  ADDITIONAL CODE HAS BEEN PROVIDED BY COLLABORATORS IN OTHER GROUPS:
     IOWA STATE UNIVERSITY:
          JOE IVANIC, LAIMUTIS BYTAUTAS, KLAUS RUEDENBERG
     UNIVERSITY OF TOKYO: KIMIHIKO HIRAO, TAKAHITO NAKAJIMA,
          TAKAO TSUNEDA, MUNEAKI KAMIYA, SUSUMU YANAGISAWA,
          KIYOSHI YAGI, MAHITO CHIBA, SEIKEN TOKURA, NAOAKI KAWAKAMI
     UNIVERSITY OF AARHUS: FRANK JENSEN
     UNIVERSITY OF IOWA: VISVALDAS KAIRYS, HUI LI
     NATIONAL INST. OF STANDARDS AND TECHNOLOGY: WALT STEVENS, DAVID GARMER
     UNIVERSITY OF PISA: BENEDETTA MENNUCCI, JACOPO TOMASI
     UNIVERSITY OF MEMPHIS: HENRY KURTZ, PRAKASHAN KORAMBATH
     UNIVERSITY OF ALBERTA: TOBY ZENG, MARIUSZ KLOBUKOWSKI
     UNIVERSITY OF NEW ENGLAND: MARK SPACKMAN
     MIE UNIVERSITY: HIROAKI UMEDA
     MICHIGAN STATE UNIVERSITY:
          KAROL KOWALSKI, MARTA WLOCH, JEFFREY GOUR, JESSE LUTZ,
          WEI LI, PIOTR PIECUCH
     UNIVERSITY OF SILESIA: MONIKA MUSIAL, STANISLAW KUCHARSKI
     FACULTES UNIVERSITAIRES NOTRE-DAME DE LA PAIX:
          OLIVIER QUINET, BENOIT CHAMPAGNE
     UNIVERSITY OF CALIFORNIA - SANTA BARBARA: BERNARD KIRTMAN
     INSTITUTE FOR MOLECULAR SCIENCE:
          KAZUYA ISHIMURA, MICHIO KATOUDA, AND SHIGERU NAGASE
     UNIVERSITY OF NOTRE DAME: DAN CHIPMAN
     KYUSHU UNIVERSITY:
          HARUYUKI NAKANO,
          FENG LONG GU, JACEK KORCHOWIEC, MARCIN MAKOWSKI, AND YURIKO AOKI,
          HIROTOSHI MORI AND EISAKU MIYOSHI
     PENNSYLVANIA STATE UNIVERSITY:
          TZVETELIN IORDANOV, CHET SWALINA, JONATHAN SKONE,
          SHARON HAMMES-SCHIFFER
     WASEDA UNIVERSITY:
          MASATO KOBAYASHI, TOMOKO AKAMA, TSUGUKI TOUMA,
          TAKESHI YOSHIKAWA, YASUHIRO IKABATA, HIROMI NAKAI
     NANJING UNIVERSITY: SHUHUA LI
     UNIVERSITY OF NEBRASKA:
          PEIFENG SU, DEJUN SI, NANDUN THELLAMUREGE, YALI WANG, HUI LI
     UNIVERSITY OF ZURICH:
          ROBERTO PEVERATI, KIM BALDRIDGE
     N. COPERNICUS UNIVERSITY AND JACKSON STATE UNIVERSITY:
          MARIA BARYSZ

 EXECUTION OF GAMESS BEGUN Tue Oct  2 06:16:10 2018

            ECHO OF THE FIRST FEW INPUT CARDS -
 INPUT CARD> $CONTRL                                                                        
 INPUT CARD>     SCFTYP=ROHF                                                                
 INPUT CARD>     MULT=2                                                                     
 INPUT CARD>     ICHARG=0                                                                   
 INPUT CARD>     RUNTYP=ENERGY                                                              
 INPUT CARD>     MAXIT=150                                                                  
 INPUT CARD>     ECP=READ                                                                   
 INPUT CARD>     ISPHER=1                                                                   
 INPUT CARD> $END                                                                           
 INPUT CARD>                                                                                
 INPUT CARD> $SYSTEM                                                                        
 INPUT CARD>     KDIAG=3                                                                    
 INPUT CARD> $END                                                                           
 INPUT CARD>                                                                                
 INPUT CARD> $GUESS                                                                         
 INPUT CARD>    GUESS=HUCKEL                                                                
 INPUT CARD> $END                                                                           
 INPUT CARD>                                                                                
 INPUT CARD>                                                                                
 INPUT CARD> $DATA                                                                          
 INPUT CARD>                                                                                
 INPUT CARD>C1                                                                              
 INPUT CARD>Cl 17    0. 0. 0.                                                               
 INPUT CARD>S  10                                                                           
 INPUT CARD>  1 15.583847  0.002501                                                         
 INPUT CARD>  2  8.858485 -0.010046                                                         
 INPUT CARD>  3  5.035519  0.085810                                                         
 INPUT CARD>  4  2.862391 -0.290136                                                         
 INPUT CARD>  5  1.627098 -0.140314                                                         
 INPUT CARD>  6  0.924908  0.146839                                                         
 INPUT CARD>  7  0.525755  0.392484                                                         
 INPUT CARD>  8  0.298860  0.425061                                                         
 INPUT CARD>  9  0.169884  0.227195                                                         
 INPUT CARD> 10  0.096569  0.059828                                                         
 INPUT CARD>S   1                                                                           
 INPUT CARD>  1  1.020976  1.000000                                                         
 INPUT CARD>S   1                                                                           
 INPUT CARD>  1  0.186161  1.000000                                                         
 INPUT CARD>P  10                                                                           
 INPUT CARD>  1  7.682894 -0.004609                                                         
 INPUT CARD>  2  4.507558 -0.001798                                                         
 INPUT CARD>  3  2.644587 -0.068614                                                         
 INPUT CARD>  4  1.551581  0.062352                                                         
 INPUT CARD>  5  0.910313  0.166337                                                         
 INPUT CARD>  6  0.534081  0.282292                                                         
 INPUT CARD>  7  0.313346  0.275967                                                         
 INPUT CARD>  8  0.183840  0.241328                                                         
 INPUT CARD>  9  0.107859  0.110223                                                         
 INPUT CARD> 10  0.063281  0.040289                                                         
 INPUT CARD>P   1                                                                           
    1000000 WORDS OF MEMORY AVAILABLE


     RUN TITLE
     ---------
                                                                                 

 THE POINT GROUP OF THE MOLECULE IS C1      
 THE ORDER OF THE PRINCIPAL AXIS IS     0

 ATOM      ATOMIC                      COORDINATES (BOHR)
           CHARGE         X                   Y                   Z
 CL         17.0     0.0000000000        0.0000000000        0.0000000000

          INTERNUCLEAR DISTANCES (ANGS.)
          ------------------------------

                1 CL    

   1 CL      0.0000000  

  * ... LESS THAN  3.000


     ATOMIC BASIS SET
     ----------------
 THE CONTRACTED PRIMITIVE FUNCTIONS HAVE BEEN UNNORMALIZED
 THE CONTRACTED BASIS FUNCTIONS ARE NOW NORMALIZED TO UNITY

  SHELL TYPE  PRIMITIVE        EXPONENT          CONTRACTION COEFFICIENT(S)

 CL        

      1   S       1            15.5838470    0.002501000214
      1   S       2             8.8584850   -0.010046000858
      1   S       3             5.0355190    0.085810007332
      1   S       4             2.8623910   -0.290136024790
      1   S       5             1.6270980   -0.140314011989
      1   S       6             0.9249080    0.146839012546
      1   S       7             0.5257550    0.392484033535
      1   S       8             0.2988600    0.425061036318
      1   S       9             0.1698840    0.227195019412
      1   S      10             0.0965690    0.059828005112

      2   S      11             1.0209760    1.000000000000

      3   S      12             0.1861610    1.000000000000

      4   P      13             7.6828940   -0.004609000509
      4   P      14             4.5075580   -0.001798000199
      4   P      15             2.6445870   -0.068614007584
      4   P      16             1.5515810    0.062352006892
      4   P      17             0.9103130    0.166337018385
      4   P      18             0.5340810    0.282292031202
      4   P      19             0.3133460    0.275967030503
      4   P      20             0.1838400    0.241328026674
      4   P      21             0.1078590    0.110223012183
      4   P      22             0.0632810    0.040289004453

      5   P      23             0.8992350    1.000000000000

      6   P      24             0.1436690    1.000000000000

      7   D      25             1.1723710    1.000000000000

      8   D      26             0.3632540    1.000000000000

      9   F      27             0.7204530    1.000000000000

 TOTAL NUMBER OF BASIS SET SHELLS             =    9
 NUMBER OF CARTESIAN GAUSSIAN BASIS FUNCTIONS =   34
 NOTE: THIS RUN WILL RESTRICT THE MO VARIATION SPACE TO SPHERICAL HARMONICS.
 THE NUMBER OF ORBITALS KEPT IN THE VARIATIONAL SPACE WILL BE PRINTED LATER.
 NUMBER OF ELECTRONS                          =   17
 CHARGE OF MOLECULE                           =    0
 SPIN MULTIPLICITY                            =    2
 NUMBER OF OCCUPIED ORBITALS (ALPHA)          =    9
 NUMBER OF OCCUPIED ORBITALS (BETA )          =    8
 TOTAL NUMBER OF ATOMS                        =    1
 THE NUCLEAR REPULSION ENERGY IS        0.0000000000
 NOTE THIS RUN IS USING CORE POTENTIALS, AND THE NUMBER OF ELECTRONS,
 OCCUPIED ORBITALS, AND NUCLEAR REPULSION ENERGY WILL BE ADJUSTED BELOW
 AFTER REMOVAL OF THE CORE CHARGES.

 THIS MOLECULE IS RECOGNIZED AS BEING LINEAR,
 ORBITAL LZ DEGENERACY TOLERANCE ETOLLZ= 1.00E-06

     $CONTRL OPTIONS
     ---------------
 SCFTYP=ROHF         RUNTYP=ENERGY       EXETYP=RUN     
 MPLEVL=       0     CITYP =NONE         CCTYP =NONE         VBTYP =NONE    
 DFTTYP=NONE         TDDFT =NONE    
 MULT  =       2     ICHARG=       0     NZVAR =       0     COORD =UNIQUE  
 PP    =READ         RELWFN=NONE         LOCAL =NONE         NUMGRD=       F
 ISPHER=       1     NOSYM =       0     MAXIT =     150     UNITS =ANGS    
 PLTORB=       F     MOLPLT=       F     AIMPAC=       F     FRIEND=        
 NPRINT=       7     IREST =       0     GEOM  =INPUT   
 NORMF =       0     NORMP =       0     ITOL  =      20     ICUT  =       9
 INTTYP=BEST         GRDTYP=BEST         QMTTOL= 1.0E-06

     $SYSTEM OPTIONS
     ---------------
  REPLICATED MEMORY=     1000000 WORDS (ON EVERY NODE).
 DISTRIBUTED MEMDDI=           0 MILLION WORDS IN AGGREGATE,
 MEMDDI DISTRIBUTED OVER   1 PROCESSORS IS           0 WORDS/PROCESSOR.
 TOTAL MEMORY REQUESTED ON EACH PROCESSOR=     1000000 WORDS.
 TIMLIM=      525600.00 MINUTES, OR     365.0 DAYS.
 PARALL= F  BALTYP=  DLB     KDIAG=    3  COREFL= F
 MXSEQ2=     300 MXSEQ3=     150

          --------------
          ECP POTENTIALS
          --------------

 PARAMETERS FOR "CL-CCECP" ON ATOM    1 WITH ZCORE  10 AND LMAX  2 ARE
 FOR L= 2      COEFF    N           ZETA
    1        7.00000    1        7.94435
    2       55.61046    3       12.80126
    3      -22.86078    2        6.29674
 FOR L= 0      COEFF    N           ZETA
    1       15.83923    2       17.90843
    2       44.46950    2        4.15988
 FOR L= 1      COEFF    N           ZETA
    1        8.32195    2        7.93176
    2       24.04474    2        3.61041

 THE ECP RUN REMOVES   10 CORE ELECTRONS, AND THE SAME NUMBER OF PROTONS.
 NUMBER OF ELECTRONS KEPT IN THE CALCULATION IS =    7
 NUMBER OF OCCUPIED ORBITALS (ALPHA) KEPT IS    =    4
 NUMBER OF OCCUPIED ORBITALS (BETA ) KEPT IS    =    3
 THE ADJUSTED NUCLEAR REPULSION ENERGY=        0.0000000000
          ECP ANGULAR INTS.........     0.01 SECONDS

          ----------------
          PROPERTIES INPUT
          ----------------

     MOMENTS            FIELD           POTENTIAL          DENSITY
 IEMOM =       1   IEFLD =       0   IEPOT =       0   IEDEN =       0
 WHERE =COMASS     WHERE =NUCLEI     WHERE =NUCLEI     WHERE =NUCLEI  
 OUTPUT=BOTH       OUTPUT=BOTH       OUTPUT=BOTH       OUTPUT=BOTH    
 IEMINT=       0   IEFINT=       0                     IEDINT=       0
                                                       MORB  =       0
          EXTRAPOLATION IN EFFECT
          SOSCF IN EFFECT
 ORBITAL PRINTING OPTION: NPREO=     1    34     2     1

     -------------------------------
     INTEGRAL TRANSFORMATION OPTIONS
     -------------------------------
     NWORD  =            0
     CUTOFF = 1.0E-09     MPTRAN =       0
     DIRTRF =       F     AOINTS =DUP     

          ----------------------
          INTEGRAL INPUT OPTIONS
          ----------------------
 NOPK  =       1 NORDER=       0 SCHWRZ=       F

     ------------------------------------------
     THE POINT GROUP IS C1 , NAXIS= 0, ORDER= 1
     ------------------------------------------

 -- VARIATIONAL SPACE WILL BE RESTRICTED TO PURE SPHERICAL HARMONICS ONLY --
 AFTER EXCLUDING CONTAMINANT COMBINATIONS FROM THE CARTESIAN GAUSSIAN BASIS
 SET, THE NUMBER OF SPHERICAL HARMONICS KEPT IN THE VARIATION SPACE IS   29

     DIMENSIONS OF THE SYMMETRY SUBSPACES ARE
 A   =   29

 ..... DONE SETTING UP THE RUN .....
 STEP CPU TIME =     0.11 TOTAL CPU TIME =        0.1 (    0.0 MIN)
 TOTAL WALL CLOCK TIME=        0.4 SECONDS, CPU UTILIZATION IS  27.27%

          ********************
          1 ELECTRON INTEGRALS
          ********************
 TIME TO DO ORDINARY INTEGRALS=      0.01
 TIME TO DO      ECP INTEGRALS=      0.01
 ...... END OF ONE-ELECTRON INTEGRALS ......
 STEP CPU TIME =     0.02 TOTAL CPU TIME =        0.1 (    0.0 MIN)
 TOTAL WALL CLOCK TIME=        0.6 SECONDS, CPU UTILIZATION IS  24.14%

          -------------
          GUESS OPTIONS
          -------------
          GUESS =HUCKEL            NORB  =       0          NORDER=       0
          MIX   =       F          PRTMO =       F          PUNMO =       F
          TOLZ  = 1.0E-08          TOLE  = 1.0E-05
          SYMDEN=       F          PURIFY=       F

 INITIAL GUESS ORBITALS GENERATED BY HUCKEL   ROUTINE.
 HUCKEL GUESS REQUIRES      9416 WORDS.

 STATISTICS FOR GENERATION OF SYMMETRY ORBITAL -Q- MATRIX
 NUMBER OF CARTESIAN ATOMIC ORBITALS=         34
 NUMBER OF SPHERICAL CONTAMINANTS DROPPED=     5
 NUMBER OF LINEARLY DEPENDENT MOS DROPPED=     0
 TOTAL NUMBER OF MOS IN VARIATION SPACE=      29

 SYMMETRIES FOR INITIAL GUESS ORBITALS FOLLOW.  ALPHA SET(S).
     4 ORBITALS ARE OCCUPIED (    0 CORE ORBITALS).
     1=A        2=A        3=A        4=A        5=A        6=A        7=A   
     8=A        9=A       10=A       11=A       12=A       13=A       14=A   

 SYMMETRIES FOR INITIAL GUESS ORBITALS FOLLOW.   BETA SET(S).
     3 ORBITALS ARE OCCUPIED (    0 CORE ORBITALS).
     1=A        2=A        3=A        4=A        5=A        6=A        7=A   
     8=A        9=A       10=A       11=A       12=A       13=A   
 ...... END OF INITIAL ORBITAL SELECTION ......
 STEP CPU TIME =     0.01 TOTAL CPU TIME =        0.1 (    0.0 MIN)
 TOTAL WALL CLOCK TIME=        0.7 SECONDS, CPU UTILIZATION IS  21.74%

                    ----------------------
                    AO INTEGRAL TECHNOLOGY
                    ----------------------
     S,P,L SHELL ROTATED AXIS INTEGRALS, REPROGRAMMED BY
        KAZUYA ISHIMURA (IMS) AND JOSE SIERRA (SYNSTAR).
     S,P,D,L SHELL ROTATED AXIS INTEGRALS PROGRAMMED BY
        KAZUYA ISHIMURA (INSTITUTE FOR MOLECULAR SCIENCE).
     S,P,D,F,G SHELL TO TOTAL QUARTET ANGULAR MOMENTUM SUM 5,
        ERIC PROGRAM BY GRAHAM FLETCHER (ELORET AND NASA ADVANCED
        SUPERCOMPUTING DIVISION, AMES RESEARCH CENTER).
     S,P,D,F,G,L SHELL GENERAL RYS QUADRATURE PROGRAMMED BY
        MICHEL DUPUIS (PACIFIC NORTHWEST NATIONAL LABORATORY).

          --------------------
          2 ELECTRON INTEGRALS
          --------------------

 THE -PK- OPTION IS OFF, THE INTEGRALS ARE NOT IN SUPERMATRIX FORM.
 STORING   15000 INTEGRALS/RECORD ON DISK, USING 12 BYTES/INTEGRAL.
 TWO ELECTRON INTEGRAL EVALUATION REQUIRES   99145 WORDS OF MEMORY.
 II,JST,KST,LST =  1  1  1  1 NREC =         1 INTLOC =    1
 II,JST,KST,LST =  2  1  1  1 NREC =         1 INTLOC =    2
 II,JST,KST,LST =  3  1  1  1 NREC =         1 INTLOC =    7
 II,JST,KST,LST =  4  1  1  1 NREC =         1 INTLOC =   22
 II,JST,KST,LST =  5  1  1  1 NREC =         1 INTLOC =   67
 II,JST,KST,LST =  6  1  1  1 NREC =         1 INTLOC =  214
 II,JST,KST,LST =  7  1  1  1 NREC =         1 INTLOC =  571
 II,JST,KST,LST =  8  1  1  1 NREC =         1 INTLOC = 2257
 II,JST,KST,LST =  9  1  1  1 NREC =         1 INTLOC = 6628
 TOTAL NUMBER OF NONZERO TWO-ELECTRON INTEGRALS =               24016
          2 INTEGRAL RECORDS WERE STORED ON DISK FILE  8.
  ...... END OF TWO-ELECTRON INTEGRALS .....
 STEP CPU TIME =     0.15 TOTAL CPU TIME =        0.3 (    0.0 MIN)
 TOTAL WALL CLOCK TIME=        0.9 SECONDS, CPU UTILIZATION IS  32.97%

          ---------------------------
                 ROHF SCF CALCULATION
          ---------------------------

     NUCLEAR ENERGY =         0.0000000000
     MAXIT =150     NPUNCH=  2     MULT=  2
     EXTRAP=T  DAMP=F  SHIFT=F  RSTRCT=F  DIIS=F  SOSCF=T
     DENSITY MATRIX CONV=  1.00E-05
     ROHF CANONICALIZATION PARAMETERS
             C-C     O-O     V-V
     ALPHA -0.5000  0.5000  1.5000
     BETA   1.5000  0.5000 -0.5000
     SOSCF WILL OPTIMIZE     103 ORBITAL ROTATION ANGLES. SOGTOL= 2.500E-01
     MEMORY REQUIRED FOR UHF/ROHF ITERS=     41504 WORDS.

 ITER EX      TOTAL ENERGY        E CHANGE  DENSITY CHANGE    ORB. GRAD 
   1  0      -14.6886121263   -14.6886121263   0.107208965   0.000000000
          ---------------START SECOND ORDER SCF---------------
   2  1      -14.6910029186    -0.0023907922   0.020423539   0.004059929
   3  2      -14.6910554815    -0.0000525630   0.004777570   0.000633839
   4  3      -14.6910577129    -0.0000022313   0.000497571   0.000115222
   5  4      -14.6910577479    -0.0000000350   0.000106814   0.000020670
   6  5      -14.6910577489    -0.0000000011   0.000006565   0.000001437
   7  6      -14.6910577489    -0.0000000000   0.000000510   0.000000191

          -----------------
          DENSITY CONVERGED
          -----------------
     TIME TO FORM FOCK OPERATORS=       0.0 SECONDS (       0.0 SEC/ITER)
     TIME TO SOLVE SCF EQUATIONS=       0.0 SECONDS (       0.0 SEC/ITER)

 FINAL ROHF ENERGY IS      -14.6910577489 AFTER   7 ITERATIONS

          --------------------
          SPIN SZ   =    0.500
          S-SQUARED =    0.750
          --------------------

 LZ VALUE ANALYSIS FOR THE MOS
 ----------------------------------------
 MO     1 (    1) HAS LZ(WEIGHT)= 0.00(100.0%) 
 MO     2 (    2) HAS LZ(WEIGHT)=-1.00( 50.0%)  1.00( 50.0%) 
 MO     3 (    2) HAS LZ(WEIGHT)=-1.00( 50.0%)  1.00( 50.0%) 
 MO     4 (    3) HAS LZ(WEIGHT)= 0.00(100.0%) 
 MO     5 (    4) HAS LZ(WEIGHT)= 0.00(100.0%) 
 MO     6 (    5) HAS LZ(WEIGHT)= 0.00(100.0%) 
 MO     7 (    6) HAS LZ(WEIGHT)=-1.00( 50.0%)  1.00( 50.0%) 
 MO     8 (    6) HAS LZ(WEIGHT)=-1.00( 50.0%)  1.00( 50.0%) 
 MO     9 (    7) HAS LZ(WEIGHT)=-1.00( 50.0%)  1.00( 50.0%) 
 MO    10 (    7) HAS LZ(WEIGHT)=-1.00( 50.0%)  1.00( 50.0%) 
 MO    11 (    8) HAS LZ(WEIGHT)=-2.00( 50.0%)  2.00( 50.0%) 
 MO    12 (    8) HAS LZ(WEIGHT)=-2.00( 50.0%)  2.00( 50.0%) 
 MO    13 (    9) HAS LZ(WEIGHT)= 0.00(100.0%) 
 MO    14 (   10) HAS LZ(WEIGHT)= 0.00(100.0%) 
 MO    15 (   11) HAS LZ(WEIGHT)=-1.00( 50.0%)  1.00( 50.0%) 
 MO    16 (   11) HAS LZ(WEIGHT)=-1.00( 50.0%)  1.00( 50.0%) 
 MO    17 (   12) HAS LZ(WEIGHT)= 0.00(100.0%) 
 MO    18 (   13) HAS LZ(WEIGHT)=-1.00( 50.0%)  1.00( 50.0%) 
 MO    19 (   13) HAS LZ(WEIGHT)=-1.00( 50.0%)  1.00( 50.0%) 
 MO    20 (   14) HAS LZ(WEIGHT)=-2.00( 50.0%)  2.00( 50.0%) 
 MO    21 (   14) HAS LZ(WEIGHT)=-2.00( 50.0%)  2.00( 50.0%) 
 MO    22 (   15) HAS LZ(WEIGHT)=-2.00( 50.0%)  2.00( 50.0%) 
 MO    23 (   15) HAS LZ(WEIGHT)=-2.00( 50.0%)  2.00( 50.0%) 
 MO    24 (   16) HAS LZ(WEIGHT)=-3.00( 50.0%)  3.00( 50.0%) 
 MO    25 (   16) HAS LZ(WEIGHT)=-3.00( 50.0%)  3.00( 50.0%) 
 MO    26 (   17) HAS LZ(WEIGHT)= 0.00(100.0%) 
 MO    27 (   18) HAS LZ(WEIGHT)=-1.00( 50.0%)  1.00( 50.0%) 
 MO    28 (   18) HAS LZ(WEIGHT)=-1.00( 50.0%)  1.00( 50.0%) 
 MO    29 (   19) HAS LZ(WEIGHT)= 0.00(100.0%) 

          ------------
          EIGENVECTORS
          ------------

                      1          2          3          4          5
                   -0.9579    -0.4607    -0.4607    -0.2986     0.5156
                     A          A          A          A          A   
    1  CL 1  S    0.999970   0.000000   0.000000   0.000000   0.000000
    2  CL 1  S   -0.000009   0.000000   0.000000   0.000000   0.000000
    3  CL 1  S    0.000027   0.000000   0.000000   0.000000   0.000000
    4  CL 1  X    0.000000   0.000000   0.987986   0.000000   0.000000
    5  CL 1  Y    0.000000   0.987986   0.000000   0.000000   0.000000
    6  CL 1  Z    0.000000   0.000000   0.000000   1.049869  -1.991755
    7  CL 1  X    0.000000   0.000000   0.002021   0.000000   0.000000
    8  CL 1  Y    0.000000   0.002021   0.000000   0.000000   0.000000
    9  CL 1  Z    0.000000   0.000000   0.000000  -0.008372   0.267160
   10  CL 1  X    0.000000   0.000000   0.012265   0.000000   0.000000
   11  CL 1  Y    0.000000   0.012265   0.000000   0.000000   0.000000
   12  CL 1  Z    0.000000   0.000000   0.000000  -0.051564   2.130716
   13  CL 1 XX    0.000135   0.000000   0.000000   0.000000   0.000000
   14  CL 1 YY    0.000135   0.000000   0.000000   0.000000   0.000000
   15  CL 1 ZZ   -0.000271   0.000000   0.000000   0.000000   0.000000
   16  CL 1 XY    0.000000   0.000000   0.000000   0.000000   0.000000
   17  CL 1 XZ    0.000000   0.000000   0.000000   0.000000   0.000000
   18  CL 1 YZ    0.000000   0.000000   0.000000   0.000000   0.000000
   19  CL 1 XX    0.002221   0.000000   0.000000   0.000000   0.000000
   20  CL 1 YY    0.002221   0.000000   0.000000   0.000000   0.000000
   21  CL 1 ZZ   -0.004441   0.000000   0.000000   0.000000   0.000000
   22  CL 1 XY    0.000000   0.000000   0.000000   0.000000   0.000000
   23  CL 1 XZ    0.000000   0.000000   0.000000   0.000000   0.000000
   24  CL 1 YZ    0.000000   0.000000   0.000000   0.000000   0.000000
   25  CL 1 XXX   0.000000   0.000000  -0.003713   0.000000   0.000000
   26  CL 1 YYY   0.000000  -0.003713   0.000000   0.000000   0.000000
   27  CL 1 ZZZ   0.000000   0.000000   0.000000   0.016198  -0.011330
   28  CL 1 XXY   0.000000  -0.001660   0.000000   0.000000   0.000000
   29  CL 1 XXZ   0.000000   0.000000   0.000000  -0.010866   0.007600
   30  CL 1 YYX   0.000000   0.000000  -0.001660   0.000000   0.000000
   31  CL 1 YYZ   0.000000   0.000000   0.000000  -0.010866   0.007600
   32  CL 1 ZZX   0.000000   0.000000   0.006642   0.000000   0.000000
   33  CL 1 ZZY   0.000000   0.006642   0.000000   0.000000   0.000000
   34  CL 1 XYZ   0.000000   0.000000   0.000000   0.000000   0.000000

                      6          7          8          9         10
                    0.5366     0.5683     0.5683     0.5785     0.5785
                     A          A          A          A          A   
    1  CL 1  S   -0.034701   0.000000   0.000000   0.000000   0.000000
    2  CL 1  S   -0.014837   0.000000   0.000000   0.000000   0.000000
    3  CL 1  S    0.051056   0.000000   0.000000   0.000000   0.000000
    4  CL 1  X    0.000000   0.000000   0.000000   0.000000  -2.065520
    5  CL 1  Y    0.000000   0.000000   0.000000  -2.065520   0.000000
    6  CL 1  Z    0.000000   0.000000   0.000000   0.000000   0.000000
    7  CL 1  X    0.000000   0.000000   0.000000   0.000000   0.295726
    8  CL 1  Y    0.000000   0.000000   0.000000   0.295726   0.000000
    9  CL 1  Z    0.000000   0.000000   0.000000   0.000000   0.000000
   10  CL 1  X    0.000000   0.000000   0.000000   0.000000   2.157078
   11  CL 1  Y    0.000000   0.000000   0.000000   2.157078   0.000000
   12  CL 1  Z    0.000000   0.000000   0.000000   0.000000   0.000000
   13  CL 1 XX   -0.101168   0.000000   0.000000   0.000000   0.000000
   14  CL 1 YY   -0.101168   0.000000   0.000000   0.000000   0.000000
   15  CL 1 ZZ    0.202336   0.000000   0.000000   0.000000   0.000000
   16  CL 1 XY    0.000000   0.000000   0.000000   0.000000   0.000000
   17  CL 1 XZ    0.000000   0.000000   0.197633   0.000000   0.000000
   18  CL 1 YZ    0.000000   0.197633   0.000000   0.000000   0.000000
   19  CL 1 XX   -0.435636   0.000000   0.000000   0.000000   0.000000
   20  CL 1 YY   -0.435636   0.000000   0.000000   0.000000   0.000000
   21  CL 1 ZZ    0.871271   0.000000   0.000000   0.000000   0.000000
   22  CL 1 XY    0.000000   0.000000   0.000000   0.000000   0.000000
   23  CL 1 XZ    0.000000   0.000000   0.874772   0.000000   0.000000
   24  CL 1 YZ    0.000000   0.874772   0.000000   0.000000   0.000000
   25  CL 1 XXX   0.000000   0.000000   0.000000   0.000000   0.005987
   26  CL 1 YYY   0.000000   0.000000   0.000000   0.005987   0.000000
   27  CL 1 ZZZ   0.000000   0.000000   0.000000   0.000000   0.000000
   28  CL 1 XXY   0.000000   0.000000   0.000000   0.002678   0.000000
   29  CL 1 XXZ   0.000000   0.000000   0.000000   0.000000   0.000000
   30  CL 1 YYX   0.000000   0.000000   0.000000   0.000000   0.002678
   31  CL 1 YYZ   0.000000   0.000000   0.000000   0.000000   0.000000
   32  CL 1 ZZX   0.000000   0.000000   0.000000   0.000000  -0.010710
   33  CL 1 ZZY   0.000000   0.000000   0.000000  -0.010710   0.000000
   34  CL 1 XYZ   0.000000   0.000000   0.000000   0.000000   0.000000

                     11         12         13         14         15
                    0.6449     0.6449     0.8142     2.2820     2.3009
                     A          A          A          A          A   
    1  CL 1  S    0.000000   0.000000  -2.282997  -0.078956   0.000000
    2  CL 1  S    0.000000   0.000000  -0.716589  -0.024683   0.000000
    3  CL 1  S    0.000000   0.000000   2.866879   0.098512   0.000000
    4  CL 1  X    0.000000   0.000000   0.000000   0.000000   0.000000
    5  CL 1  Y    0.000000   0.000000   0.000000   0.000000   0.000000
    6  CL 1  Z    0.000000   0.000000   0.000000   0.000000   0.000000
    7  CL 1  X    0.000000   0.000000   0.000000   0.000000   0.000000
    8  CL 1  Y    0.000000   0.000000   0.000000   0.000000   0.000000
    9  CL 1  Z    0.000000   0.000000   0.000000   0.000000   0.000000
   10  CL 1  X    0.000000   0.000000   0.000000   0.000000   0.000000
   11  CL 1  Y    0.000000   0.000000   0.000000   0.000000   0.000000
   12  CL 1  Z    0.000000   0.000000   0.000000   0.000000   0.000000
   13  CL 1 XX    0.000000   0.159623   0.022455  -0.597594   0.000000
   14  CL 1 YY    0.000000  -0.159623   0.022455  -0.597594   0.000000
   15  CL 1 ZZ    0.000000   0.000000  -0.044911   1.195188   0.000000
   16  CL 1 XY    0.184317   0.000000   0.000000   0.000000   0.000000
   17  CL 1 XZ    0.000000   0.000000   0.000000   0.000000   0.000000
   18  CL 1 YZ    0.000000   0.000000   0.000000   0.000000   1.196817
   19  CL 1 XX    0.000000   0.765618  -0.006314   0.421941   0.000000
   20  CL 1 YY    0.000000  -0.765618  -0.006314   0.421941   0.000000
   21  CL 1 ZZ    0.000000   0.000000   0.012628  -0.843882   0.000000
   22  CL 1 XY    0.884060   0.000000   0.000000   0.000000   0.000000
   23  CL 1 XZ    0.000000   0.000000   0.000000   0.000000   0.000000
   24  CL 1 YZ    0.000000   0.000000   0.000000   0.000000  -0.840360
   25  CL 1 XXX   0.000000   0.000000   0.000000   0.000000   0.000000
   26  CL 1 YYY   0.000000   0.000000   0.000000   0.000000   0.000000
   27  CL 1 ZZZ   0.000000   0.000000   0.000000   0.000000   0.000000
   28  CL 1 XXY   0.000000   0.000000   0.000000   0.000000   0.000000
   29  CL 1 XXZ   0.000000   0.000000   0.000000   0.000000   0.000000
   30  CL 1 YYX   0.000000   0.000000   0.000000   0.000000   0.000000
   31  CL 1 YYZ   0.000000   0.000000   0.000000   0.000000   0.000000
   32  CL 1 ZZX   0.000000   0.000000   0.000000   0.000000   0.000000
   33  CL 1 ZZY   0.000000   0.000000   0.000000   0.000000   0.000000
   34  CL 1 XYZ   0.000000   0.000000   0.000000   0.000000   0.000000

                     16         17         18         19         20
                    2.3009     2.3334     2.3434     2.3434     2.3583
                     A          A          A          A          A   
    1  CL 1  S    0.000000   0.000000   0.000000   0.000000   0.000000
    2  CL 1  S    0.000000   0.000000   0.000000   0.000000   0.000000
    3  CL 1  S    0.000000   0.000000   0.000000   0.000000   0.000000
    4  CL 1  X    0.000000   0.000000   0.000000   0.022268   0.000000
    5  CL 1  Y    0.000000   0.000000   0.022268   0.000000   0.000000
    6  CL 1  Z    0.000000   0.026372   0.000000   0.000000   0.000000
    7  CL 1  X    0.000000   0.000000   0.000000  -0.028350   0.000000
    8  CL 1  Y    0.000000   0.000000  -0.028350   0.000000   0.000000
    9  CL 1  Z    0.000000  -0.039204   0.000000   0.000000   0.000000
   10  CL 1  X    0.000000   0.000000   0.000000  -0.007135   0.000000
   11  CL 1  Y    0.000000   0.000000  -0.007135   0.000000   0.000000
   12  CL 1  Z    0.000000  -0.013478   0.000000   0.000000   0.000000
   13  CL 1 XX    0.000000   0.000000   0.000000   0.000000   0.000000
   14  CL 1 YY    0.000000   0.000000   0.000000   0.000000   0.000000
   15  CL 1 ZZ    0.000000   0.000000   0.000000   0.000000   0.000000
   16  CL 1 XY    0.000000   0.000000   0.000000   0.000000   1.198940
   17  CL 1 XZ    1.196817   0.000000   0.000000   0.000000   0.000000
   18  CL 1 YZ    0.000000   0.000000   0.000000   0.000000   0.000000
   19  CL 1 XX    0.000000   0.000000   0.000000   0.000000   0.000000
   20  CL 1 YY    0.000000   0.000000   0.000000   0.000000   0.000000
   21  CL 1 ZZ    0.000000   0.000000   0.000000   0.000000   0.000000
   22  CL 1 XY    0.000000   0.000000   0.000000   0.000000  -0.830583
   23  CL 1 XZ   -0.840360   0.000000   0.000000   0.000000   0.000000
   24  CL 1 YZ    0.000000   0.000000   0.000000   0.000000   0.000000
   25  CL 1 XXX   0.000000   0.000000   0.000000  -0.612297   0.000000
   26  CL 1 YYY   0.000000   0.000000  -0.612297   0.000000   0.000000
   27  CL 1 ZZZ   0.000000   0.999700   0.000000   0.000000   0.000000
   28  CL 1 XXY   0.000000   0.000000  -0.273828   0.000000   0.000000
   29  CL 1 XXZ   0.000000  -0.670619   0.000000   0.000000   0.000000
   30  CL 1 YYX   0.000000   0.000000   0.000000  -0.273828   0.000000
   31  CL 1 YYZ   0.000000  -0.670619   0.000000   0.000000   0.000000
   32  CL 1 ZZX   0.000000   0.000000   0.000000   1.095310   0.000000
   33  CL 1 ZZY   0.000000   0.000000   1.095310   0.000000   0.000000
   34  CL 1 XYZ   0.000000   0.000000   0.000000   0.000000   0.000000

                     21         22         23         24         25
                    2.3583     2.3745     2.3745     2.4241     2.4241
                     A          A          A          A          A   
    1  CL 1  S    0.000000   0.000000   0.000000   0.000000   0.000000
    2  CL 1  S    0.000000   0.000000   0.000000   0.000000   0.000000
    3  CL 1  S    0.000000   0.000000   0.000000   0.000000   0.000000
    4  CL 1  X    0.000000   0.000000   0.000000   0.000000   0.000000
    5  CL 1  Y    0.000000   0.000000   0.000000   0.000000   0.000000
    6  CL 1  Z    0.000000   0.000000   0.000000   0.000000   0.000000
    7  CL 1  X    0.000000   0.000000   0.000000   0.000000   0.000000
    8  CL 1  Y    0.000000   0.000000   0.000000   0.000000   0.000000
    9  CL 1  Z    0.000000   0.000000   0.000000   0.000000   0.000000
   10  CL 1  X    0.000000   0.000000   0.000000   0.000000   0.000000
   11  CL 1  Y    0.000000   0.000000   0.000000   0.000000   0.000000
   12  CL 1  Z    0.000000   0.000000   0.000000   0.000000   0.000000
   13  CL 1 XX    1.038313   0.000000   0.000000   0.000000   0.000000
   14  CL 1 YY   -1.038313   0.000000   0.000000   0.000000   0.000000
   15  CL 1 ZZ    0.000000   0.000000   0.000000   0.000000   0.000000
   16  CL 1 XY    0.000000   0.000000   0.000000   0.000000   0.000000
   17  CL 1 XZ    0.000000   0.000000   0.000000   0.000000   0.000000
   18  CL 1 YZ    0.000000   0.000000   0.000000   0.000000   0.000000
   19  CL 1 XX   -0.719306   0.000000   0.000000   0.000000   0.000000
   20  CL 1 YY    0.719306   0.000000   0.000000   0.000000   0.000000
   21  CL 1 ZZ    0.000000   0.000000   0.000000   0.000000   0.000000
   22  CL 1 XY    0.000000   0.000000   0.000000   0.000000   0.000000
   23  CL 1 XZ    0.000000   0.000000   0.000000   0.000000   0.000000
   24  CL 1 YZ    0.000000   0.000000   0.000000   0.000000   0.000000
   25  CL 1 XXX   0.000000   0.000000   0.000000   0.000000  -0.790569
   26  CL 1 YYY   0.000000   0.000000   0.000000  -0.790569   0.000000
   27  CL 1 ZZZ   0.000000   0.000000   0.000000   0.000000   0.000000
   28  CL 1 XXY   0.000000   0.000000   0.000000   1.060660   0.000000
   29  CL 1 XXZ   0.000000   0.000000   0.866025   0.000000   0.000000
   30  CL 1 YYX   0.000000   0.000000   0.000000   0.000000   1.060660
   31  CL 1 YYZ   0.000000   0.000000  -0.866025   0.000000   0.000000
   32  CL 1 ZZX   0.000000   0.000000   0.000000   0.000000   0.000000
   33  CL 1 ZZY   0.000000   0.000000   0.000000   0.000000   0.000000
   34  CL 1 XYZ   0.000000   1.000000   0.000000   0.000000   0.000000

                     26         27         28         29
                    3.1974     3.2676     3.2676    12.0375
                     A          A          A          A   
    1  CL 1  S    0.000000   0.000000   0.000000   3.157803
    2  CL 1  S    0.000000   0.000000   0.000000  -1.158698
    3  CL 1  S    0.000000   0.000000   0.000000  -2.472264
    4  CL 1  X    0.000000   4.545817   0.000000   0.000000
    5  CL 1  Y    0.000000   0.000000   4.545817   0.000000
    6  CL 1  Z    4.564804   0.000000   0.000000   0.000000
    7  CL 1  X    0.000000  -2.929646   0.000000   0.000000
    8  CL 1  Y    0.000000   0.000000  -2.929646   0.000000
    9  CL 1  Z   -2.932252   0.000000   0.000000   0.000000
   10  CL 1  X    0.000000  -2.641096   0.000000   0.000000
   11  CL 1  Y    0.000000   0.000000  -2.641096   0.000000
   12  CL 1  Z   -2.661914   0.000000   0.000000   0.000000
   13  CL 1 XX    0.000000   0.000000   0.000000   0.000138
   14  CL 1 YY    0.000000   0.000000   0.000000   0.000138
   15  CL 1 ZZ    0.000000   0.000000   0.000000  -0.000276
   16  CL 1 XY    0.000000   0.000000   0.000000   0.000000
   17  CL 1 XZ    0.000000   0.000000   0.000000   0.000000
   18  CL 1 YZ    0.000000   0.000000   0.000000   0.000000
   19  CL 1 XX    0.000000   0.000000   0.000000   0.000495
   20  CL 1 YY    0.000000   0.000000   0.000000   0.000495
   21  CL 1 ZZ    0.000000   0.000000   0.000000  -0.000989
   22  CL 1 XY    0.000000   0.000000   0.000000   0.000000
   23  CL 1 XZ    0.000000   0.000000   0.000000   0.000000
   24  CL 1 YZ    0.000000   0.000000   0.000000   0.000000
   25  CL 1 XXX   0.000000   0.006527   0.000000   0.000000
   26  CL 1 YYY   0.000000   0.000000   0.006527   0.000000
   27  CL 1 ZZZ  -0.014444   0.000000   0.000000   0.000000
   28  CL 1 XXY   0.000000   0.000000   0.002919   0.000000
   29  CL 1 XXZ   0.009690   0.000000   0.000000   0.000000
   30  CL 1 YYX   0.000000   0.002919   0.000000   0.000000
   31  CL 1 YYZ   0.009690   0.000000   0.000000   0.000000
   32  CL 1 ZZX   0.000000  -0.011676   0.000000   0.000000
   33  CL 1 ZZY   0.000000   0.000000  -0.011676   0.000000
   34  CL 1 XYZ   0.000000   0.000000   0.000000   0.000000
 ...... END OF ROHF CALCULATION ......
 STEP CPU TIME =     0.07 TOTAL CPU TIME =        0.4 (    0.0 MIN)
 TOTAL WALL CLOCK TIME=        1.2 SECONDS, CPU UTILIZATION IS  32.17%

     ----------------------------------------------------------------
     PROPERTY VALUES FOR THE ROHF  SELF-CONSISTENT FIELD WAVEFUNCTION
     ----------------------------------------------------------------

          -----------------
          ENERGY COMPONENTS
          -----------------

         WAVEFUNCTION NORMALIZATION =       1.0000000000

                ONE ELECTRON ENERGY =     -24.6874988782
                TWO ELECTRON ENERGY =       9.9964411293
           NUCLEAR REPULSION ENERGY =       0.0000000000
                                      ------------------
                       TOTAL ENERGY =     -14.6910577489

 ELECTRON-ELECTRON POTENTIAL ENERGY =       9.9964411293
  NUCLEUS-ELECTRON POTENTIAL ENERGY =     -30.1858394755
   NUCLEUS-NUCLEUS POTENTIAL ENERGY =       0.0000000000
                                      ------------------
             TOTAL POTENTIAL ENERGY =     -20.1893983462
               TOTAL KINETIC ENERGY =       5.4983405972
                 VIRIAL RATIO (V/T) =       3.6719075490

          ---------------------------------------
          MULLIKEN AND LOWDIN POPULATION ANALYSES
          ---------------------------------------

     ATOMIC MULLIKEN POPULATION IN EACH MOLECULAR ORBITAL

                      1          2          3          4

                  2.000000   2.000000   2.000000   1.000000

    1             2.000000   2.000000   2.000000   1.000000

          MULLIKEN SPHERICAL HARMONIC POPULATIONS
       ATOM           S       P       D      F      G      H      I    TOTAL
    1 CL            1.00    3.00    0.00   0.00   0.00   0.00   0.00    4.00

          MULLIKEN SPHERICAL HARMONIC POPULATIONS
       ATOM           S       P       D      F      G      H      I    TOTAL
    1 CL            1.00    2.00    0.00   0.00   0.00   0.00   0.00    3.00

     ATOMIC SPIN POPULATION (ALPHA MINUS BETA)
       ATOM         MULL.POP.                    LOW.POP.
    1 CL            1.000000                     1.000000

               ----- POPULATIONS IN EACH AO -----
                             MULLIKEN      LOWDIN
              1  CL 1  S      1.99992     0.46735
              2  CL 1  S     -0.00001     0.10503
              3  CL 1  S      0.00005     0.34762
              4  CL 1  X      1.97591     0.60047
              5  CL 1  Y      1.97591     0.60047
              6  CL 1  Z      1.04945     0.30074
              7  CL 1  X      0.00317     0.30927
              8  CL 1  Y      0.00317     0.30927
              9  CL 1  Z     -0.00669     0.16496
             10  CL 1  X      0.02085     0.45651
             11  CL 1  Y      0.02085     0.45651
             12  CL 1  Z     -0.04302     0.20645
             13  CL 1 XX      0.00000     0.18972
             14  CL 1 YY      0.00000     0.18972
             15  CL 1 ZZ      0.00000     0.18735
             16  CL 1 XY      0.00000     0.00000
             17  CL 1 XZ      0.00000     0.00000
             18  CL 1 YZ      0.00000     0.00000
             19  CL 1 XX      0.00004     0.17312
             20  CL 1 YY      0.00000     0.17312
             21  CL 1 ZZ      0.00000     0.16695
             22  CL 1 XY      0.00000     0.00000
             23  CL 1 XZ      0.00000     0.00000
             24  CL 1 YZ      0.00000     0.00000
             25  CL 1 XXX     0.00000     0.33124
             26  CL 1 YYY     0.00000     0.33124
             27  CL 1 ZZZ     0.00007     0.18315
             28  CL 1 XXY     0.00026     0.14753
             29  CL 1 XXZ     0.00007     0.07235
             30  CL 1 YYX     0.00000     0.14753
             31  CL 1 YYZ     0.00000     0.07235
             32  CL 1 ZZX     0.00000     0.15498
             33  CL 1 ZZY     0.00000     0.15498
             34  CL 1 XYZ     0.00000     0.00000

          ----- MULLIKEN ATOMIC OVERLAP POPULATIONS -----
          (OFF-DIAGONAL ELEMENTS NEED TO BE MULTIPLIED BY 2)

             1

    1    7.0000000

          TOTAL MULLIKEN AND LOWDIN ATOMIC POPULATIONS
       ATOM         MULL.POP.    CHARGE          LOW.POP.     CHARGE
    1 CL            7.000000   -0.000000         7.000000   -0.000000

          MULLIKEN SPHERICAL HARMONIC POPULATIONS
       ATOM           S       P       D      F      G      H      I    TOTAL
    1 CL            2.00    5.00    0.00   0.00   0.00   0.00   0.00    7.00

          -------------------------------
          BOND ORDER AND VALENCE ANALYSIS     BOND ORDER THRESHOLD=0.050
          -------------------------------

                   BOND                       BOND                       BOND
  ATOM PAIR DIST  ORDER      ATOM PAIR DIST  ORDER      ATOM PAIR DIST  ORDER

                       TOTAL       BONDED        FREE
      ATOM            VALENCE     VALENCE     VALENCE
    1 CL                1.000       0.000       1.000

          -----------------------------------------
          ATOMIC SPIN DENSITY AT THE NUCLEUS (A.U.)
          -----------------------------------------
                            SPIN DENS    ALPHA DENS     BETA DENS
    1  CL           7.0     0.0000000       0.00077       0.00077

          ---------------------
          ELECTROSTATIC MOMENTS
          ---------------------

 POINT   1           X           Y           Z (BOHR)    CHARGE
                 0.000000    0.000000    0.000000       -0.00 (A.U.)
         DX          DY          DZ         /D/  (DEBYE)
     0.000000    0.000000    0.000000    0.000000
 ...... END OF PROPERTY EVALUATION ......
 STEP CPU TIME =     0.02 TOTAL CPU TIME =        0.4 (    0.0 MIN)
 TOTAL WALL CLOCK TIME=        1.2 SECONDS, CPU UTILIZATION IS  31.71%
                580000  WORDS OF DYNAMIC MEMORY USED
 EXECUTION OF GAMESS TERMINATED NORMALLY Tue Oct  2 06:16:11 2018
 DDI: 263624 bytes (0.3 MB / 0 MWords) used by master data server.

 ----------------------------------------
 CPU timing information for all processes
 ========================================
 0: 0.199 + 0.239 = 0.439
 ----------------------------------------
 ddikick.x: exited gracefully.
----- accounting info -----
Files used on the master node c472-051.stampede2.tacc.utexas.edu were:
-rw------- 1 aannabe G-801537    1304 Oct  2 06:16 /tmp/Cl.F05
-rw------- 1 aannabe G-801537  360032 Oct  2 06:16 /tmp/Cl.F08
-rw------- 1 aannabe G-801537 2617600 Oct  2 06:16 /tmp/Cl.F10
Tue Oct  2 06:16:14 CDT 2018
1.179u 0.747s 0:06.48 29.4%	0+0k 6552+40io 33pf+0w
