
 Primary working directories    : /global/cscratch1/sd/aannabe
 Secondary working directories  : /global/cscratch1/sd/aannabe
 Wavefunction directory         : /global/homes/a/aannabe/wfu/
 Main file repository           : /global/cscratch1/sd/aannabe/

 SHA1      : 19cd028119e0e09f93f0674bd8af7968d9b3eff6
 NAME      : 2015.1.36
 ARCHNAME  : linux/x86_64
 FC        : /opt/cray/pe/craype/2.5.14/bin/ftn
 BLASLIB   : -L/opt/intel/compilers_and_libraries_2018.1.163/linux/mkl/lib/intel64 -Wl,-_start-group -lmkl_intel_ilp64 -lmkl_intel_thread -lmkl_core -Wl,-_end-group -liomp5
 id        : lbl

 Nodes     nprocs
 nid00474     1

 Using customized tuning parameters: mindgm=7; mindgv=16; mindgc=1; mindgr=1; noblas=0; minvec=7
 default implementation of scratch files=df  

 ***,F
 memory,8,g
 gthresh,twoint=1.e-12
 
 gprint,basis,orbitals
 gexpec,ekin,pot
 
 angstrom
 geometry={
 1                                                                               ! Number of atoms
 F 0.0 0.0 0.0
 }
 
 basis={
                                                                   !include,/global/homes/a/aannabe/docs/accurate/ccECP_Kh/pps/F.pp
                                              !!include,/global/homes/a/aannabe/docs/accurate/ccECP_Kh/basis/aug-cc-pVnZ/F_TZ.basis
                                                   !include,/global/homes/a/aannabe/docs/accurate/ccECP_Kh/basis/cc-pVnZ/F_TZ.basis
 
 Including file /global/homes/a/aannabe/repos/pseudopotentiallibrary/recipes/F/ccECP/F.ccECP.molpro
 Including file /global/homes/a/aannabe/repos/pseudopotentiallibrary/recipes/F/ccECP/F.cc-pVTZ.molpro
                                 !include,/global/homes/a/aannabe/repos/pseudopotentiallibrary/recipes/F/ccECP/F.aug-cc-pVTZ.molpro
 
 
 }
 
 {rhf
  start,atden
  wf,7,3,1
  occ,1,1,1,0,1,0,0,0
  open,1.3
  orbital,4202.2
 }
 {multi
  maxiter,40
  start,4202.2
  occ,1,1,1,0,1,0,0,0
  closed,1,0,0,0,0,0,0
  wf,7,3,1;state,1
  wf,7,5,1;state,1
  wf,7,2,1;state,1
  natorb,ci,print
  orbital,5202.2
 }
 {rhf,nitord=1,maxit=0
  start,5202.2
  wf,7,3,1
  occ,1,1,1,0,1,0,0,0
  open,1.3
 }
 
 scf(i)=energy
 
 _CC_NORM_MAX=2.0
 {fci
 maxit,100
 core
 }
 posthf(i)=energy
 
 table,scf,posthf,ekin,pot
 save,3.csv,new
 
 

 Variables initialized (889), CPU time= 0.00 sec
 Commands  initialized (702), CPU time= 0.00 sec, 572 directives.
 Default parameters read. Elapsed time= 0.20 sec

 Checking input...
 Passed
1


                                         ***  PROGRAM SYSTEM MOLPRO  ***
                                       Copyright, TTI GmbH Stuttgart, 2015
                                    Version 2015.1 linked Dec 29 2018 15:55:43


 **********************************************************************************************************************************
 LABEL *   F                                                                             
  64 bit serial version                                                                  DATE: 01-Feb-19          TIME: 16:52:18  
 **********************************************************************************************************************************

 SHA1:             19cd028119e0e09f93f0674bd8af7968d9b3eff6
 **********************************************************************************************************************************

 THRESHOLDS:

 ZERO    =  1.00D-12  ONEINT  =  1.00D-12  TWOINT  =  1.00D-12  PREFAC  =  1.00D-14  LOCALI  =  1.00D-09  EORDER  =  1.00D-04
 ENERGY  =  0.00D+00  ETEST   =  0.00D+00  EDENS   =  0.00D+00  THRDEDEF=  1.00D-06  GRADIENT=  1.00D-02  STEP    =  1.00D-03
 ORBITAL =  1.00D-05  CIVEC   =  1.00D-05  COEFF   =  1.00D-04  PRINTCI =  5.00D-02  PUNCHCI =  9.90D+01  OPTGRAD =  3.00D-04
 OPTENERG=  1.00D-06  OPTSTEP =  3.00D-04  THRGRAD =  1.00D-10  COMPRESS=  1.00D-11  VARMIN  =  1.00D-07  VARMAX  =  1.00D-03
 THRDOUB =  0.00D+00  THRDIV  =  1.00D-05  THRRED  =  1.00D-07  THRPSP  =  1.00D+00  THRDC   =  1.00D-10  THRCS   =  1.00D-10
 THRNRM  =  1.00D-08  THREQ   =  0.00D+00  THRDE   =  1.00D+00  THRREF  =  1.00D-05  SPARFAC =  1.00D+00  THRDLP  =  1.00D-07
 THRDIA  =  1.00D-10  THRDLS  =  1.00D-07  THRGPS  =  0.00D+00  THRKEX  =  0.00D+00  THRDIS  =  2.00D-01  THRVAR  =  1.00D-10
 THRLOC  =  1.00D-06  THRGAP  =  1.00D-06  THRLOCT = -1.00D+00  THRGAPT = -1.00D+00  THRORB  =  1.00D-06  THRMLTP =  0.00D+00
 THRCPQCI=  1.00D-10  KEXTA   =  0.00D+00  THRCOARS=  0.00D+00  SYMTOL  =  1.00D-06  GRADTOL =  1.00D-06  THROVL  =  1.00D-08
 THRORTH =  1.00D-08  GRID    =  1.00D-06  GRIDMAX =  1.00D-03  DTMAX   =  0.00D+00  THROCCDE=  1.00D-01  THROCCDE=  1.00D-01



 ZUNIT=ANG
 

Geometry recognized as XYZ


 Variable memory set to 8000000000 words,  buffer space   230000 words

 SETTING BASIS          =    USERDEF


 Recomputing integrals since basis changed


 Using spherical harmonics



 PROGRAM * SEWARD (Integral evaluation for generally contracted gaussian basis sets)     Author: Roland Lindh, 1990

 Geometry written to block  1 of record 700

 Orientation using atomic masses  
 Molecule type: Atom
 Symmetry elements: X,Y,Z
 Rotational constants:       0.0000000      0.0000000      0.0000000 GHz  (calculated with average atomic masses)

 Point group  D2h 



 ATOMIC COORDINATES

 NR  ATOM    CHARGE       X              Y              Z

   1  F       7.00    0.000000000    0.000000000    0.000000000


          F   CORE POTENTIAL

          p POTENTIAL

 POWERS             1              3              2
 EXPONENTIALS   12.08758       12.83806       12.31235    
 COEFFICIENTS   7.000000       84.61309      -53.02752    

          s - p POTENTIAL

 POWERS             2
 EXPONENTIALS   14.78076    
 COEFFICIENTS   78.90177    


 BASIS DATA

   Nr Sym  Nuc  Type         Exponents   Contraction coefficients

    1.1 Ag    1  1s          84.048652    -0.000003
                             41.094617    -0.000354
                             20.092738     0.018409
                              9.824112    -0.127766
                              4.803386    -0.070287
                              2.348560     0.157160
                              1.148301     0.376901
                              0.561449     0.409517
                              0.274514     0.197089
                              0.134220     0.024348
    2.1 Ag    1  1s           2.289795     1.000000
    3.1 Ag    1  1s           0.327712     1.000000
    4.1 Ag    1  3d0          3.297425     1.000000
    5.1 Ag    1  3d2+         3.297425     1.000000
    6.1 Ag    1  3d0          0.900763     1.000000
    7.1 Ag    1  3d2+         0.900763     1.000000
    1.2 B3u   1  2px         31.642619     0.002967
                             16.243233     0.029805
                              8.338204     0.066949
                              4.280284     0.133779
                              2.197215     0.214831
                              1.127906     0.266486
                              0.578992     0.261895
                              0.297216     0.192022
                              0.152571     0.082847
                              0.078320     0.013305
    2.2 B3u   1  2px          0.804181     1.000000
    3.2 B3u   1  2px          0.243660     1.000000
    4.2 B3u   1  4f1+         1.859274     1.000000
    5.2 B3u   1  4f3+         1.859274     1.000000
    1.3 B2u   1  2py         31.642619     0.002967
                             16.243233     0.029805
                              8.338204     0.066949
                              4.280284     0.133779
                              2.197215     0.214831
                              1.127906     0.266486
                              0.578992     0.261895
                              0.297216     0.192022
                              0.152571     0.082847
                              0.078320     0.013305
    2.3 B2u   1  2py          0.804181     1.000000
    3.3 B2u   1  2py          0.243660     1.000000
    4.3 B2u   1  4f1-         1.859274     1.000000
    5.3 B2u   1  4f3-         1.859274     1.000000
    1.4 B1g   1  3d2-         3.297425     1.000000
    2.4 B1g   1  3d2-         0.900763     1.000000
    1.5 B1u   1  2pz         31.642619     0.002967
                             16.243233     0.029805
                              8.338204     0.066949
                              4.280284     0.133779
                              2.197215     0.214831
                              1.127906     0.266486
                              0.578992     0.261895
                              0.297216     0.192022
                              0.152571     0.082847
                              0.078320     0.013305
    2.5 B1u   1  2pz          0.804181     1.000000
    3.5 B1u   1  2pz          0.243660     1.000000
    4.5 B1u   1  4f0          1.859274     1.000000
    5.5 B1u   1  4f2+         1.859274     1.000000
    1.6 B2g   1  3d1+         3.297425     1.000000
    2.6 B2g   1  3d1+         0.900763     1.000000
    1.7 B3g   1  3d1-         3.297425     1.000000
    2.7 B3g   1  3d1-         0.900763     1.000000
    1.8 Au    1  4f2-         1.859274     1.000000

 NUCLEAR CHARGE:                    7
 NUMBER OF PRIMITIVE AOS:          70
 NUMBER OF SYMMETRY AOS:           65
 NUMBER OF CONTRACTIONS:           29   (   7Ag  +   5B3u +   5B2u +   2B1g +   5B1u +   2B2g +   2B3g +   1Au  )
 NUMBER OF CORE ORBITALS:           0   (   0Ag  +   0B3u +   0B2u +   0B1g +   0B1u +   0B2g +   0B3g +   0Au  )
 NUMBER OF VALENCE ORBITALS:        4   (   1Ag  +   1B3u +   1B2u +   0B1g +   1B1u +   0B2g +   0B3g +   0Au  )


 NUCLEAR REPULSION ENERGY    0.00000000

 EXTRA SYMMETRY OF AOS IN SYMMETRY 1:   1 1 1 2 3 2 3
 EXTRA SYMMETRY OF AOS IN SYMMETRY 2:   1 1 1 2 3
 EXTRA SYMMETRY OF AOS IN SYMMETRY 3:   1 1 1 2 3
 EXTRA SYMMETRY OF AOS IN SYMMETRY 5:   1 1 1 2 3

 Eigenvalues of metric

         1 0.310E-01 0.480E+00 0.499E+00 0.499E+00 0.150E+01 0.150E+01 0.249E+01
         2 0.638E-01 0.400E+00 0.100E+01 0.100E+01 0.254E+01
         3 0.638E-01 0.400E+00 0.100E+01 0.100E+01 0.254E+01
         4 0.499E+00 0.150E+01
         5 0.638E-01 0.400E+00 0.100E+01 0.100E+01 0.254E+01
         6 0.499E+00 0.150E+01
         7 0.499E+00 0.150E+01
         8 0.100E+01


 Contracted 2-electron integrals neglected if value below      1.0D-12
 AO integral compression algorithm  1   Integral accuracy      1.0D-12

     0.262 MB (compressed) written to integral file (100.0%)


 NUMBER OF SORTED TWO-ELECTRON INTEGRALS:      14291.     BUFFER LENGTH:  32768
 NUMBER OF SEGMENTS:   1  SEGMENT LENGTH:      14291      RECORD LENGTH: 524288

 Memory used in sort:       0.57 MW

 SORT1 READ       26095. AND WROTE       11782. INTEGRALS IN      1 RECORDS. CPU TIME:     0.00 SEC, REAL TIME:     0.01 SEC
 SORT2 READ       11782. AND WROTE       14291. INTEGRALS IN      1 RECORDS. CPU TIME:     0.01 SEC, REAL TIME:     0.01 SEC

 FILE SIZES:   FILE 1:    20.2 MBYTE,  FILE 4:     4.2 MBYTE,   TOTAL:     24.4 MBYTE

 OPERATOR DM      FOR CENTER  0  COORDINATES:    0.000000    0.000000    0.000000
 OPERATOR EKIN    FOR CENTER  0  COORDINATES:    0.000000    0.000000    0.000000
 OPERATOR POT     FOR CENTER  0  COORDINATES:    0.000000    0.000000    0.000000


 **********************************************************************************************************************************
 DATASETS  * FILE   NREC   LENGTH (MB)   RECORD NAMES
              1      20       19.99       500      610      700      900      950      970     1000      129      960     1100   
                                          VAR    BASINP    GEOM    SYMINP    ZMAT    AOBASIS   BASIS     P2S    ABASIS      S 
                                         1400     1410     1420     1200     1210     1080     1600     1650     1300     1700   
                                         EKIN       V       ECP      H0       H01     AOSYM     SMH    MOLCAS    ERIS     OPER   

 PROGRAMS   *        TOTAL       INT
 CPU TIMES  *         1.60      1.52
 REAL TIME  *        11.39 SEC
 DISK USED  *        24.65 MB      
 **********************************************************************************************************************************


 PROGRAM * RHF-SCF (OPEN SHELL)       Authors: W. Meyer, H.-J. Werner


 NUMBER OF ELECTRONS:       4+    3-    SPACE SYMMETRY=3    SPIN SYMMETRY: Doublet 
 CONVERGENCE THRESHOLDS:    1.00E-05 (Density)    1.00E-07 (Energy)
 MAX. NUMBER OF ITERATIONS:       60
 INTERPOLATION TYPE:            DIIS
 INTERPOLATION STEPS:              2 (START)      1 (STEP)
 LEVEL SHIFTS:                 -0.60 (CLOSED) -0.30 (OPEN) 


 Singly occupied orbitals:      1.3

   Atom=F  basis=ECP2MWB_GUESS     lmin=0  lmax=1

 Orbital guess generated from atomic densities. Full valence occupancy:    1   1   1   0   1   0   0   0


 Molecular orbital dump at record        4202.2

 ITERATION    DDIFF          GRAD             ENERGY        2-EL.EN.            DIPOLE MOMENTS         DIIS   ORB.
    1      0.000D+00      0.000D+00       -23.93134097     33.654144    0.00000    0.00000    0.00000    0    start
    2      0.000D+00      0.207D-01       -23.93723665     34.202187    0.00000    0.00000    0.00000    1    diag,B
    3      0.186D-01      0.518D-02       -23.93753897     34.167741    0.00000    0.00000    0.00000    2    diag,B
    4      0.404D-02      0.141D-02       -23.93761179     34.176794    0.00000    0.00000    0.00000    3    diag,B
    5      0.184D-02      0.384D-03       -23.93761866     34.176056    0.00000    0.00000    0.00000    4    diag,B
    6      0.725D-03      0.646D-04       -23.93761881     34.175322    0.00000    0.00000    0.00000    5    diag,B
    7      0.102D-03      0.934D-05       -23.93761881     34.175326    0.00000    0.00000    0.00000    6    fixocc
    8      0.152D-04      0.685D-06       -23.93761881     34.175316    0.00000    0.00000    0.00000    7    diag,B
    9      0.960D-06      0.567D-07       -23.93761881     34.175316    0.00000    0.00000    0.00000    0    orth

 Final alpha occupancy:   1   1   1   0   1   0   0   0
 Final beta  occupancy:   1   1   0   0   1   0   0   0

 !RHF STATE 1.3 Energy                -23.937618814236
 Nuclear energy                         0.00000000
 One-electron energy                  -41.02527700
 Two-electron energy                   17.08765819
 Virial quotient                       -1.28412838
 !RHF STATE 1.3 Dipole moment           0.00000000     0.00000000     0.00000000
 Dipole moment /Debye                   0.00000000     0.00000000     0.00000000
 

 !RHF expec          <1.3|EKIN|1.3>    18.641141492397
 
 !RHF expec           <1.3|POT|1.3>    -8.770280529551

 ELECTRON ORBITALS
 =================


   Orb  Occ    Energy  Couls-En    Coefficients

                                   1 1s      1 1s      1 1s      1 3d0     1 3d2+    1 3d0     1 3d2+ 

   1.1   2    -1.5948   -8.0500  1.000076  0.000018 -0.000100  0.000261  0.000453  0.001180  0.002044

                                   1 2px     1 2px     1 2px     1 4f1+    1 4f3+ 

   1.2   2    -0.7064   -6.3126  1.000156  0.000115 -0.000381 -0.000750 -0.002903

                                   1 2py     1 2py     1 2py     1 4f1-    1 4f3- 

   1.3   +    -0.8347   -6.5248  1.030761  0.005260 -0.051652 -0.004754 -0.006137

                                   1 2pz     1 2pz     1 2pz     1 4f0     1 4f2+ 

   1.5   2    -0.7064   -6.3126  1.000156  0.000115 -0.000381 -0.001836 -0.002370

 HOMO      1.2    -0.706422 =     -19.2227eV
 LUMO      2.3     0.757029 =      20.5998eV
 LUMO-HOMO         1.463451 =      39.8225eV


 **********************************************************************************************************************************
 DATASETS  * FILE   NREC   LENGTH (MB)   RECORD NAMES
              1      20       19.99       500      610      700      900      950      970     1000      129      960     1100   
                                          VAR    BASINP    GEOM    SYMINP    ZMAT    AOBASIS   BASIS     P2S    ABASIS      S 
                                         1400     1410     1420     1200     1210     1080     1600     1650     1300     1700   
                                         EKIN       V       ECP      H0       H01     AOSYM     SMH    MOLCAS    ERIS     OPER   

              2       4        2.75       700     1000      520     4202   
                                         GEOM     BASIS   MCVARS     RHF  

 PROGRAMS   *        TOTAL       RHF       INT
 CPU TIMES  *         1.63      0.03      1.52
 REAL TIME  *        11.56 SEC
 DISK USED  *        24.65 MB      
 **********************************************************************************************************************************


 PROGRAM * MULTI (Direct Multiconfiguration SCF)       Authors: P.J. Knowles, H.-J. Werner (1984)     S.T. Elbert (1988)


 Number of closed-shell orbitals:   1 (   1   0   0   0   0   0   0   0 )
 Number of active  orbitals:        3 (   0   1   1   0   1   0   0   0 )
 Number of external orbitals:      25 (   6   4   4   2   4   2   2   1 )

 State symmetry 1

 Number of electrons:     5    Spin symmetry=Doublet   Space symmetry=3
 Number of states:        1
 Number of CSFs:          1   (1 determinants, 3 intermediate states)

 State symmetry 2

 Number of electrons:     5    Spin symmetry=Doublet   Space symmetry=5
 Number of states:        1
 Number of CSFs:          1   (1 determinants, 3 intermediate states)

 State symmetry 3

 Number of electrons:     5    Spin symmetry=Doublet   Space symmetry=2
 Number of states:        1
 Number of CSFs:          1   (1 determinants, 3 intermediate states)

 Iteration controls:
             1  2  3  4  5  6  7  8  9 10 11 12 13 14 15 16 17 18 19 20 21 22 23 24 25 26 27 28 29 30 31 32 33 34 35 36 37 38 39
 DIAGCI      T  T  T  T  T  T  T  T  T  T  T  T  T  T  T  T  T  T  T  T  T  T  T  T  T  T  T  T  T  T  T  T  T  T  T  T  T  T  T
 WERNER      T  T  T  T  T  T  T  T  T  T  T  T  T  T  T  T  T  T  T  T  T  T  T  T  T  T  T  T  T  T  T  T  T  T  T  T  T  T  T
 INTERNAL    F  T  T  T  T  T  T  T  T  T  T  T  T  T  T  T  T  T  T  T  T  T  T  T  T  T  T  T  T  T  T  T  T  T  T  T  T  T  T

 Molecular orbitals read from record     4202.2  Type=RHF/CANONICAL (state 1.3)
 *** IN SYMMETRY 1 ORBITAL  1 SYMMETRY CONTAMINATION OF 0.392D-02 HAS BEEN REMOVED

 EXTRA SYMMETRY OF MOS IN SYMMETRY 1:   1 1 3 2 3 2 1
 *** IN SYMMETRY 2 ORBITAL  1 SYMMETRY CONTAMINATION OF 0.364D-02 HAS BEEN REMOVED
 EXTRA SYMMETRY OF MOS IN SYMMETRY 2:   1 1 1 3 2
 *** IN SYMMETRY 3 ORBITAL  1 SYMMETRY CONTAMINATION OF 0.991D-02 HAS BEEN REMOVED
 EXTRA SYMMETRY OF MOS IN SYMMETRY 3:   1 1 1 3 2
 *** IN SYMMETRY 5 ORBITAL  1 SYMMETRY CONTAMINATION OF 0.419D-02 HAS BEEN REMOVED
 EXTRA SYMMETRY OF MOS IN SYMMETRY 5:   1 1 1 3 2

 Wavefunction dump at record             5202.2

 Convergence thresholds  0.10E-01 (gradient)  0.10E-05 (energy)  0.10E-02 (step length)

 Weight factors for state symmetry  1:    0.33333
 Weight factors for state symmetry  2:    0.33333
 Weight factors for state symmetry  3:    0.33333

 Number of orbital rotations:       18   (     0 Core/Active      6 Core/Virtual   0 Active/Active     12 Active/Virtual)
 Total number of variables:         21


 ITER. MIC  NCI  NEG     ENERGY(VAR)     ENERGY(PROJ)   ENERGY CHANGE     GRAD(0)  GRAD(ORB)   GRAD(CI)     STEP       TIME

   1   28   12    0     -23.93409418     -23.93581958   -0.00172539    0.05945221 0.00000000 0.00000000  0.31D-01      0.01
   2   15   12    0     -23.93582059     -23.93582061   -0.00000002    0.00035532 0.00000000 0.00000000  0.75D-04      0.02

 ** WVFN ****  CONVERGENCE REACHED, FINAL GRADIENT:  0.10D-07



 Results for state 1.3
 =====================

 !MCSCF STATE 1.3 Energy              -23.935820613570
 Nuclear energy                         0.00000000
 Kinetic energy                        18.63769668
 One electron energy                  -41.02750162
 Two electron energy                   17.09168101
 Virial ratio                           2.28426924

 !MCSCF STATE 1.3 Dipole moment         0.00000000     0.00000000     0.00000000
 Dipole moment /Debye                   0.00000000     0.00000000     0.00000000



 Results for state 1.5
 =====================

 !MCSCF STATE 1.5 Energy              -23.935820613562
 Nuclear energy                         0.00000000
 Kinetic energy                        18.63769669
 One electron energy                  -41.02750162
 Two electron energy                   17.09168101
 Virial ratio                           2.28426924

 !MCSCF STATE 1.5 Dipole moment         0.00000000     0.00000000     0.00000000
 Dipole moment /Debye                   0.00000000     0.00000000     0.00000000



 Results for state 1.2
 =====================

 !MCSCF STATE 1.2 Energy              -23.935820613562
 Nuclear energy                         0.00000000
 Kinetic energy                        18.63769669
 One electron energy                  -41.02750162
 Two electron energy                   17.09168101
 Virial ratio                           2.28426924

 !MCSCF STATE 1.2 Dipole moment         0.00000000     0.00000000     0.00000000
 Dipole moment /Debye                   0.00000000     0.00000000     0.00000000

 State-averaged charge density matrix saved on record  5202.2 (density set 1)

 !MCSCF expec        <1.3|EKIN|1.3>    18.637696684814
 !MCSCF expec        <1.5|EKIN|1.5>    18.637696686010
 !MCSCF expec        <1.2|EKIN|1.2>    18.637696686010

 !MCSCF expec         <1.3|POT|1.3>    -8.770110654299
 !MCSCF expec         <1.5|POT|1.5>    -8.770110654518
 !MCSCF expec         <1.2|POT|1.2>    -8.770110654518


 NATURAL ORBITALS (state averaged)
 =================================

   Orb     Occ        Energy       Coefficients

                                   1 1s      1 1s      1 1s      1 3d0     1 3d2+    1 3d0     1 3d2+ 

   1.1  2.00000    -1.594737     1.000058  0.000013 -0.000073  0.000000  0.000000  0.000000  0.000000

                                   1 2px     1 2px     1 2px     1 4f1+    1 4f3+ 

   1.2  1.66667    -0.592867     1.006155  0.001312 -0.010519  0.000000  0.000000

                                   1 2py     1 2py     1 2py     1 4f1-    1 4f3- 

   1.3  1.66667    -0.592867     1.006155  0.001312 -0.010519  0.000000  0.000000

                                   1 2pz     1 2pz     1 2pz     1 4f0     1 4f2+ 

   1.5  1.66667    -0.592867     1.006155  0.001312 -0.010519  0.000000  0.000000
 

 EXTRA SYMMETRY OF MOS IN SYMMETRY 1:   1 1 2 3 3 2 1

 Natural orbital dump (state averaged) at molpro section  5202.2    (Orbital set 2)


 CI vector for state symmetry 1
 ==============================

 2 a 2           1.0000000

 TOTAL ENERGIES                       -23.93582061

 CI vector for state symmetry 2
 ==============================

 2 2 a           1.0000000

 TOTAL ENERGIES                       -23.93582061

 CI vector for state symmetry 3
 ==============================

 a 2 2           1.0000000

 TOTAL ENERGIES                       -23.93582061



 **********************************************************************************************************************************
 DATASETS  * FILE   NREC   LENGTH (MB)   RECORD NAMES
              1      21       20.01       500      610      700      900      950      970     1000      129      960     1100   
                                          VAR    BASINP    GEOM    SYMINP    ZMAT    AOBASIS   BASIS     P2S    ABASIS      S 
                                         1400     1410     1420     1200     1210     1080     1600     1650     1300     1700   
                                         EKIN       V       ECP      H0       H01     AOSYM     SMH    MOLCAS    ERIS     OPER   
                                         1380   
                                         JKOP   

              2       5        5.25       700     1000      520     4202     5202   
                                         GEOM     BASIS   MCVARS     RHF     MCSCF   

 PROGRAMS   *        TOTAL     MULTI       RHF       INT
 CPU TIMES  *         1.66      0.03      0.03      1.52
 REAL TIME  *        14.24 SEC
 DISK USED  *        34.41 MB      
 **********************************************************************************************************************************


 PROGRAM * RHF-SCF (OPEN SHELL)       Authors: W. Meyer, H.-J. Werner


 NUMBER OF ELECTRONS:       4+    3-    SPACE SYMMETRY=3    SPIN SYMMETRY: Doublet 
 CONVERGENCE THRESHOLDS:    1.00E-05 (Density)    1.00E-07 (Energy)
 MAX. NUMBER OF ITERATIONS:        0
 INTERPOLATION TYPE:            DIIS
 INTERPOLATION STEPS:              2 (START)      1 (STEP)
 LEVEL SHIFTS:                 -0.60 (CLOSED) -0.30 (OPEN) 


 Singly occupied orbitals:      1.3
 Molecular orbitals read from record     5202.2  Type=MCSCF/NATURAL (state averaged)

 Molecular orbital dump at record        2101.2

 ITERATION    DDIFF          GRAD             ENERGY        2-EL.EN.            DIPOLE MOMENTS         DIIS   ORB.
    1      0.000D+00      0.000D+00       -23.93582061     34.183362    0.00000    0.00000    0.00000    0    start

 Final alpha occupancy:   1   1   1   0   1   0   0   0
 Final beta  occupancy:   1   1   0   0   1   0   0   0

 !RHF STATE 1.3 Energy                -23.935820613570
 Nuclear energy                         0.00000000
 One-electron energy                  -41.02750162
 Two-electron energy                   17.09168101
 Virial quotient                       -1.28426924
 !RHF STATE 1.3 Dipole moment           0.00000000     0.00000000     0.00000000
 Dipole moment /Debye                   0.00000000     0.00000000     0.00000000
 

 !RHF expec          <1.3|EKIN|1.3>    18.637696684814
 
 !RHF expec           <1.3|POT|1.3>    -8.770110654299

 ELECTRON ORBITALS
 =================


   Orb  Occ    Energy  Couls-En    Coefficients

                                   1 1s      1 1s      1 1s      1 3d0     1 3d2+    1 3d0     1 3d2+ 

   1.1   2    -1.5947   -8.0500  1.000058  0.000013 -0.000073  0.000000  0.000000  0.000000  0.000000

                                   1 2px     1 2px     1 2px     1 4f1+    1 4f3+ 

   1.2   2    -0.5929   -6.2163  1.006155  0.001312 -0.010519  0.000000  0.000000

                                   1 2py     1 2py     1 2py     1 4f1-    1 4f3- 

   1.3   +    -0.5929   -6.2163  1.006155  0.001312 -0.010519  0.000000  0.000000

                                   1 2pz     1 2pz     1 2pz     1 4f0     1 4f2+ 

   1.5   2    -0.5929   -6.2163  1.006155  0.001312 -0.010519  0.000000  0.000000

 HOMO      1.2    -0.592867 =     -16.1327eV
 LUMO      2.2     0.808484 =      22.0000eV
 LUMO-HOMO         1.401351 =      38.1327eV


 **********************************************************************************************************************************
 DATASETS  * FILE   NREC   LENGTH (MB)   RECORD NAMES
              1      21       20.01       500      610      700      900      950      970     1000      129      960     1100   
                                          VAR    BASINP    GEOM    SYMINP    ZMAT    AOBASIS   BASIS     P2S    ABASIS      S 
                                         1400     1410     1420     1200     1210     1080     1600     1650     1300     1700   
                                         EKIN       V       ECP      H0       H01     AOSYM     SMH    MOLCAS    ERIS     OPER   
                                         1380   
                                         JKOP   

              2       6        7.75       700     1000      520     4202     5202     2101   
                                         GEOM     BASIS   MCVARS     RHF     MCSCF     RHF  

 PROGRAMS   *        TOTAL       RHF     MULTI       RHF       INT
 CPU TIMES  *         1.67      0.01      0.03      0.03      1.52
 REAL TIME  *        14.39 SEC
 DISK USED  *        34.41 MB      
 **********************************************************************************************************************************
 SETTING SCF(I)         =       -23.93582061  AU                              
 SETTING _CC_NORM_MAX   =         2.00000000                                  


 PROGRAM * FCI (Full CI)     Author: P.J. Knowles, 1984

 ***  Initialisation ***
 
 Molecular orbitals read from record     2101.2  Type=RHF/CANONICAL (state 1.3)
 
 Frozen orbitals:              0 (  0  0  0  0  0  0  0  0)
 Active orbitals:             29 (  7  5  5  2  5  2  2  1)
 Active electrons:             7
 Spin quantum number:          0.5
 Orbital pairs:                    83      57      57      48      57      48      48      37
 Strings:                        2937    2929    2929    2986    2929    2986    2986    3069
                                  454     453     453     464     453     464     464     449
 Determinants:                       10848402        10848385        10848385        10848472
                                     10848385        10848472        10848472        10847181

 Load integrals                1.7 sec
 Transform integrals           1.7 sec
 Storage for integrals:          26628
 Remaining memory:           *********

 Core energy:               0.00000000
 Run Hamiltonian processor DAVIDSON
 Symmetry:                   3
 Trial vector:                  0.00
 Result vector:                 0.00
 Maximum iterations:          100
 Convergence threshold:         0.0000100
 RHS vector:                    0.00
 Hamiltonian shift:             0.0000000
 Output threshold:              0.0500000
 Options:                        0
 Number of roots:             1

 Hamiltonian diagonaliser entered at time      1.72

 Initial configuration generated:
 6816948      1.0000000    -23.9358206

 It  Tr    CPU  Convergence   Energy       Pop     dE(next)

  1   1   19.6  1.00000000   -23.93582061
                                           0.00 -0.25164002 -0.25164002
  2   1   33.5  0.18812576   -24.14669485
                                           0.01 -0.01361992 -0.01358448
  3   1   50.1  0.03814154   -24.15782534
                                           0.02 -0.00098104 -0.00096802
  4   1   70.2  0.01161633   -24.15858741
                                           0.06 -0.00010366 -0.00010023
  5   1   96.6  0.00485966   -24.15868147
                                           0.10 -0.00001062 -0.00000998
  6   1  131.4  0.00133050   -24.15869188
                                           0.15 -0.00000117 -0.00000107
  7   1  176.4  0.00039694   -24.15869294
                                           0.20 -0.00000017 -0.00000016
  8   1  230.2  0.00013793   -24.15869310
                                           0.22 -0.00000002 -0.00000002
  9   1  287.3  0.00004414   -24.15869312
                                           0.24 -0.00000000 -0.00000000
 10   1  348.6  0.00001462   -24.15869312
                                           0.26 -0.00000000 -0.00000000
 11   1  415.6  0.00000531   -24.15869312


RESULTS FOR STATE 1.3
=====================

 Correlation energy                    -0.222872507487
 !FCI STATE 1.3 Energy                -24.158693121057
 CI Vector (threshold= 0.500E-01)
       0.979742257774  1  8 13 20  1  8 20
 /EOF
 !FCI STATE 1.3 Dipole moment           0.00000000     0.00000000     0.00000000
 Dipole moment /Debye                   0.00000000     0.00000000     0.00000000
 

 !FCI expec          <1.3|EKIN|1.3>    18.841407558176
 
 !FCI expec           <1.3|POT|1.3>    -8.766132982682


 **********************************************************************************************************************************
 DATASETS  * FILE   NREC   LENGTH (MB)   RECORD NAMES
              1      21       20.01       500      610      700      900      950      970     1000      129      960     1100   
                                          VAR    BASINP    GEOM    SYMINP    ZMAT    AOBASIS   BASIS     P2S    ABASIS      S 
                                         1400     1410     1420     1200     1210     1080     1600     1650     1300     1700   
                                         EKIN       V       ECP      H0       H01     AOSYM     SMH    MOLCAS    ERIS     OPER   
                                         1380   
                                         JKOP   

              2       6        7.75       700     1000      520     4202     5202     2101   
                                         GEOM     BASIS   MCVARS     RHF     MCSCF     RHF  

 PROGRAMS   *        TOTAL       FCI       RHF     MULTI       RHF       INT
 CPU TIMES  *       417.03    415.36      0.01      0.03      0.03      1.52
 REAL TIME  *       447.87 SEC
 DISK USED  *         2.02 GB      
 **********************************************************************************************************************************
 SETTING POSTHF(I)      =       -24.15869312  AU                              
                                                                                                                                                                                                                                                                

        SCF            POSTHF        EKIN          POT
    -23.93582061   -24.15869312   18.84140756   -8.76613298
                                                  

 FCI/USERDEF energy=    -24.158693121057

        FCI             RHF-SCF         MULTI           RHF-SCF 
    -24.15869312    -23.93582061    -23.93582061    -23.93761881
 **********************************************************************************************************************************
 Molpro calculation terminated
 Variable memory released
