
 Primary working directories    : /global/cscratch1/sd/aannabe
 Secondary working directories  : /global/cscratch1/sd/aannabe
 Wavefunction directory         : /global/homes/a/aannabe/wfu/
 Main file repository           : /global/cscratch1/sd/aannabe/

 SHA1      : 2873118e99aab1bc19f5b6fc1784693c06d15c95
 NAME      : 2015.1.8
 ARCHNAME  : linux/x86_64
 FC        : /opt/cray/pe/craype/2.5.5/bin/ftn
 BLASLIB   : -Wl,-_start-group /opt/intel/compilers_and_libraries_2016.3.210/linux/mkl/lib/intel64/libmkl_intel_ilp64.a /opt/intel/compilers_and_libraries_2016.3.210/linux/mkl/lib/intel64/libmkl_intel_thread.a /opt/intel/compilers_and_libraries_2016.3.210/linux/mkl/lib/intel64/libmkl_core.a -Wl,-_end-group
 id        : lbl

 Nodes     nprocs
 nid00461     1

 Using customized tuning parameters: mindgm=8; mindgv=16; mindgc=4; mindgr=1; noblas=0; minvec=7
 default implementation of scratch files=df  

 ***,Mn
 memory,512,m
 gthresh,twoint=1.e-12
 
 gprint,basis,orbitals
 gexpec,ekin,pot
 
 angstrom
 geometry={
 1                                                                               ! Number of atoms
 Mn 0.0 0.0 0.0
 }
 
 basis={
 Including file /global/homes/a/aannabe/docs/accurate/ccECP_Kh/pps/Mn.pp
                                              !include,/global/homes/a/aannabe/docs/accurate/ccECP_Kh/basis/aug-cc-pVnZ/Mn_qz.basis
 Including file /global/homes/a/aannabe/docs/accurate/ccECP_Kh/basis/cc-pVnZ/Mn_qz.basis
 }
 
 {rhf
  start,atden
  print,orbitals=2
  wf,15,1,5
  occ,4,1,1,1,1,1,1,0
  open,3.1,4.1,1.4,1.6,1.7
  sym,1,1,1,3,2
  orbital,4202.2
 }
 pop
 {multi
  start,4202.2
  occ,4,1,1,1,1,1,1,0
  closed,2,1,1,0,1,0,0
  wf,15,1,5;state,1
  natorb,ci,print
  orbital,5202.2
 }
 {rhf,nitord=1,maxit=0
  start,5202.2
  wf,15,1,5
  occ,4,1,1,1,1,1,1,0
  open,3.1,4.1,1.4,1.6,1.7
 }
 
 scf(i)=energy
 
 _CC_NORM_MAX=2.0
 {ci
 maxit,100
 core
 }
 posthf(i)=energy
 
 table,scf,posthf,ekin,pot
 save,4.csv,new
 
 

 Variables initialized (889), CPU time= 0.01 sec
 Commands  initialized (702), CPU time= 0.01 sec, 572 directives.
 Default parameters read. Elapsed time= 0.24 sec

 Checking input...
 Passed
1


                                         ***  PROGRAM SYSTEM MOLPRO  ***
                                       Copyright, TTI GmbH Stuttgart, 2015
                                    Version 2015.1 linked Sep  7 2016 23:09:38


 **********************************************************************************************************************************
 LABEL *   Mn                                                                            
  64 bit serial version                                                                  DATE: 13-Nov-18          TIME: 22:23:15  
 **********************************************************************************************************************************

 SHA1:             2873118e99aab1bc19f5b6fc1784693c06d15c95
 **********************************************************************************************************************************

 THRESHOLDS:

 ZERO    =  1.00D-12  ONEINT  =  1.00D-12  TWOINT  =  1.00D-12  PREFAC  =  1.00D-14  LOCALI  =  1.00D-09  EORDER  =  1.00D-04
 ENERGY  =  0.00D+00  ETEST   =  0.00D+00  EDENS   =  0.00D+00  THRDEDEF=  1.00D-06  GRADIENT=  1.00D-02  STEP    =  1.00D-03
 ORBITAL =  1.00D-05  CIVEC   =  1.00D-05  COEFF   =  1.00D-04  PRINTCI =  5.00D-02  PUNCHCI =  9.90D+01  OPTGRAD =  3.00D-04
 OPTENERG=  1.00D-06  OPTSTEP =  3.00D-04  THRGRAD =  1.00D-10  COMPRESS=  1.00D-11  VARMIN  =  1.00D-07  VARMAX  =  1.00D-03
 THRDOUB =  0.00D+00  THRDIV  =  1.00D-05  THRRED  =  1.00D-07  THRPSP  =  1.00D+00  THRDC   =  1.00D-10  THRCS   =  1.00D-10
 THRNRM  =  1.00D-08  THREQ   =  0.00D+00  THRDE   =  1.00D+00  THRREF  =  1.00D-05  SPARFAC =  1.00D+00  THRDLP  =  1.00D-07
 THRDIA  =  1.00D-10  THRDLS  =  1.00D-07  THRGPS  =  0.00D+00  THRKEX  =  0.00D+00  THRDIS  =  2.00D-01  THRVAR  =  1.00D-10
 THRLOC  =  1.00D-06  THRGAP  =  1.00D-06  THRLOCT = -1.00D+00  THRGAPT = -1.00D+00  THRORB  =  1.00D-06  THRMLTP =  0.00D+00
 THRCPQCI=  1.00D-10  KEXTA   =  0.00D+00  THRCOARS=  0.00D+00  SYMTOL  =  1.00D-06  GRADTOL =  1.00D-06  THROVL  =  1.00D-08
 THRORTH =  1.00D-08  GRID    =  1.00D-06  GRIDMAX =  1.00D-03  DTMAX   =  0.00D+00  THROCCDE=  1.00D-01  THROCCDE=  1.00D-01



 ZUNIT=ANG
 

Geometry recognized as XYZ


 Variable memory set to  512000000 words,  buffer space   230000 words

 SETTING BASIS          =    USERDEF


 Recomputing integrals since basis changed


 Using spherical harmonics



 PROGRAM * SEWARD (Integral evaluation for generally contracted gaussian basis sets)     Author: Roland Lindh, 1990

 Geometry written to block  1 of record 700

 Orientation using atomic masses  
 Molecule type: Atom
 Symmetry elements: X,Y,Z
 Rotational constants:       0.0000000      0.0000000      0.0000000 GHz  (calculated with average atomic masses)

 Point group  D2h 



 ATOMIC COORDINATES

 NR  ATOM    CHARGE       X              Y              Z

   1  MN     15.00    0.000000000    0.000000000    0.000000000


          MN  CORE POTENTIAL

          d POTENTIAL

 POWERS             1              3              2              2
 EXPONENTIALS   21.91937       21.35527       21.27163       7.939140    
 COEFFICIENTS   15.00000       328.7906      -162.0517      -1.826943    

          s - d POTENTIAL

 POWERS             2              2
 EXPONENTIALS   18.92045       8.327648    
 COEFFICIENTS   244.6687       33.54163    

          p - d POTENTIAL

 POWERS             2              2
 EXPONENTIALS   20.17347       7.800479    
 COEFFICIENTS   162.3503       24.17957    


 BASIS DATA

   Nr Sym  Nuc  Type         Exponents   Contraction coefficients

    1.1 Ag    1  1s          76.008334     0.000993   -0.000199   -0.000091   -0.000526    0.004097    0.000000
    2.1 Ag                   39.277974    -0.014796    0.003352    0.005374    0.011380   -0.036353    0.000000
    3.1 Ag                   20.405805     0.120710   -0.029413   -0.058494   -0.116034    0.265708    0.000000
    4.1 Ag                   12.218680    -0.124001    0.032091    0.056345    0.149329   -0.485187    0.000000
    5.1 Ag                    7.182690    -0.320200    0.083152    0.227874    0.360154   -0.232288    0.000000
    6.1 Ag                    3.850780    -0.105622    0.021283   -0.008420    0.025174   -0.241798    0.000000
                              2.142489     0.472721   -0.129989   -0.320777   -1.170125    3.387918    0.000000
                              1.049631     0.620387   -0.239006   -0.813137   -0.872123   -3.268573    0.000000
                              0.508682     0.204553   -0.180315    0.326475    2.550633   -0.837901    0.000000
                              0.192243     0.005924    0.110148    1.447540    0.090343    5.262271    0.000000
                              0.108899    -0.000097    0.404426    0.021321   -2.210588   -4.299847    0.000000
                              0.053425    -0.000185    0.517307   -0.678323    0.470582   -0.445240    0.000000
                              0.025236     0.000061    0.148139   -0.452828    0.832175    1.294026    1.000000
    7.1 Ag    1  1s           1.916448     1.000000
    8.1 Ag    1  1s           2.807571     1.000000
    9.1 Ag    1  3d0        132.688182     0.000030
                             45.266024     0.005294
                             23.267336     0.029143
                             10.605694     0.076775
                              5.074684     0.168551
                              2.469857     0.256832
                              1.205883     0.289891
                              0.590569     0.257154
                              0.292055     0.181726
                              0.149190     0.089986
                              0.076511     0.034595
   10.1 Ag    1  3d2+       132.688182     0.000030
                             45.266024     0.005294
                             23.267336     0.029143
                             10.605694     0.076775
                              5.074684     0.168551
                              2.469857     0.256832
                              1.205883     0.289891
                              0.590569     0.257154
                              0.292055     0.181726
                              0.149190     0.089986
                              0.076511     0.034595
   11.1 Ag    1  3d0        132.688182    -0.000021
                             45.266024    -0.005449
                             23.267336    -0.029032
                             10.605694    -0.079825
                              5.074684    -0.174415
                              2.469857    -0.253404
                              1.205883    -0.174305
                              0.590569     0.045081
                              0.292055     0.345760
                              0.149190     0.263725
                              0.076511     0.371715
   12.1 Ag    1  3d2+       132.688182    -0.000021
                             45.266024    -0.005449
                             23.267336    -0.029032
                             10.605694    -0.079825
                              5.074684    -0.174415
                              2.469857    -0.253404
                              1.205883    -0.174305
                              0.590569     0.045081
                              0.292055     0.345760
                              0.149190     0.263725
                              0.076511     0.371715
   13.1 Ag    1  3d0        132.688182     0.000060
                             45.266024     0.008385
                             23.267336     0.045800
                             10.605694     0.129215
                              5.074684     0.284327
                              2.469857     0.270760
                              1.205883    -0.101591
                              0.590569    -0.580677
                              0.292055    -0.181696
                              0.149190     0.021003
                              0.076511     0.723658
   14.1 Ag    1  3d2+       132.688182     0.000060
                             45.266024     0.008385
                             23.267336     0.045800
                             10.605694     0.129215
                              5.074684     0.284327
                              2.469857     0.270760
                              1.205883    -0.101591
                              0.590569    -0.580677
                              0.292055    -0.181696
                              0.149190     0.021003
                              0.076511     0.723658
   15.1 Ag    1  3d0        132.688182    -0.000037
                             45.266024    -0.010809
                             23.267336    -0.055582
                             10.605694    -0.172053
                              5.074684    -0.381889
                              2.469857    -0.130399
                              1.205883     0.818993
                              0.590569     0.180145
                              0.292055    -0.604720
                              0.149190    -0.733584
                              0.076511     1.058741
   16.1 Ag    1  3d2+       132.688182    -0.000037
                             45.266024    -0.010809
                             23.267336    -0.055582
                             10.605694    -0.172053
                              5.074684    -0.381889
                              2.469857    -0.130399
                              1.205883     0.818993
                              0.590569     0.180145
                              0.292055    -0.604720
                              0.149190    -0.733584
                              0.076511     1.058741
   17.1 Ag    1  3d0        132.688182     0.000000
                             45.266024     0.000000
                             23.267336     0.000000
                             10.605694     0.000000
                              5.074684     0.000000
                              2.469857     0.000000
                              1.205883     0.000000
                              0.590569     0.000000
                              0.292055     0.000000
                              0.149190     0.000000
                              0.076511     1.000000
   18.1 Ag    1  3d2+       132.688182     0.000000
                             45.266024     0.000000
                             23.267336     0.000000
                             10.605694     0.000000
                              5.074684     0.000000
                              2.469857     0.000000
                              1.205883     0.000000
                              0.590569     0.000000
                              0.292055     0.000000
                              0.149190     0.000000
                              0.076511     1.000000
   19.1 Ag    1  3d0          3.346946     1.000000
   20.1 Ag    1  3d2+         3.346946     1.000000
   21.1 Ag    1  3d0          3.910783     1.000000
   22.1 Ag    1  3d2+         3.910783     1.000000
   23.1 Ag    1  5g0          0.893773     1.000000
   24.1 Ag    1  5g4+         0.893773     1.000000
   25.1 Ag    1  5g2+         0.893773     1.000000
   26.1 Ag    1  5g0          3.265719     1.000000
   27.1 Ag    1  5g4+         3.265719     1.000000
   28.1 Ag    1  5g2+         3.265719     1.000000
   29.1 Ag    1  5g0          5.760733     1.000000
   30.1 Ag    1  5g4+         5.760733     1.000000
   31.1 Ag    1  5g2+         5.760733     1.000000
    1.2 B3u   1  2px        113.479709     0.000103    0.000019   -0.000197    0.000014   -0.000214    0.000000
    2.2 B3u                  58.160819    -0.000894   -0.000024    0.001354    0.000421    0.001869    0.000000
    3.2 B3u                  30.043076     0.008844   -0.001224   -0.010102   -0.008573   -0.014399    0.000000
    4.2 B3u                  16.753323    -0.019685    0.002320    0.030603    0.038797    0.088663    0.000000
    5.2 B3u                  10.705604    -0.069190    0.020758    0.046200    0.099338    0.116117    0.000000
    6.2 B3u                   5.557903     0.011508   -0.011572   -0.017588   -0.144445   -0.476665    0.000000
                              3.080151     0.282313   -0.062919   -0.395920   -0.821182   -1.471896    0.000000
                              1.582963     0.438678   -0.136754   -0.419093   -0.250785    2.463635    0.000000
                              0.810922     0.309843   -0.067295    0.075017    1.790170    0.102508    0.000000
                              0.413396     0.083945   -0.031024    1.092986   -0.399547   -2.774601    0.000000
                              0.195480     0.007517    0.378981    0.008680   -1.294382    2.436254    0.000000
                              0.072688     0.001100    0.507824   -0.756369    0.847047   -0.617019    0.000000
                              0.035877     0.000290    0.260941   -0.045149    0.151710   -0.323676    1.000000
    7.2 B3u   1  2px          2.153887     1.000000
    8.2 B3u   1  2px          7.123182     1.000000
    9.2 B3u   1  4f1+         0.405052     1.000000
   10.2 B3u   1  4f3+         0.405052     1.000000
   11.2 B3u   1  4f1+         1.369701     1.000000
   12.2 B3u   1  4f3+         1.369701     1.000000
   13.2 B3u   1  4f1+         4.631705     1.000000
   14.2 B3u   1  4f3+         4.631705     1.000000
   15.2 B3u   1  4f1+         2.949498     1.000000
   16.2 B3u   1  4f3+         2.949498     1.000000
   17.2 B3u   1  6h1+         2.093484     1.000000
   18.2 B3u   1  6h3+         2.093484     1.000000
   19.2 B3u   1  6h5+         2.093484     1.000000
   20.2 B3u   1  6h1+         5.267512     1.000000
   21.2 B3u   1  6h3+         5.267512     1.000000
   22.2 B3u   1  6h5+         5.267512     1.000000
    1.3 B2u   1  2py        113.479709     0.000103    0.000019   -0.000197    0.000014   -0.000214    0.000000
    2.3 B2u                  58.160819    -0.000894   -0.000024    0.001354    0.000421    0.001869    0.000000
    3.3 B2u                  30.043076     0.008844   -0.001224   -0.010102   -0.008573   -0.014399    0.000000
    4.3 B2u                  16.753323    -0.019685    0.002320    0.030603    0.038797    0.088663    0.000000
    5.3 B2u                  10.705604    -0.069190    0.020758    0.046200    0.099338    0.116117    0.000000
    6.3 B2u                   5.557903     0.011508   -0.011572   -0.017588   -0.144445   -0.476665    0.000000
                              3.080151     0.282313   -0.062919   -0.395920   -0.821182   -1.471896    0.000000
                              1.582963     0.438678   -0.136754   -0.419093   -0.250785    2.463635    0.000000
                              0.810922     0.309843   -0.067295    0.075017    1.790170    0.102508    0.000000
                              0.413396     0.083945   -0.031024    1.092986   -0.399547   -2.774601    0.000000
                              0.195480     0.007517    0.378981    0.008680   -1.294382    2.436254    0.000000
                              0.072688     0.001100    0.507824   -0.756369    0.847047   -0.617019    0.000000
                              0.035877     0.000290    0.260941   -0.045149    0.151710   -0.323676    1.000000
    7.3 B2u   1  2py          2.153887     1.000000
    8.3 B2u   1  2py          7.123182     1.000000
    9.3 B2u   1  4f1-         0.405052     1.000000
   10.3 B2u   1  4f3-         0.405052     1.000000
   11.3 B2u   1  4f1-         1.369701     1.000000
   12.3 B2u   1  4f3-         1.369701     1.000000
   13.3 B2u   1  4f1-         4.631705     1.000000
   14.3 B2u   1  4f3-         4.631705     1.000000
   15.3 B2u   1  4f1-         2.949498     1.000000
   16.3 B2u   1  4f3-         2.949498     1.000000
   17.3 B2u   1  6h1-         2.093484     1.000000
   18.3 B2u   1  6h3-         2.093484     1.000000
   19.3 B2u   1  6h5-         2.093484     1.000000
   20.3 B2u   1  6h1-         5.267512     1.000000
   21.3 B2u   1  6h3-         5.267512     1.000000
   22.3 B2u   1  6h5-         5.267512     1.000000
    1.4 B1g   1  3d2-       132.688182     0.000030   -0.000021    0.000060   -0.000037    0.000000
    2.4 B1g                  45.266024     0.005294   -0.005449    0.008385   -0.010809    0.000000
    3.4 B1g                  23.267336     0.029143   -0.029032    0.045800   -0.055582    0.000000
    4.4 B1g                  10.605694     0.076775   -0.079825    0.129215   -0.172053    0.000000
    5.4 B1g                   5.074684     0.168551   -0.174415    0.284327   -0.381889    0.000000
                              2.469857     0.256832   -0.253404    0.270760   -0.130399    0.000000
                              1.205883     0.289891   -0.174305   -0.101591    0.818993    0.000000
                              0.590569     0.257154    0.045081   -0.580677    0.180145    0.000000
                              0.292055     0.181726    0.345760   -0.181696   -0.604720    0.000000
                              0.149190     0.089986    0.263725    0.021003   -0.733584    0.000000
                              0.076511     0.034595    0.371715    0.723658    1.058741    1.000000
    6.4 B1g   1  3d2-         3.346946     1.000000
    7.4 B1g   1  3d2-         3.910783     1.000000
    8.4 B1g   1  5g2-         0.893773     1.000000
    9.4 B1g   1  5g4-         0.893773     1.000000
   10.4 B1g   1  5g2-         3.265719     1.000000
   11.4 B1g   1  5g4-         3.265719     1.000000
   12.4 B1g   1  5g2-         5.760733     1.000000
   13.4 B1g   1  5g4-         5.760733     1.000000
    1.5 B1u   1  2pz        113.479709     0.000103    0.000019   -0.000197    0.000014   -0.000214    0.000000
    2.5 B1u                  58.160819    -0.000894   -0.000024    0.001354    0.000421    0.001869    0.000000
    3.5 B1u                  30.043076     0.008844   -0.001224   -0.010102   -0.008573   -0.014399    0.000000
    4.5 B1u                  16.753323    -0.019685    0.002320    0.030603    0.038797    0.088663    0.000000
    5.5 B1u                  10.705604    -0.069190    0.020758    0.046200    0.099338    0.116117    0.000000
    6.5 B1u                   5.557903     0.011508   -0.011572   -0.017588   -0.144445   -0.476665    0.000000
                              3.080151     0.282313   -0.062919   -0.395920   -0.821182   -1.471896    0.000000
                              1.582963     0.438678   -0.136754   -0.419093   -0.250785    2.463635    0.000000
                              0.810922     0.309843   -0.067295    0.075017    1.790170    0.102508    0.000000
                              0.413396     0.083945   -0.031024    1.092986   -0.399547   -2.774601    0.000000
                              0.195480     0.007517    0.378981    0.008680   -1.294382    2.436254    0.000000
                              0.072688     0.001100    0.507824   -0.756369    0.847047   -0.617019    0.000000
                              0.035877     0.000290    0.260941   -0.045149    0.151710   -0.323676    1.000000
    7.5 B1u   1  2pz          2.153887     1.000000
    8.5 B1u   1  2pz          7.123182     1.000000
    9.5 B1u   1  4f0          0.405052     1.000000
   10.5 B1u   1  4f2+         0.405052     1.000000
   11.5 B1u   1  4f0          1.369701     1.000000
   12.5 B1u   1  4f2+         1.369701     1.000000
   13.5 B1u   1  4f0          4.631705     1.000000
   14.5 B1u   1  4f2+         4.631705     1.000000
   15.5 B1u   1  4f0          2.949498     1.000000
   16.5 B1u   1  4f2+         2.949498     1.000000
   17.5 B1u   1  6h2+         2.093484     1.000000
   18.5 B1u   1  6h4+         2.093484     1.000000
   19.5 B1u   1  6h0          2.093484     1.000000
   20.5 B1u   1  6h2+         5.267512     1.000000
   21.5 B1u   1  6h4+         5.267512     1.000000
   22.5 B1u   1  6h0          5.267512     1.000000
    1.6 B2g   1  3d1+       132.688182     0.000030   -0.000021    0.000060   -0.000037    0.000000
    2.6 B2g                  45.266024     0.005294   -0.005449    0.008385   -0.010809    0.000000
    3.6 B2g                  23.267336     0.029143   -0.029032    0.045800   -0.055582    0.000000
    4.6 B2g                  10.605694     0.076775   -0.079825    0.129215   -0.172053    0.000000
    5.6 B2g                   5.074684     0.168551   -0.174415    0.284327   -0.381889    0.000000
                              2.469857     0.256832   -0.253404    0.270760   -0.130399    0.000000
                              1.205883     0.289891   -0.174305   -0.101591    0.818993    0.000000
                              0.590569     0.257154    0.045081   -0.580677    0.180145    0.000000
                              0.292055     0.181726    0.345760   -0.181696   -0.604720    0.000000
                              0.149190     0.089986    0.263725    0.021003   -0.733584    0.000000
                              0.076511     0.034595    0.371715    0.723658    1.058741    1.000000
    6.6 B2g   1  3d1+         3.346946     1.000000
    7.6 B2g   1  3d1+         3.910783     1.000000
    8.6 B2g   1  5g1+         0.893773     1.000000
    9.6 B2g   1  5g3+         0.893773     1.000000
   10.6 B2g   1  5g1+         3.265719     1.000000
   11.6 B2g   1  5g3+         3.265719     1.000000
   12.6 B2g   1  5g1+         5.760733     1.000000
   13.6 B2g   1  5g3+         5.760733     1.000000
    1.7 B3g   1  3d1-       132.688182     0.000030   -0.000021    0.000060   -0.000037    0.000000
    2.7 B3g                  45.266024     0.005294   -0.005449    0.008385   -0.010809    0.000000
    3.7 B3g                  23.267336     0.029143   -0.029032    0.045800   -0.055582    0.000000
    4.7 B3g                  10.605694     0.076775   -0.079825    0.129215   -0.172053    0.000000
    5.7 B3g                   5.074684     0.168551   -0.174415    0.284327   -0.381889    0.000000
                              2.469857     0.256832   -0.253404    0.270760   -0.130399    0.000000
                              1.205883     0.289891   -0.174305   -0.101591    0.818993    0.000000
                              0.590569     0.257154    0.045081   -0.580677    0.180145    0.000000
                              0.292055     0.181726    0.345760   -0.181696   -0.604720    0.000000
                              0.149190     0.089986    0.263725    0.021003   -0.733584    0.000000
                              0.076511     0.034595    0.371715    0.723658    1.058741    1.000000
    6.7 B3g   1  3d1-         3.346946     1.000000
    7.7 B3g   1  3d1-         3.910783     1.000000
    8.7 B3g   1  5g1-         0.893773     1.000000
    9.7 B3g   1  5g3-         0.893773     1.000000
   10.7 B3g   1  5g1-         3.265719     1.000000
   11.7 B3g   1  5g3-         3.265719     1.000000
   12.7 B3g   1  5g1-         5.760733     1.000000
   13.7 B3g   1  5g3-         5.760733     1.000000
    1.8 Au    1  4f2-         0.405052     1.000000
    2.8 Au    1  4f2-         1.369701     1.000000
    3.8 Au    1  4f2-         4.631705     1.000000
    4.8 Au    1  4f2-         2.949498     1.000000
    5.8 Au    1  6h4-         2.093484     1.000000
    6.8 Au    1  6h2-         2.093484     1.000000
    7.8 Au    1  6h4-         5.267512     1.000000
    8.8 Au    1  6h2-         5.267512     1.000000

 NUCLEAR CHARGE:                   15
 NUMBER OF PRIMITIVE AOS:         265
 NUMBER OF SYMMETRY AOS:          202
 NUMBER OF CONTRACTIONS:          144   (  31Ag  +  22B3u +  22B2u +  13B1g +  22B1u +  13B2g +  13B3g +   8Au  )
 NUMBER OF CORE ORBITALS:           4   (   1Ag  +   1B3u +   1B2u +   0B1g +   1B1u +   0B2g +   0B3g +   0Au  )
 NUMBER OF VALENCE ORBITALS:        6   (   3Ag  +   0B3u +   0B2u +   1B1g +   0B1u +   1B2g +   1B3g +   0Au  )


 NUCLEAR REPULSION ENERGY    0.00000000

 EXTRA SYMMETRY OF AOS IN SYMMETRY 1:   1 1 1 1 1 1 1 1 2 3   2 3 2 3 2 3 2 3 2 3   2 3 4 5 6 4 5 6 4 5   6
 EXTRA SYMMETRY OF AOS IN SYMMETRY 2:   1 1 1 1 1 1 1 1 2 3   2 3 2 3 2 3 4 5 6 4   5 6
 EXTRA SYMMETRY OF AOS IN SYMMETRY 3:   1 1 1 1 1 1 1 1 2 3   2 3 2 3 2 3 4 5 6 4   5 6
 EXTRA SYMMETRY OF AOS IN SYMMETRY 4:   1 1 1 1 1 1 1 2 3 2   3 2 3
 EXTRA SYMMETRY OF AOS IN SYMMETRY 5:   1 1 1 1 1 1 1 1 2 3   2 3 2 3 2 3 4 5 6 4   5 6
 EXTRA SYMMETRY OF AOS IN SYMMETRY 6:   1 1 1 1 1 1 1 2 3 2   3 2 3
 EXTRA SYMMETRY OF AOS IN SYMMETRY 7:   1 1 1 1 1 1 1 2 3 2   3 2 3
 EXTRA SYMMETRY OF AOS IN SYMMETRY 8:   1 1 1 1 2 3 2 3

 Eigenvalues of metric

         1 0.410E-03 0.410E-03 0.472E-03 0.348E-02 0.517E-02 0.517E-02 0.354E-01 0.354E-01
         2 0.108E-02 0.389E-01 0.389E-01 0.413E-01 0.165E+00 0.389E+00 0.389E+00 0.488E+00
         3 0.108E-02 0.389E-01 0.389E-01 0.413E-01 0.165E+00 0.389E+00 0.389E+00 0.488E+00
         4 0.410E-03 0.517E-02 0.354E-01 0.166E+00 0.166E+00 0.914E+00 0.914E+00 0.100E+01
         5 0.108E-02 0.389E-01 0.389E-01 0.413E-01 0.165E+00 0.389E+00 0.389E+00 0.488E+00
         6 0.410E-03 0.517E-02 0.354E-01 0.166E+00 0.166E+00 0.914E+00 0.914E+00 0.100E+01
         7 0.410E-03 0.517E-02 0.354E-01 0.166E+00 0.166E+00 0.914E+00 0.914E+00 0.100E+01
         8 0.389E-01 0.389E+00 0.488E+00 0.488E+00 0.108E+01 0.151E+01 0.151E+01 0.249E+01


 Contracted 2-electron integrals neglected if value below      1.0D-12
 AO integral compression algorithm  1   Integral accuracy      1.0D-12

     51.905 MB (compressed) written to integral file ( 56.1%)


 NUMBER OF SORTED TWO-ELECTRON INTEGRALS:    7063297.     BUFFER LENGTH:  32768
 NUMBER OF SEGMENTS:   1  SEGMENT LENGTH:    7063297      RECORD LENGTH: 524288

 Memory used in sort:       7.62 MW

 SORT1 READ    11599838. AND WROTE     4948094. INTEGRALS IN     15 RECORDS. CPU TIME:     0.39 SEC, REAL TIME:     0.58 SEC
 SORT2 READ     4948094. AND WROTE     7063297. INTEGRALS IN    198 RECORDS. CPU TIME:     0.28 SEC, REAL TIME:     0.59 SEC

 FILE SIZES:   FILE 1:    71.5 MBYTE,  FILE 4:    62.9 MBYTE,   TOTAL:    134.4 MBYTE

 OPERATOR DM      FOR CENTER  0  COORDINATES:    0.000000    0.000000    0.000000
 OPERATOR EKIN    FOR CENTER  0  COORDINATES:    0.000000    0.000000    0.000000
 OPERATOR POT     FOR CENTER  0  COORDINATES:    0.000000    0.000000    0.000000


 **********************************************************************************************************************************
 DATASETS  * FILE   NREC   LENGTH (MB)   RECORD NAMES
              1      20       50.52       500      610      700      900      950      970     1000      129      960     1100   
                                          VAR    BASINP    GEOM    SYMINP    ZMAT    AOBASIS   BASIS     P2S    ABASIS      S 
                                         1400     1410     1420     1200     1210     1080     1600     1650     1300     1700   
                                         EKIN       V       ECP      H0       H01     AOSYM     SMH    MOLCAS    ERIS     OPER   

 PROGRAMS   *        TOTAL       INT
 CPU TIMES  *         4.63      4.50
 REAL TIME  *         8.89 SEC
 DISK USED  *       134.76 MB      
 **********************************************************************************************************************************


 PROGRAM * RHF-SCF (OPEN SHELL)       Authors: W. Meyer, H.-J. Werner


 NUMBER OF ELECTRONS:      10+    5-    SPACE SYMMETRY=1    SPIN SYMMETRY: Sextet  
 CONVERGENCE THRESHOLDS:    1.00E-05 (Density)    1.00E-07 (Energy)
 MAX. NUMBER OF ITERATIONS:       60
 INTERPOLATION TYPE:            DIIS
 INTERPOLATION STEPS:              2 (START)      1 (STEP)
 LEVEL SHIFTS:                 -0.60 (CLOSED) -0.30 (OPEN) 


 Singly occupied orbitals:      3.1       4.1       1.4       1.6       1.7
 
 Extra symmetries of mos in symmetry 1:   1   1   3   2

   Atom=MN basis=ECP10MDF_GUESS    lmin=0  lmax=2

 Orbital guess generated from atomic densities. Full valence occupancy:    4   1   1   1   1   1   1   0


 Molecular orbital dump at record        4202.2

 ITERATION    DDIFF          GRAD             ENERGY        2-EL.EN.            DIPOLE MOMENTS         DIIS   ORB.
    1      0.000D+00      0.000D+00      -103.05591436    145.506193    0.00000    0.00000    0.00000    0    start
    2      0.000D+00      0.284D-01      -103.21539253    155.532998    0.00000    0.00000    0.00000    1    diag,B
    3      0.965D-02      0.192D-01      -103.23935706    153.846432    0.00000    0.00000    0.00000    2    diag,B
    4      0.219D-02      0.529D-02      -103.24380699    153.689225    0.00000    0.00000    0.00000    3    diag,B
    5      0.215D-02      0.948D-03      -103.24426059    153.687265    0.00000    0.00000    0.00000    4    diag,B
    6      0.849D-03      0.238D-03      -103.24431619    153.642819    0.00000    0.00000    0.00000    5    diag,B
    7      0.824D-03      0.108D-03      -103.24433136    153.606598    0.00000    0.00000    0.00000    6    fixocc
    8      0.389D-03      0.378D-04      -103.24433339    153.600011    0.00000    0.00000    0.00000    7    diag,B
    9      0.466D-03      0.191D-04      -103.24433403    153.594013    0.00000    0.00000    0.00000    8    diag,B
   10      0.559D-03      0.477D-05      -103.24433405    153.593839    0.00000    0.00000    0.00000    9    orth
   11      0.146D-03      0.606D-06      -103.24433405    153.593778    0.00000    0.00000    0.00000    9    diag,B
   12      0.742D-05      0.773D-07      -103.24433405    153.593778    0.00000    0.00000    0.00000    0    orth

 Final alpha occupancy:   4   1   1   1   1   1   1   0
 Final beta  occupancy:   2   1   1   0   1   0   0   0

 !RHF STATE 1.1 Energy               -103.244334050351
 Nuclear energy                         0.00000000
 One-electron energy                 -180.04122288
 Two-electron energy                   76.79688883
 Virial quotient                       -1.79681018
 !RHF STATE 1.1 Dipole moment           0.00000000     0.00000000     0.00000000
 Dipole moment /Debye                   0.00000000     0.00000000     0.00000000
 

 !RHF expec          <1.1|EKIN|1.1>    57.459789197387
 
 !RHF expec           <1.1|POT|1.1>   -16.675455192162

 ELECTRON ORBITALS
 =================


   Orb  Occ    Energy  Couls-En    Coefficients

                                   1 1s      1 1s      1 1s      1 1s      1 1s      1 1s      1 1s      1 1s      1 3d0     1 3d2+ 
                                   1 3d0     1 3d2+    1 3d0     1 3d2+    1 3d0     1 3d2+    1 3d0     1 3d2+    1 3d0     1 3d2+ 
                                   1 3d0     1 3d2+    1 5g0     1 5g4+    1 5g2+    1 5g0     1 5g4+    1 5g2+    1 5g0     1 5g4+ 
                                   1 5g2+ 

   1.1   2    -3.9198  -19.3101  0.999942  0.000080 -0.000027  0.000024  0.000017 -0.000086  0.000229 -0.000169  0.000000  0.000000
                                 0.000000  0.000000  0.000000  0.000000  0.000000  0.000000 -0.000000 -0.000000 -0.000000 -0.000000
                                 0.000000  0.000000 -0.000000 -0.000000  0.000000  0.000000 -0.000000 -0.000000 -0.000000  0.000000
                                 0.000000

   2.1   2    -0.2508   -5.2937 -0.000025  1.000223 -0.000058  0.000044  0.000025 -0.000253  0.000216 -0.000156  0.000000 -0.000000
                                 0.000000 -0.000000  0.000000 -0.000000  0.000000 -0.000000 -0.000000  0.000000 -0.000000  0.000000
                                 0.000000 -0.000000 -0.000000  0.000000  0.000000 -0.000000 -0.000000 -0.000000 -0.000000  0.000000
                                 0.000000

   3.1   +    -0.6292  -11.8121 -0.000000 -0.000000  0.000000 -0.000000 -0.000000  0.000000 -0.000000  0.000000 -0.109095  0.975717
                                 0.014066 -0.125798  0.002935 -0.026248  0.000188 -0.001685 -0.004410  0.039442  0.000056 -0.000505
                                -0.000010  0.000090  0.000000 -0.000000  0.000000  0.000000  0.000000  0.000000 -0.000000 -0.000000
                                -0.000000

   4.1   +    -0.6292  -11.8121  0.000000  0.000000 -0.000000  0.000000  0.000000 -0.000000  0.000000 -0.000000  0.975717  0.109095
                                -0.125798 -0.014066 -0.026248 -0.002935 -0.001685 -0.000188  0.039442  0.004410 -0.000505 -0.000056
                                 0.000090  0.000010  0.000000  0.000000  0.000000 -0.000000 -0.000000  0.000000  0.000000  0.000000
                                -0.000000

   5.1   0     0.0661   -2.2046 -0.538630 -3.787868  1.038377 -0.572295 -0.157384  4.383213 -0.611665  0.329969  0.000000 -0.000000
                                 0.000000 -0.000000  0.000000 -0.000000  0.000000 -0.000000 -0.000000  0.000000 -0.000000 -0.000000
                                 0.000000  0.000000  0.000000  0.000000 -0.000000 -0.000000 -0.000000  0.000000  0.000000  0.000000
                                -0.000000

   6.1   0     0.2180   -2.8595 -0.000000 -0.000000  0.000000 -0.000000 -0.000000  0.000000 -0.000000  0.000000 -0.578438 -0.000010
                                -0.913647 -0.000016 -0.588522 -0.000010 -0.210843 -0.000004  2.179151  0.000038  0.096781  0.000002
                                -0.083298 -0.000001  0.000000 -0.000000  0.000000 -0.000000  0.000000 -0.000000  0.000000 -0.000000
                                 0.000000

                                   1 2px     1 2px     1 2px     1 2px     1 2px     1 2px     1 2px     1 2px     1 4f1+    1 4f3+ 
                                   1 4f1+    1 4f3+    1 4f1+    1 4f3+    1 4f1+    1 4f3+    1 6h1+    1 6h3+    1 6h5+    1 6h1+ 
                                   1 6h3+    1 6h5+ 

   1.2   2    -2.4934  -16.3701  1.001219  0.019274  0.016128  0.002177 -0.001037 -0.005437 -0.000771  0.000132 -0.000000 -0.000000
                                 0.000000  0.000000  0.000000  0.000000 -0.000000 -0.000000 -0.000000  0.000000 -0.000000  0.000000
                                -0.000000  0.000000

   2.2   0     0.0331   -3.1387  0.003302  0.053506  0.068686 -0.072281  0.034812  1.015982 -0.105017  0.016218 -0.000000 -0.000000
                                 0.000000  0.000000  0.000000  0.000000 -0.000000 -0.000000  0.000000  0.000000 -0.000000  0.000000
                                -0.000000  0.000000

   3.2   0     0.1762   -3.1804 -0.239476  2.486345 -0.447209  0.377402 -0.171274 -2.566176  0.498770 -0.079490 -0.000000  0.000000
                                 0.000000 -0.000000  0.000000 -0.000000 -0.000000  0.000000 -0.000000  0.000000 -0.000000  0.000000
                                -0.000000  0.000000

                                   1 2py     1 2py     1 2py     1 2py     1 2py     1 2py     1 2py     1 2py     1 4f1-    1 4f3- 
                                   1 4f1-    1 4f3-    1 4f1-    1 4f3-    1 4f1-    1 4f3-    1 6h1-    1 6h3-    1 6h5-    1 6h1- 
                                   1 6h3-    1 6h5- 

   1.3   2    -2.4934  -16.3701  1.001219  0.019274  0.016128  0.002177 -0.001037 -0.005437 -0.000771  0.000132 -0.000000  0.000000
                                 0.000000 -0.000000  0.000000 -0.000000 -0.000000  0.000000 -0.000000 -0.000000 -0.000000  0.000000
                                 0.000000 -0.000000

   2.3   0     0.0331   -3.1387  0.003302  0.053506  0.068686 -0.072281  0.034812  1.015982 -0.105017  0.016218 -0.000000  0.000000
                                 0.000000 -0.000000  0.000000 -0.000000 -0.000000  0.000000  0.000000 -0.000000 -0.000000  0.000000
                                 0.000000  0.000000

   3.3   0     0.1762   -3.1804 -0.239476  2.486345 -0.447209  0.377402 -0.171274 -2.566176  0.498770 -0.079490 -0.000000 -0.000000
                                 0.000000  0.000000  0.000000  0.000000 -0.000000 -0.000000 -0.000000 -0.000000 -0.000000  0.000000
                                 0.000000  0.000000

                                   1 3d2-    1 3d2-    1 3d2-    1 3d2-    1 3d2-    1 3d2-    1 3d2-    1 5g2-    1 5g4-    1 5g2- 
                                   1 5g4-    1 5g2-    1 5g4- 

   1.4   +    -0.6292  -11.8121  0.981797 -0.126582 -0.026411 -0.001696  0.039687 -0.000508  0.000091  0.000000 -0.000000  0.000000
                                 0.000000 -0.000000 -0.000000

   2.4   0     0.2180   -2.8595 -0.578438 -0.913647 -0.588522 -0.210843  2.179151  0.096781 -0.083298  0.000000  0.000000  0.000000
                                -0.000000  0.000000  0.000000

   3.4   0     0.7784   -3.9916  2.009517  5.322770  3.047098  1.011421 -6.277480 -0.366618  0.328645 -0.000000  0.000000  0.000000
                                 0.000000 -0.000000 -0.000000

                                   1 2pz     1 2pz     1 2pz     1 2pz     1 2pz     1 2pz     1 2pz     1 2pz     1 4f0     1 4f2+ 
                                   1 4f0     1 4f2+    1 4f0     1 4f2+    1 4f0     1 4f2+    1 6h2+    1 6h4+    1 6h0     1 6h2+ 
                                   1 6h4+    1 6h0  

   1.5   2    -2.4934  -16.3701  1.001219  0.019274  0.016128  0.002177 -0.001037 -0.005437 -0.000771  0.000132  0.000000 -0.000000
                                -0.000000 -0.000000 -0.000000 -0.000000  0.000000  0.000000  0.000000  0.000000  0.000000 -0.000000
                                -0.000000 -0.000000

   2.5   0     0.0331   -3.1387  0.003302  0.053506  0.068686 -0.072281  0.034812  1.015982 -0.105017  0.016218 -0.000000  0.000000
                                 0.000000 -0.000000 -0.000000 -0.000000  0.000000  0.000000 -0.000000  0.000000  0.000000  0.000000
                                -0.000000  0.000000

   3.5   0     0.1762   -3.1804 -0.239476  2.486345 -0.447209  0.377402 -0.171274 -2.566176  0.498770 -0.079490 -0.000000 -0.000000
                                 0.000000  0.000000  0.000000  0.000000 -0.000000 -0.000000 -0.000000  0.000000  0.000000  0.000000
                                -0.000000 -0.000000

                                   1 3d1+    1 3d1+    1 3d1+    1 3d1+    1 3d1+    1 3d1+    1 3d1+    1 5g1+    1 5g3+    1 5g1+ 
                                   1 5g3+    1 5g1+    1 5g3+ 

   1.6   +    -0.6292  -11.8121  0.981797 -0.126582 -0.026411 -0.001696  0.039687 -0.000508  0.000091  0.000000  0.000000 -0.000000
                                -0.000000  0.000000  0.000000

   2.6   0     0.2180   -2.8595 -0.578438 -0.913647 -0.588522 -0.210843  2.179151  0.096781 -0.083298  0.000000 -0.000000 -0.000000
                                -0.000000  0.000000  0.000000

   3.6   0     0.7784   -3.9916  2.009517  5.322770  3.047098  1.011421 -6.277480 -0.366618  0.328645 -0.000000  0.000000  0.000000
                                 0.000000 -0.000000 -0.000000

                                   1 3d1-    1 3d1-    1 3d1-    1 3d1-    1 3d1-    1 3d1-    1 3d1-    1 5g1-    1 5g3-    1 5g1- 
                                   1 5g3-    1 5g1-    1 5g3- 

   1.7   +    -0.6292  -11.8121  0.981797 -0.126582 -0.026411 -0.001696  0.039687 -0.000508  0.000091  0.000000 -0.000000 -0.000000
                                 0.000000  0.000000 -0.000000

   2.7   0     0.2180   -2.8595 -0.578438 -0.913647 -0.588522 -0.210843  2.179151  0.096781 -0.083298  0.000000  0.000000 -0.000000
                                 0.000000  0.000000 -0.000000

   3.7   0     0.7784   -3.9916  2.009517  5.322770  3.047098  1.011421 -6.277480 -0.366618  0.328645 -0.000000 -0.000000  0.000000
                                -0.000000 -0.000000  0.000000

                                   1 4f2-    1 4f2-    1 4f2-    1 4f2-    1 6h4-    1 6h2-    1 6h4-    1 6h2- 

   1.8   0     1.3378   -3.7619  1.021761 -0.076845 -0.030611  0.097931 -0.000000  0.000000  0.000000 -0.000000

   2.8   0     4.1794   -1.4937 -0.547303  1.342242  0.288835 -0.461773 -0.000000 -0.000000  0.000000  0.000000

 HOMO      4.1    -0.629160 =     -17.1203eV
 LUMO      2.2     0.033121 =       0.9013eV
 LUMO-HOMO         0.662281 =      18.0216eV


 **********************************************************************************************************************************
 DATASETS  * FILE   NREC   LENGTH (MB)   RECORD NAMES
              1      20       50.52       500      610      700      900      950      970     1000      129      960     1100   
                                          VAR    BASINP    GEOM    SYMINP    ZMAT    AOBASIS   BASIS     P2S    ABASIS      S 
                                         1400     1410     1420     1200     1210     1080     1600     1650     1300     1700   
                                         EKIN       V       ECP      H0       H01     AOSYM     SMH    MOLCAS    ERIS     OPER   

              2       4        2.86       700     1000      520     4202   
                                         GEOM     BASIS   MCVARS     RHF  

 PROGRAMS   *        TOTAL       RHF       INT
 CPU TIMES  *         5.03      0.39      4.50
 REAL TIME  *         9.54 SEC
 DISK USED  *       134.76 MB      
 **********************************************************************************************************************************


 PROGRAM * POP (Mulliken population analysis)

 
 Density matrix read from record         4202.2  Type=RHF/CHARGE (state 1.1)
 
 Population analysis by basis function type

 Unique atom        s        p        d        f        g    Total    Charge
   1  MN      4.00000  6.00000  5.00000  0.00000  0.00000 15.00000  - 0.00000


 **********************************************************************************************************************************
 DATASETS  * FILE   NREC   LENGTH (MB)   RECORD NAMES
              1      20       50.52       500      610      700      900      950      970     1000      129      960     1100   
                                          VAR    BASINP    GEOM    SYMINP    ZMAT    AOBASIS   BASIS     P2S    ABASIS      S 
                                         1400     1410     1420     1200     1210     1080     1600     1650     1300     1700   
                                         EKIN       V       ECP      H0       H01     AOSYM     SMH    MOLCAS    ERIS     OPER   

              2       4        2.86       700     1000      520     4202   
                                         GEOM     BASIS   MCVARS     RHF  

 PROGRAMS   *        TOTAL       POP       RHF       INT
 CPU TIMES  *         5.04      0.00      0.39      4.50
 REAL TIME  *         9.57 SEC
 DISK USED  *       134.76 MB      
 **********************************************************************************************************************************


 PROGRAM * MULTI (Direct Multiconfiguration SCF)       Authors: P.J. Knowles, H.-J. Werner (1984)     S.T. Elbert (1988)


 Number of closed-shell orbitals:   5 (   2   1   1   0   1   0   0   0 )
 Number of active  orbitals:        5 (   2   0   0   1   0   1   1   0 )
 Number of external orbitals:     134 (  27  21  21  12  21  12  12   8 )

 State symmetry 1

 Number of electrons:     5    Spin symmetry=Sextet    Space symmetry=1
 Number of states:        1
 Number of CSFs:          1   (1 determinants, 1 intermediate states)

 Molecular orbitals read from record     4202.2  Type=RHF/CANONICAL (state 1.1)
 *** IN SYMMETRY 1 ORBITAL  3 SYMMETRY CONTAMINATION OF 0.101D+00 HAS BEEN REMOVED
 *** IN SYMMETRY 1 ORBITAL  4 SYMMETRY CONTAMINATION OF 0.101D+00 HAS BEEN REMOVED

 EXTRA SYMMETRY OF MOS IN SYMMETRY 1:   1 1 3 2 1 2 3 1 2 3   1 2 3 5 4 6 1 2 3 5   4 6 1 2 3 4 6 5 2 3   1
 EXTRA SYMMETRY OF MOS IN SYMMETRY 2:   1 1 1 1 2 3 1 2 3 1   2 3 5 6 4 1 3 2 5 4   6 1
 EXTRA SYMMETRY OF MOS IN SYMMETRY 3:   1 1 1 1 2 3 1 2 3 1   2 3 5 6 4 1 3 2 5 4   6 1
 EXTRA SYMMETRY OF MOS IN SYMMETRY 4:   1 1 1 1 3 2 1 3 2 1   2 3 1
 EXTRA SYMMETRY OF MOS IN SYMMETRY 5:   1 1 1 1 3 2 1 3 2 1   2 3 5 6 4 1 3 2 6 4   5 1
 EXTRA SYMMETRY OF MOS IN SYMMETRY 6:   1 1 1 1 3 2 1 3 2 1   3 2 1
 EXTRA SYMMETRY OF MOS IN SYMMETRY 7:   1 1 1 1 3 2 1 3 2 1   3 2 1
 EXTRA SYMMETRY OF MOS IN SYMMETRY 8:   1 1 1 2 3 1 3 2

 Wavefunction dump at record             5202.2

 Convergence thresholds  0.10E-01 (gradient)  0.10E-05 (energy)  0.10E-02 (step length)

 Number of orbital rotations:      211   (     4 Core/Active    117 Core/Virtual   0 Active/Active     90 Active/Virtual)
 Total number of variables:        212


 ITER. MIC  NCI  NEG     ENERGY(VAR)     ENERGY(PROJ)   ENERGY CHANGE     GRAD(0)  GRAD(ORB)   GRAD(CI)     STEP       TIME

   1   24    4    0    -103.24433405    -103.24433405   -0.00000000    0.00000071 0.00000000 0.00000000  0.38D-06      0.10

 ** WVFN ****  CONVERGENCE REACHED, FINAL GRADIENT:  0.33D-12


 First order charge density matrix for state 1.1 saved on record  5202.2 (density set 1)

 Results for state 1.1
 =====================

 !MCSCF STATE 1.1 Energy             -103.244334050351
 Nuclear energy                         0.00000000
 Kinetic energy                        57.45978807
 One electron energy                 -180.04122253
 Two electron energy                   76.79688848
 Virial ratio                           2.79681021

 !MCSCF STATE 1.1 Dipole moment         0.00000000     0.00000000     0.00000000
 Dipole moment /Debye                   0.00000000     0.00000000     0.00000000

 !MCSCF expec        <1.1|EKIN|1.1>    57.459788067023

 !MCSCF expec         <1.1|POT|1.1>   -16.675455134331


 NATURAL ORBITALS
 ================

   Orb     Occ        Energy       Coefficients

                                   1 1s      1 1s      1 1s      1 1s      1 1s      1 1s      1 1s      1 1s      1 3d0     1 3d2+ 
                                   1 3d0     1 3d2+    1 3d0     1 3d2+    1 3d0     1 3d2+    1 3d0     1 3d2+    1 3d0     1 3d2+ 
                                   1 3d0     1 3d2+    1 5g0     1 5g4+    1 5g2+    1 5g0     1 5g4+    1 5g2+    1 5g0     1 5g4+ 
                                   1 5g2+ 

   1.1  2.00000    -3.919798     0.999942  0.000080 -0.000027  0.000024  0.000017 -0.000086  0.000229 -0.000169  0.000000  0.000000
                                 0.000000  0.000000  0.000000  0.000000  0.000000  0.000000  0.000000  0.000000  0.000000  0.000000
                                 0.000000  0.000000  0.000000  0.000000  0.000000  0.000000  0.000000  0.000000  0.000000  0.000000
                                 0.000000

   2.1  2.00000    -0.250789    -0.000026  1.000220 -0.000057  0.000043  0.000024 -0.000249  0.000215 -0.000155  0.000000  0.000000
                                 0.000000  0.000000  0.000000  0.000000  0.000000  0.000000  0.000000  0.000000  0.000000  0.000000
                                 0.000000  0.000000  0.000000  0.000000  0.000000  0.000000  0.000000  0.000000  0.000000  0.000000
                                 0.000000

   3.1  1.00000    -0.133548     0.000000  0.000000  0.000000  0.000000  0.000000  0.000000  0.000000  0.000000  0.981797  0.000000
                                -0.126582  0.000000 -0.026411  0.000000 -0.001696  0.000000  0.039687  0.000000 -0.000508  0.000000
                                 0.000091  0.000000  0.000000  0.000000  0.000000  0.000000  0.000000  0.000000  0.000000  0.000000
                                 0.000000

   4.1  1.00000    -0.133548     0.000000  0.000000  0.000000  0.000000  0.000000  0.000000  0.000000  0.000000  0.000000  0.981797
                                 0.000000 -0.126582  0.000000 -0.026411  0.000000 -0.001696  0.000000  0.039687  0.000000 -0.000508
                                 0.000000  0.000091  0.000000  0.000000  0.000000  0.000000  0.000000  0.000000  0.000000  0.000000
                                 0.000000

                                   1 2px     1 2px     1 2px     1 2px     1 2px     1 2px     1 2px     1 2px     1 4f1+    1 4f3+ 
                                   1 4f1+    1 4f3+    1 4f1+    1 4f3+    1 4f1+    1 4f3+    1 6h1+    1 6h3+    1 6h5+    1 6h1+ 
                                   1 6h3+    1 6h5+ 

   1.2  2.00000    -2.493412     1.001219  0.019274  0.016128  0.002177 -0.001037 -0.005437 -0.000771  0.000132  0.000000  0.000000
                                 0.000000  0.000000  0.000000  0.000000  0.000000  0.000000  0.000000  0.000000  0.000000  0.000000
                                 0.000000  0.000000

                                   1 2py     1 2py     1 2py     1 2py     1 2py     1 2py     1 2py     1 2py     1 4f1-    1 4f3- 
                                   1 4f1-    1 4f3-    1 4f1-    1 4f3-    1 4f1-    1 4f3-    1 6h1-    1 6h3-    1 6h5-    1 6h1- 
                                   1 6h3-    1 6h5- 

   1.3  2.00000    -2.493412     1.001219  0.019274  0.016128  0.002177 -0.001037 -0.005437 -0.000771  0.000132  0.000000  0.000000
                                 0.000000  0.000000  0.000000  0.000000  0.000000  0.000000  0.000000  0.000000  0.000000  0.000000
                                 0.000000  0.000000

                                   1 3d2-    1 3d2-    1 3d2-    1 3d2-    1 3d2-    1 3d2-    1 3d2-    1 5g2-    1 5g4-    1 5g2- 
                                   1 5g4-    1 5g2-    1 5g4- 

   1.4  1.00000    -0.133548     0.981797 -0.126582 -0.026411 -0.001696  0.039687 -0.000508  0.000091  0.000000  0.000000  0.000000
                                 0.000000  0.000000  0.000000

                                   1 2pz     1 2pz     1 2pz     1 2pz     1 2pz     1 2pz     1 2pz     1 2pz     1 4f0     1 4f2+ 
                                   1 4f0     1 4f2+    1 4f0     1 4f2+    1 4f0     1 4f2+    1 6h2+    1 6h4+    1 6h0     1 6h2+ 
                                   1 6h4+    1 6h0  

   1.5  2.00000    -2.493412     1.001219  0.019274  0.016128  0.002177 -0.001037 -0.005437 -0.000771  0.000132  0.000000  0.000000
                                 0.000000  0.000000  0.000000  0.000000  0.000000  0.000000  0.000000  0.000000  0.000000  0.000000
                                 0.000000  0.000000

                                   1 3d1+    1 3d1+    1 3d1+    1 3d1+    1 3d1+    1 3d1+    1 3d1+    1 5g1+    1 5g3+    1 5g1+ 
                                   1 5g3+    1 5g1+    1 5g3+ 

   1.6  1.00000    -0.133548     0.981797 -0.126582 -0.026411 -0.001696  0.039687 -0.000508  0.000091  0.000000  0.000000  0.000000
                                 0.000000  0.000000  0.000000

                                   1 3d1-    1 3d1-    1 3d1-    1 3d1-    1 3d1-    1 3d1-    1 3d1-    1 5g1-    1 5g3-    1 5g1- 
                                   1 5g3-    1 5g1-    1 5g3- 

   1.7  1.00000    -0.133548     0.981797 -0.126582 -0.026411 -0.001696  0.039687 -0.000508  0.000091  0.000000  0.000000  0.000000
                                 0.000000  0.000000  0.000000
 

 EXTRA SYMMETRY OF MOS IN SYMMETRY 1:   1 1 2 3 1 2 3 1 2 3   1 2 3 4 6 5 1 2 3 4   6 5 1 2 3 4 6 5 2 3   1
 EXTRA SYMMETRY OF MOS IN SYMMETRY 2:   1 1 1 1 2 3 1 2 3 1   2 3 5 4 6 1 3 2 5 4   6 1
 EXTRA SYMMETRY OF MOS IN SYMMETRY 3:   1 1 1 1 2 3 1 2 3 1   2 3 5 4 6 1 3 2 5 4   6 1
 EXTRA SYMMETRY OF MOS IN SYMMETRY 4:   1 1 1 1 2 3 1 2 3 1   2 3 1
 EXTRA SYMMETRY OF MOS IN SYMMETRY 5:   1 1 1 1 3 2 1 3 2 1   2 3 6 4 5 1 3 2 6 4   5 1
 EXTRA SYMMETRY OF MOS IN SYMMETRY 8:   1 1 1 3 2 1 3 2

 Natural orbital dump at molpro section  5202.2    (Orbital set 2)


 CI vector
 =========

 aa a a a          1.0000000

 TOTAL ENERGIES                      -103.24433405



 **********************************************************************************************************************************
 DATASETS  * FILE   NREC   LENGTH (MB)   RECORD NAMES
              1      21       52.35       500      610      700      900      950      970     1000      129      960     1100   
                                          VAR    BASINP    GEOM    SYMINP    ZMAT    AOBASIS   BASIS     P2S    ABASIS      S 
                                         1400     1410     1420     1200     1210     1080     1600     1650     1300     1700   
                                         EKIN       V       ECP      H0       H01     AOSYM     SMH    MOLCAS    ERIS     OPER   
                                         1380   
                                         JKOP   

              2       5        5.47       700     1000      520     4202     5202   
                                         GEOM     BASIS   MCVARS     RHF     MCSCF   

 PROGRAMS   *        TOTAL     MULTI       POP       RHF       INT
 CPU TIMES  *         5.27      0.23      0.00      0.39      4.50
 REAL TIME  *        10.32 SEC
 DISK USED  *       134.76 MB      
 **********************************************************************************************************************************


 PROGRAM * RHF-SCF (OPEN SHELL)       Authors: W. Meyer, H.-J. Werner


 NUMBER OF ELECTRONS:      10+    5-    SPACE SYMMETRY=1    SPIN SYMMETRY: Sextet  
 CONVERGENCE THRESHOLDS:    1.00E-05 (Density)    1.00E-07 (Energy)
 MAX. NUMBER OF ITERATIONS:        0
 INTERPOLATION TYPE:            DIIS
 INTERPOLATION STEPS:              2 (START)      1 (STEP)
 LEVEL SHIFTS:                 -0.60 (CLOSED) -0.30 (OPEN) 


 Singly occupied orbitals:      3.1       4.1       1.4       1.6       1.7
 Molecular orbitals read from record     5202.2  Type=MCSCF/NATURAL (state 1.1)

 Molecular orbital dump at record        2101.2

 ITERATION    DDIFF          GRAD             ENERGY        2-EL.EN.            DIPOLE MOMENTS         DIIS   ORB.
    1      0.000D+00      0.000D+00      -103.24433405    153.593777    0.00000    0.00000    0.00000    0    start

 Final alpha occupancy:   4   1   1   1   1   1   1   0
 Final beta  occupancy:   2   1   1   0   1   0   0   0

 !RHF STATE 1.1 Energy               -103.244334050351
 Nuclear energy                         0.00000000
 One-electron energy                 -180.04122253
 Two-electron energy                   76.79688848
 Virial quotient                       -1.79681021
 !RHF STATE 1.1 Dipole moment           0.00000000     0.00000000     0.00000000
 Dipole moment /Debye                   0.00000000     0.00000000     0.00000000
 

 !RHF expec          <1.1|EKIN|1.1>    57.459788067023
 
 !RHF expec           <1.1|POT|1.1>   -16.675455134331

 ELECTRON ORBITALS
 =================


   Orb  Occ    Energy  Couls-En    Coefficients

                                   1 1s      1 1s      1 1s      1 1s      1 1s      1 1s      1 1s      1 1s      1 3d0     1 3d2+ 
                                   1 3d0     1 3d2+    1 3d0     1 3d2+    1 3d0     1 3d2+    1 3d0     1 3d2+    1 3d0     1 3d2+ 
                                   1 3d0     1 3d2+    1 5g0     1 5g4+    1 5g2+    1 5g0     1 5g4+    1 5g2+    1 5g0     1 5g4+ 
                                   1 5g2+ 

   1.1   2    -3.9198  -19.3101  0.999942  0.000080 -0.000027  0.000024  0.000017 -0.000086  0.000229 -0.000169  0.000000  0.000000
                                 0.000000  0.000000  0.000000  0.000000  0.000000  0.000000  0.000000  0.000000  0.000000  0.000000
                                 0.000000  0.000000  0.000000  0.000000  0.000000  0.000000  0.000000  0.000000  0.000000  0.000000
                                 0.000000

   2.1   2    -0.2508   -5.2937 -0.000026  1.000220 -0.000057  0.000043  0.000024 -0.000249  0.000215 -0.000155  0.000000  0.000000
                                 0.000000  0.000000  0.000000  0.000000  0.000000  0.000000  0.000000  0.000000  0.000000  0.000000
                                 0.000000  0.000000  0.000000  0.000000  0.000000  0.000000  0.000000  0.000000  0.000000  0.000000
                                 0.000000

   3.1   +    -0.1335  -11.3165  0.000000  0.000000  0.000000  0.000000  0.000000  0.000000  0.000000  0.000000  0.981797  0.000000
                                -0.126582  0.000000 -0.026411  0.000000 -0.001696  0.000000  0.039687  0.000000 -0.000508  0.000000
                                 0.000091  0.000000  0.000000  0.000000  0.000000  0.000000  0.000000  0.000000  0.000000  0.000000
                                 0.000000

   4.1   +    -0.1335  -11.3165  0.000000  0.000000  0.000000  0.000000  0.000000  0.000000  0.000000  0.000000  0.000000  0.981797
                                 0.000000 -0.126582  0.000000 -0.026411  0.000000 -0.001696  0.000000  0.039687  0.000000 -0.000508
                                 0.000000  0.000091  0.000000  0.000000  0.000000  0.000000  0.000000  0.000000  0.000000  0.000000
                                 0.000000

                                   1 2px     1 2px     1 2px     1 2px     1 2px     1 2px     1 2px     1 2px     1 4f1+    1 4f3+ 
                                   1 4f1+    1 4f3+    1 4f1+    1 4f3+    1 4f1+    1 4f3+    1 6h1+    1 6h3+    1 6h5+    1 6h1+ 
                                   1 6h3+    1 6h5+ 

   1.2   2    -2.4934  -16.3701  1.001219  0.019274  0.016128  0.002177 -0.001037 -0.005437 -0.000771  0.000132  0.000000  0.000000
                                 0.000000  0.000000  0.000000  0.000000  0.000000  0.000000  0.000000  0.000000  0.000000  0.000000
                                 0.000000  0.000000

                                   1 2py     1 2py     1 2py     1 2py     1 2py     1 2py     1 2py     1 2py     1 4f1-    1 4f3- 
                                   1 4f1-    1 4f3-    1 4f1-    1 4f3-    1 4f1-    1 4f3-    1 6h1-    1 6h3-    1 6h5-    1 6h1- 
                                   1 6h3-    1 6h5- 

   1.3   2    -2.4934  -16.3701  1.001219  0.019274  0.016128  0.002177 -0.001037 -0.005437 -0.000771  0.000132  0.000000  0.000000
                                 0.000000  0.000000  0.000000  0.000000  0.000000  0.000000  0.000000  0.000000  0.000000  0.000000
                                 0.000000  0.000000

                                   1 3d2-    1 3d2-    1 3d2-    1 3d2-    1 3d2-    1 3d2-    1 3d2-    1 5g2-    1 5g4-    1 5g2- 
                                   1 5g4-    1 5g2-    1 5g4- 

   1.4   +    -0.1335  -11.3165  0.981797 -0.126582 -0.026411 -0.001696  0.039687 -0.000508  0.000091  0.000000  0.000000  0.000000
                                 0.000000  0.000000  0.000000

                                   1 2pz     1 2pz     1 2pz     1 2pz     1 2pz     1 2pz     1 2pz     1 2pz     1 4f0     1 4f2+ 
                                   1 4f0     1 4f2+    1 4f0     1 4f2+    1 4f0     1 4f2+    1 6h2+    1 6h4+    1 6h0     1 6h2+ 
                                   1 6h4+    1 6h0  

   1.5   2    -2.4934  -16.3701  1.001219  0.019274  0.016128  0.002177 -0.001037 -0.005437 -0.000771  0.000132  0.000000  0.000000
                                 0.000000  0.000000  0.000000  0.000000  0.000000  0.000000  0.000000  0.000000  0.000000  0.000000
                                 0.000000  0.000000

                                   1 3d1+    1 3d1+    1 3d1+    1 3d1+    1 3d1+    1 3d1+    1 3d1+    1 5g1+    1 5g3+    1 5g1+ 
                                   1 5g3+    1 5g1+    1 5g3+ 

   1.6   +    -0.1335  -11.3165  0.981797 -0.126582 -0.026411 -0.001696  0.039687 -0.000508  0.000091  0.000000  0.000000  0.000000
                                 0.000000  0.000000  0.000000

                                   1 3d1-    1 3d1-    1 3d1-    1 3d1-    1 3d1-    1 3d1-    1 3d1-    1 5g1-    1 5g3-    1 5g1- 
                                   1 5g3-    1 5g1-    1 5g3- 

   1.7   +    -0.1335  -11.3165  0.981797 -0.126582 -0.026411 -0.001696  0.039687 -0.000508  0.000091  0.000000  0.000000  0.000000
                                 0.000000  0.000000  0.000000

 HOMO      4.1    -0.133548 =      -3.6340eV
 LUMO      2.2     0.037342 =       1.0161eV
 LUMO-HOMO         0.170890 =       4.6501eV


 **********************************************************************************************************************************
 DATASETS  * FILE   NREC   LENGTH (MB)   RECORD NAMES
              1      21       52.35       500      610      700      900      950      970     1000      129      960     1100   
                                          VAR    BASINP    GEOM    SYMINP    ZMAT    AOBASIS   BASIS     P2S    ABASIS      S 
                                         1400     1410     1420     1200     1210     1080     1600     1650     1300     1700   
                                         EKIN       V       ECP      H0       H01     AOSYM     SMH    MOLCAS    ERIS     OPER   
                                         1380   
                                         JKOP   

              2       6        8.07       700     1000      520     4202     5202     2101   
                                         GEOM     BASIS   MCVARS     RHF     MCSCF     RHF  

 PROGRAMS   *        TOTAL       RHF     MULTI       POP       RHF       INT
 CPU TIMES  *         5.32      0.04      0.23      0.00      0.39      4.50
 REAL TIME  *        10.54 SEC
 DISK USED  *       134.76 MB      
 **********************************************************************************************************************************
 SETTING SCF(I)         =      -103.24433405  AU                              
 SETTING _CC_NORM_MAX   =         2.00000000                                  


 PROGRAM * CI (Multireference internally contracted CI)     Authors: H.-J. Werner, P.J. Knowles, 1987


 Convergence thresholds:  THRVAR = 1.00D-08  THRDEN = 1.00D-06

 Number of optimized states:  1  Roots:   1
 Number of reference states:  1  Roots:   1

 Reference symmetry:                   1   Sextet  
 Number of electrons:                 15
 Maximum number of shells:             3
 Maximum number of spin couplings:    27

 Reference space:        1 conf        1 CSFs
 N elec internal:      126 conf      126 CSFs
 N-1 el internal:      185 conf      460 CSFs
 N-2 el internal:       50 conf      460 CSFs

 Number of electrons in valence space:                     15
 Maximum number of open shell orbitals in reference space:  5
 Maximum number of open shell orbitals in internal spaces:  9


 Number of closed-shell orbitals:   5 (   2   1   1   0   1   0   0   0 )
 Number of active  orbitals:        5 (   2   0   0   1   0   1   1   0 )
 Number of external orbitals:     134 (  27  21  21  12  21  12  12   8 )

 Molecular orbitals read from record     2101.2  Type=RHF/CANONICAL (state 1.1)

 Coulomb and exchange operators available. No transformation done.

 Number of p-space configurations:   1

 Reference wavefunction optimized for reference space (refopt=1)

 State     Reference Energy 
   1        -103.24433405

 Number of blocks in overlap matrix:    85   Smallest eigenvalue:  0.10D+01
 Number of N-2 electron functions:      85
 Number of N-1 electron functions:     460

 Number of internal configurations:                   15
 Number of singly external configurations:          8010
 Number of doubly external configurations:         97575
 Total number of contracted configurations:       105600
 Total number of uncontracted configurations:     535285

 Diagonal Coupling coefficients finished.               Storage:   43219 words, CPU-Time:      0.00 seconds.
 Energy denominators for pairs finished in 1 passes.    Storage:   72858 words, CPU-time:      0.01 seconds.

  ITER. STATE  ROOT     SQ.NORM     CORR.ENERGY   TOTAL ENERGY   ENERGY CHANGE       DEN1      VAR(S)    VAR(P)      TIME
    1     1     1     1.00000000     0.00000000  -103.24433405     0.00000000    -0.62423976  0.33D-01  0.85D-01     0.03
    2     1     1     1.08219793    -0.54015756  -103.78449161    -0.54015756    -0.01200309  0.20D-02  0.18D-02     0.43
    3     1     1     1.07148309    -0.55188620  -103.79622025    -0.01172864    -0.00028231  0.24D-04  0.76D-04     0.83
    4     1     1     1.07115441    -0.55219222  -103.79652627    -0.00030602    -0.00001431  0.45D-05  0.18D-05     1.24
    5     1     1     1.07127804    -0.55220764  -103.79654169    -0.00001542    -0.00000056  0.81D-07  0.82D-07     1.63
    6     1     1     1.07132373    -0.55220824  -103.79654229    -0.00000060    -0.00000003  0.74D-08  0.32D-08     2.05
    7     1     1     1.07132878    -0.55220827  -103.79654232    -0.00000003    -0.00000000  0.18D-09  0.19D-09     2.45


 =====================================
 Analysis of CPU times by interactions
 =====================================

       I      S      P

 I   0.0%
 S   0.0%  40.8%
 P   0.4%   6.5%  14.3%

 Initialization:   1.2%
 Other:           36.7%

 Total CPU:        2.5 seconds
 =====================================



 Reference coefficients greater than 0.0500000
 =============================================
 22//22/2//           0.9645293



 RESULTS FOR STATE 1.1
 =====================

 Coefficient of reference function:   C(0) = 0.96452930 (fixed)   0.96452930 (relaxed)

 Energy contributions of configuration classes

 CLASS          SQ.NORM        ECORR1        ECORR2
 +++++++++++++++++++++++++++++++++++++++++++++++++++
 Internals    0.00333597   -0.01942914   -0.01978904
 Singles      0.02087856   -0.13921778   -0.14024163
 Pairs        0.05068817   -0.39356135   -0.39217760
 Total        1.07490270   -0.55220827   -0.55220827
 +++++++++++++++++++++++++++++++++++++++++++++++++++


 Reference energy                    -103.24433405
 Nuclear energy                         0.00000000
 Kinetic energy                        57.87035748
 One electron energy                 -179.63671399
 Two electron energy                   75.84017167
 Virial quotient                       -1.79360465
 Correlation energy                    -0.55220827
 !CI(SD) STATE 1.1 Energy            -103.796542317242

 Properties without orbital relaxation:

 !CI(SD) STATE 1.1 Dipole moment        0.00000000     0.00000000     0.00000000
 Dipole moment /Debye                   0.00000000     0.00000000     0.00000000

 Cluster corrected energies          -103.83790421 (Davidson, fixed reference)
 Cluster corrected energies          -103.83790421 (Davidson, relaxed reference)

 Cluster corrected energies          -103.83115487 (Pople, fixed reference)
 Cluster corrected energies          -103.83115487 (Pople, relaxed reference)

 

 !CI(SD) expec       <1.1|EKIN|1.1>    57.870357479012
 
 !CI(SD) expec        <1.1|POT|1.1>   -16.678004389684


 **********************************************************************************************************************************
 DATASETS  * FILE   NREC   LENGTH (MB)   RECORD NAMES
              1      21       52.35       500      610      700      900      950      970     1000      129      960     1100   
                                          VAR    BASINP    GEOM    SYMINP    ZMAT    AOBASIS   BASIS     P2S    ABASIS      S 
                                         1400     1410     1420     1200     1210     1080     1600     1650     1300     1700   
                                         EKIN       V       ECP      H0       H01     AOSYM     SMH    MOLCAS    ERIS     OPER   
                                         1380   
                                         JKOP   

              2       6        8.07       700     1000      520     4202     5202     2101   
                                         GEOM     BASIS   MCVARS     RHF     MCSCF     RHF  

 PROGRAMS   *        TOTAL        CI       RHF     MULTI       POP       RHF       INT
 CPU TIMES  *         7.82      2.49      0.04      0.23      0.00      0.39      4.50
 REAL TIME  *        13.89 SEC
 DISK USED  *       134.76 MB      
 **********************************************************************************************************************************
 SETTING POSTHF(I)      =      -103.79654232  AU                              
                                                                                                                                                                                                                                                                

         SCF            POSTHF       EKIN           POT
    -103.2443341   -103.7965423   57.87035748   -16.67800439
                                                  

 CI/USERDEF energy=   -103.796542317242

        CI              RHF-SCF         MULTI           RHF-SCF 
   -103.79654232   -103.24433405   -103.24433405   -103.24433405
 **********************************************************************************************************************************
 Variable memory released
