TACC:  Starting up job 3912605 
TACC:  Starting parallel tasks... 
  Input file(s): Be.log.qmc.in-wfj.xml 

=====================================================
                    QMCPACK 3.7.9

       (c) Copyright 2003-  QMCPACK developers

                    Please cite:
 J. Kim et al. J. Phys. Cond. Mat. 30 195901 (2018)
      https://doi.org/10.1088/1361-648X/aab9c3

  Git branch: develop
  Last git commit: 9a049a3fb3e0d7110d61a924a52203fd8296522a
  Last git commit date: Mon Jul 1 13:42:43 2019 -0500
  Last git commit subject: Merge pull request #1686 from ye-luo/rename-to-LCAOHDFParser
=====================================================
  Global options 

  Total number of MPI ranks = 1024
  Number of MPI groups      = 1
  MPI group ID              = 0
  Number of ranks in group  = 1024
  MPI ranks per node        = 64
  OMP 1st level threads     = 1
  OMP nested threading disabled or only 1 thread on the 2nd level

  Precision used in this calculation, see definitions in the manual:
  Base precision      = double
  Full precision      = double

  Structure-of-arrays (SoA) optimization enabled

  Input XML = Be.log.qmc.in-wfj.xml

  Project = Be.log
  date    = 2019-07-01 21:17:06 CDT
  host    = c456-024.stampede2.tacc.utexas.edu

 Random Number
 -------------
  Offset for the random number seeds based on time: 674

  Range of prime numbers to use as seeds over processors and threads = 5051-14519


 Particle Set 
 ------------
  Name: ion0
  All the species have the same mass 1
  Particle set size: 1

 Particle Set 
 ------------
  Name: e
  All the species have the same mass 1
  Particle set size: 2

 Wavefunction setup: 
 ------------------- 
  Name: psi0
  LCAO: SoaAtomicBasisSet<MultiQuintic,0>
Reading BasisSet from HDF5 file:Be.log.orbs.h5
<input node="atomicBasisSet" name="Gaussian" expandYlm="Gamess" angular="cartesian" elementType="Be" normalized="no" type="Numerical" expM="0" />
  AO BasisSet for Be
   Angular momentum expanded in cartesian functions x^lx y^ly z^lz according to Gamess
   Grid is created by the input paremters in h5
    Using log grid ri = 1e-06 rf = 100 npts = 1001
   R(n,l,m,s) 0 0 0 0
   R(n,l,m,s) 1 1 0 0
   R(n,l,m,s) 2 0 0 0
   R(n,l,m,s) 3 1 0 0
   R(n,l,m,s) 4 2 0 0
Expanding Ylm (angular function) according to Gamess using cartesian gaussians
Adding 1 cartesian gaussian orbitals for l= 0
Adding 3 cartesian gaussian orbitals for l= 1
Adding 1 cartesian gaussian orbitals for l= 0
Adding 3 cartesian gaussian orbitals for l= 1
Adding 6 cartesian gaussian orbitals for l= 2
  Setting cutoff radius 17.378

   Maximum Angular Momentum  = 2
   Number of Radial functors = 5
   Basis size                = 14

  Created SPOSet builder named 'LCAOBSet' of type molecularorbital
Reuse SPOSetBuilder "LCAOBSet" type MolecularOrbital
  Building SPOSet '' with '' basis set.
Reuse SPOSetBuilder "LCAOBSet" type MolecularOrbital
  Building SPOSet '' with '' basis set.
  Creating a determinant updet group=0 sposet=updet
  Reusing a SPO set updet
Using DiracDeterminant with DelayedUpdate engine
Using rank-1 Sherman-Morrison Fahy update

  Creating a determinant downdet group=1 sposet=downdet
  Reusing a SPO set downdet
Using DiracDeterminant with DelayedUpdate engine
Using rank-1 Sherman-Morrison Fahy update

  FermionWF = SlaterDet

   Jastrow
   -------
    Name: J2   Type: Two-Body   Function: Bspline

    Radial function for species: u - d
     Number of parameters: 10
     Cusp: -0.5
     Cutoff radius: 10

     Name                        Value Type Recompute Use Index
     ---- ---------------------------- ---- --------- --- -----
     ud_0                 1.422539e+00    1         1  ON     0
     ud_1                 1.028539e+00    1         1  ON     1
     ud_2                 6.464669e-01    1         1  ON     2
     ud_3                 3.656416e-01    1         1  ON     3
     ud_4                 1.438587e-01    1         1  ON     4
     ud_5                -4.150841e-02    1         1  ON     5
     ud_6                -1.941289e-01    1         1  ON     6
     ud_7                -3.195962e-01    1         1  ON     7
     ud_8                -3.807399e-01    1         1  ON     8
     ud_9                -4.214949e-01    1         1  ON     9


   Jastrow
   -------
    Name: J1   Type: One-Body   Function: Bspline

    Radial function for element: Be
     Number of parameters: 10
     Cusp: 0
     Cutoff radius: 10

      Name                        Value Type Recompute Use Index
     ----- ---------------------------- ---- --------- --- -----
     eBe_0                -1.235817e+00    1         1  ON     0
     eBe_1                -4.361135e-01    1         1  ON     1
     eBe_2                -3.577216e-01    1         1  ON     2
     eBe_3                -1.471446e-01    1         1  ON     3
     eBe_4                 1.595339e-02    1         1  ON     4
     eBe_5                 2.009374e-01    1         1  ON     5
     eBe_6                 3.447704e-01    1         1  ON     6
     eBe_7                 4.652034e-01    1         1  ON     7
     eBe_8                 4.907580e-01    1         1  ON     8
     eBe_9                 3.871713e-01    1         1  ON     9


   Jastrow
   -------
    Name: J3   Type: eeI   Function: polynomial

     Ion: Be   electron-electron: u - u
      Number of parameters for e-e: 3, for e-I: 3
      Cutoff radius: 10

Expected 26 parameters, but found 0 in PolynomialFunctor3D.
         Name                        Value Type Recompute Use Index
      ------- ---------------------------- ---- --------- --- -----
       uuBe_0                 0.000000e+00    1         1  ON     0
       uuBe_1                 0.000000e+00    1         1  ON     1
       uuBe_2                 0.000000e+00    1         1  ON     2
       uuBe_3                 0.000000e+00    1         1  ON     3
       uuBe_4                 0.000000e+00    1         1  ON     4
       uuBe_5                 0.000000e+00    1         1  ON     5
       uuBe_6                 0.000000e+00    1         1  ON     6
       uuBe_7                 0.000000e+00    1         1  ON     7
       uuBe_8                 0.000000e+00    1         1  ON     8
       uuBe_9                 0.000000e+00    1         1  ON     9
      uuBe_10                 0.000000e+00    1         1  ON    10
      uuBe_11                 0.000000e+00    1         1  ON    11
      uuBe_12                 0.000000e+00    1         1  ON    12
      uuBe_13                 0.000000e+00    1         1  ON    13
      uuBe_14                 0.000000e+00    1         1  ON    14
      uuBe_15                 0.000000e+00    1         1  ON    15
      uuBe_16                 0.000000e+00    1         1  ON    16
      uuBe_17                 0.000000e+00    1         1  ON    17
      uuBe_18                 0.000000e+00    1         1  ON    18
      uuBe_19                 0.000000e+00    1         1  ON    19
      uuBe_20                 0.000000e+00    1         1  ON    20
      uuBe_21                 0.000000e+00    1         1  ON    21
      uuBe_22                 0.000000e+00    1         1  ON    22
      uuBe_23                 0.000000e+00    1         1  ON    23
      uuBe_24                 0.000000e+00    1         1  ON    24
      uuBe_25                 0.000000e+00    1         1  ON    25

     Ion: Be   electron-electron: u - d
      Number of parameters for e-e: 3, for e-I: 3
      Cutoff radius: 10

Expected 26 parameters, but found 0 in PolynomialFunctor3D.
         Name                        Value Type Recompute Use Index
      ------- ---------------------------- ---- --------- --- -----
       udBe_0                 0.000000e+00    1         1  ON     0
       udBe_1                 0.000000e+00    1         1  ON     1
       udBe_2                 0.000000e+00    1         1  ON     2
       udBe_3                 0.000000e+00    1         1  ON     3
       udBe_4                 0.000000e+00    1         1  ON     4
       udBe_5                 0.000000e+00    1         1  ON     5
       udBe_6                 0.000000e+00    1         1  ON     6
       udBe_7                 0.000000e+00    1         1  ON     7
       udBe_8                 0.000000e+00    1         1  ON     8
       udBe_9                 0.000000e+00    1         1  ON     9
      udBe_10                 0.000000e+00    1         1  ON    10
      udBe_11                 0.000000e+00    1         1  ON    11
      udBe_12                 0.000000e+00    1         1  ON    12
      udBe_13                 0.000000e+00    1         1  ON    13
      udBe_14                 0.000000e+00    1         1  ON    14
      udBe_15                 0.000000e+00    1         1  ON    15
      udBe_16                 0.000000e+00    1         1  ON    16
      udBe_17                 0.000000e+00    1         1  ON    17
      udBe_18                 0.000000e+00    1         1  ON    18
      udBe_19                 0.000000e+00    1         1  ON    19
      udBe_20                 0.000000e+00    1         1  ON    20
      udBe_21                 0.000000e+00    1         1  ON    21
      udBe_22                 0.000000e+00    1         1  ON    22
      udBe_23                 0.000000e+00    1         1  ON    23
      udBe_24                 0.000000e+00    1         1  ON    24
      udBe_25                 0.000000e+00    1         1  ON    25

  QMCHamiltonian::addOperator Kinetic to H, physical Hamiltonian 
  QMCHamiltonian::addOperator ElecElec to H, physical Hamiltonian 
QMCHamiltonian::addOperatorType added type coulomb named ElecElec
  CoulombAA for ion0 is not created.  Number of particles == 1 and nonPeriodic

  ECPotential builder for pseudopotential 

  Adding pseudopotential for Be
   Linear grid  ri=0 rf=10 npts = 10001
    ECPComponentBuilder::buildSemiLocalAndLocal 
    Assuming Hartree unit
   Number of angular momentum channels 2
   Maximum angular momentum channel 1
   Creating a Linear Grid Rmax=2.37
  Using global grid with delta = 0.001
   Making L=1 a local potential with a radial cutoff of 9.999
    Non-local pseudopotential parameters
    Maximum angular mementum = 0
    Number of non-local channels = 1
       l(0)=0
    Cutoff radius = 2.37
    Spherical grids and weights: 
                        1                 0                 0       0.08333333333
                       -1   1.224646799e-16                 0       0.08333333333
             0.4472135955       0.894427191                 0       0.08333333333
            -0.4472135955      0.7236067977      0.5257311121       0.08333333333
             0.4472135955      0.2763932023      0.8506508084       0.08333333333
            -0.4472135955     -0.2763932023      0.8506508084       0.08333333333
             0.4472135955     -0.7236067977      0.5257311121       0.08333333333
            -0.4472135955      -0.894427191   1.095357397e-16       0.08333333333
             0.4472135955     -0.7236067977     -0.5257311121       0.08333333333
            -0.4472135955     -0.2763932023     -0.8506508084       0.08333333333
             0.4472135955      0.2763932023     -0.8506508084       0.08333333333
            -0.4472135955      0.7236067977     -0.5257311121       0.08333333333
    Maximum cutoff radius 2.37
  QMCHamiltonian::addOperator LocalECP to H, physical Hamiltonian 

  Using NonLocalECP potential 
    Maximum grid on a sphere for NonLocalECPotential: 12
  QMCHamiltonian::addOperator NonLocalECP to H, physical Hamiltonian 
QMCHamiltonian::addOperatorType added type pseudo named PseudoPot

  QMCHamiltonian::add2WalkerProperty added
    4 to P::PropertyList 
    0 to P::Collectables 
    starting Index of the observables in P::PropertyList = 9
ParticleSetPool::randomize 
<init source="ion0" target="e">
</init>
  Initialization Execution time = 0.3817 secs
=========================================================
 Summary of QMC systems 
=========================================================
ParticleSetPool has: 

  ParticleSet 'e' contains 2 particles :  u(1) d(1)

    u -8.4744734420e-01 -3.8869569225e-01  5.4966543764e-02
    d  1.6081138244e+00 -5.5277514740e-01 -1.2750235130e-01

  Distance table for dissimilar particles (A-B):
    source: ion0  target: e
    Using structure-of-arrays (SoA) data layout
    Distance computations use open boundary conditions in 3D.

  Distance table for similar particles (A-A):
    source/target: e
    Using structure-of-arrays (SoA) data layout
    Distance computations use open boundary conditions in 3D.


  ParticleSet 'ion0' contains 1 particles :  Be(1)

    Be  0.0000000000e+00  0.0000000000e+00  0.0000000000e+00


  Hamiltonian h0
  Kinetic         Kinetic energy
  ElecElec        CoulombAB source=e

  LocalECP        LocalECPotential: ion0
  NonLocalECP     NonLocalECPotential: ion0


=========================================================
  Start VMC
  File Root Be.log.s000 append = no 
=========================================================
  Adding 1 walkers to 0 existing sets
  Total number of walkers: 1.0240000000e+03
  Total weight: 1.0240000000e+03
  Resetting Properties of the walkers 1 x 13

<vmc function="put">
  qmc_counter=0  my_counter=0
  time step      = 1.5000000000e-01
  blocks         = 200
  steps          = 1
  substeps       = 5
  current        = 0
  target samples = 1.0240000000e+03
  walkers/mpi    = 1

  stepsbetweensamples = 200
<parameter name="blocks" condition="int">200</parameter>
<parameter name="blocks_between_recompute" condition="int">0</parameter>
<parameter name="check_properties" condition="int">100</parameter>
<parameter name="checkproperties" condition="int">100</parameter>
<parameter name="current" condition="int">0</parameter>
<parameter name="dmcwalkersperthread" condition="real">1.0000000000e+00</parameter>
<parameter name="maxcpusecs" condition="real">3.6000000000e+05</parameter>
<parameter name="record_configs" condition="int">0</parameter>
<parameter name="record_walkers" condition="int">200</parameter>
<parameter name="recordconfigs" condition="int">0</parameter>
<parameter name="recordwalkers" condition="int">200</parameter>
<parameter name="rewind" condition="int">0</parameter>
<parameter name="samples" condition="real">1.0240000000e+03</parameter>
<parameter name="samplesperthread" condition="real">1.0000000000e+00</parameter>
<parameter name="steps" condition="int">1</parameter>
<parameter name="stepsbetweensamples" condition="int">200</parameter>
<parameter name="store_configs" condition="int">0</parameter>
<parameter name="storeconfigs" condition="int">0</parameter>
<parameter name="sub_steps" condition="int">5</parameter>
<parameter name="substeps" condition="int">5</parameter>
<parameter name="tau" condition="au">1.5000000000e-01</parameter>
<parameter name="time_step" condition="au">1.5000000000e-01</parameter>
<parameter name="timestep" condition="au">1.5000000000e-01</parameter>
<parameter name="use_drift" condition="string">no</parameter>
<parameter name="usedrift" condition="string">no</parameter>
<parameter name="walkers" condition="int">1</parameter>
<parameter name="warmup_steps" condition="int">100</parameter>
<parameter name="warmupsteps" condition="int">100</parameter>
  DumpConfig==false Nothing (configurations, state) will be saved.
  Walker Samples are dumped every 200 steps.
</vmc>
  Set drift_modifier UNR parameter a = 1.0000000000e+00
  Initial partition of walkers 0 1 

  Using Particle by Particle moves
  Walker moves without drift
  Total Sample Size   =1024
  Walker distribution on root = 0 1 
  Using Locality Approximation
===== Memory Usage after the buffer registration =====
Available memory on node 0, free + buffers : 85292 MB
Memory footprint by rank 0 on node 0       : 63 MB
==================================================
  Anonymous Buffer size per walker : 1024 Bytes.
MEMORY increase 0 MB VMC::resetRun
====================================================
  SimpleFixedNodeBranch::finalize after a VMC block
    QMC counter        = 0
    time step          = 0.15
    reference energy   = -0.972336
    reference variance = 0.102396
====================================================
  QMC Execution time = 5.5602e-01 secs
Loop execution max-interations = 20

=========================================================
  Start QMCFixedSampleLinearOptimize
  File Root Be.log.s001 append = no 
=========================================================
  Skip QMCDriver::putQMCInfo 
  Resetting Properties of the walkers 1 x 13

=========================================================
  Start VMC
  File Root Be.log.s001 append = no 
=========================================================
  Using the current 1 walkers.
  Total number of walkers: 1.0240e+03
  Total weight: 1.0240e+03
  Resetting Properties of the walkers 1 x 13

<vmc function="put">
  qmc_counter=0  my_counter=0
  time step      = 1.5000e-01
  blocks         = 300
  steps          = 2
  substeps       = 5
  current        = 0
  target samples = 5.1200e+05
  walkers/mpi    = 1

  stepsbetweensamples = 1
<parameter name="blocks" condition="int">300</parameter>
<parameter name="blocks_between_recompute" condition="int">0</parameter>
<parameter name="check_properties" condition="int">100</parameter>
<parameter name="checkproperties" condition="int">100</parameter>
<parameter name="current" condition="int">0</parameter>
<parameter name="dmcwalkersperthread" condition="real">5.0000e+02</parameter>
<parameter name="maxcpusecs" condition="real">3.6000e+05</parameter>
<parameter name="record_configs" condition="int">0</parameter>
<parameter name="record_walkers" condition="int">1</parameter>
<parameter name="recordconfigs" condition="int">0</parameter>
<parameter name="recordwalkers" condition="int">1</parameter>
<parameter name="rewind" condition="int">0</parameter>
<parameter name="samples" condition="real">5.1200e+05</parameter>
<parameter name="samplesperthread" condition="real">5.0000e+02</parameter>
<parameter name="steps" condition="int">2</parameter>
<parameter name="stepsbetweensamples" condition="int">1</parameter>
<parameter name="store_configs" condition="int">0</parameter>
<parameter name="storeconfigs" condition="int">0</parameter>
<parameter name="sub_steps" condition="int">5</parameter>
<parameter name="substeps" condition="int">5</parameter>
<parameter name="tau" condition="au">1.5000e-01</parameter>
<parameter name="time_step" condition="au">1.5000e-01</parameter>
<parameter name="timestep" condition="au">1.5000e-01</parameter>
<parameter name="use_drift" condition="string">no</parameter>
<parameter name="usedrift" condition="string">no</parameter>
<parameter name="walkers" condition="int">1</parameter>
<parameter name="warmup_steps" condition="int">0</parameter>
<parameter name="warmupsteps" condition="int">0</parameter>
  DumpConfig==false Nothing (configurations, state) will be saved.
  Walker Samples are dumped every 1 steps.
</vmc>
    Restarting, cummulative properties:
      energy     = -9.7234e-01
      variance   = 0.0000e+00
      r2accepted = 1.0000e-10
      r2proposed = 1.0000e-10
  Set drift_modifier UNR parameter a = 1.0000e+00
 Using QMCCostFunction::QMCCostFunction
  Set drift_modifier UNR parameter a = 1.0000e+00
  EstimatorManagerBase::add replace LocalEnergy estimator.
<optimization-report>
<vmc stage="main" blocks="300">
  Cannot make clones again. Use existing 1 clones
  Initial partition of walkers 0 1 

  Using Particle by Particle moves
  Walker moves without drift
  Total Sample Size   =512000
  Walker distribution on root = 0 1 
  Using Locality Approximation
===== Memory Usage after the buffer registration =====
Available memory on node 0, free + buffers : 85292 MB
Memory footprint by rank 0 on node 0       : 63 MB
==================================================
  Anonymous Buffer size per walker : 1024 Bytes.
MEMORY increase 0 MB VMC::resetRun
====================================================
  SimpleFixedNodeBranch::finalize after a VMC block
    QMC counter        = 1
    time step          = 0.15
    reference energy   = -0.982624
    reference variance = 0.0808578
====================================================
  Execution time = 1.6888e+00
</vmc>
<opt stage="setup">
  <log>
   Reading configurations from h5FileRoot Be.log.s001
  QMCCostFunction is created with 1 threads.
  Using Nonlocal PP in Opt: NonLocalECP
   Number of samples loaded to each thread : 500 
  VMC Eavg = -1.0171e+00
  VMC Evar = 5.3387e-02
  Total weights = 5.1200e+05
  Execution time = 2.9399e-01
  </log>
</opt>
<opt stage="main" walkers="512000">
  <log>

*****************************************
Building overlap and Hamiltonian matrices
*****************************************

Among totally 72 optimized parameters, largest LM parameter change : 4.1082e-02 at parameter 11

******************************************************************************
Init Cost =  -9.6358e-01    New Cost =  -9.6687e-01  Delta Cost =  -3.2911e-03
******************************************************************************

The new set of parameters is valid. Updating the trial wave function!

*****************************************************************************
Applying the update for shift_i =   1.0000e-02     and shift_s =   2.5000e-01
*****************************************************************************
  Execution time = 3.2751e+00
  </log>
  <optVariables href="Be.log.s001.opt.xml">
   ud_0                 1.420439e+00 1 1  ON 0
   ud_1                 1.008724e+00 1 1  ON 1
   ud_2                 6.588252e-01 1 1  ON 2
   ud_3                 3.798565e-01 1 1  ON 3
   ud_4                 1.640617e-01 1 1  ON 4
   ud_5                -1.741550e-02 1 1  ON 5
   ud_6                -1.813416e-01 1 1  ON 6
   ud_7                -3.043595e-01 1 1  ON 7
   ud_8                -3.634777e-01 1 1  ON 8
   ud_9                -4.076819e-01 1 1  ON 9
  eBe_0                -1.229596e+00 1 1  ON 10
  eBe_1                -3.950318e-01 1 1  ON 11
  eBe_2                -3.545051e-01 1 1  ON 12
  eBe_3                -1.598563e-01 1 1  ON 13
  eBe_4                 1.821329e-02 1 1  ON 14
  eBe_5                 1.738933e-01 1 1  ON 15
  eBe_6                 3.244905e-01 1 1  ON 16
  eBe_7                 4.503807e-01 1 1  ON 17
  eBe_8                 4.838674e-01 1 1  ON 18
  eBe_9                 3.950078e-01 1 1  ON 19
 uuBe_0                 0.000000e+00 1 1  ON 20
 uuBe_1                 0.000000e+00 1 1  ON 21
 uuBe_2                 0.000000e+00 1 1  ON 22
 uuBe_3                 0.000000e+00 1 1  ON 23
 uuBe_4                 0.000000e+00 1 1  ON 24
 uuBe_5                 0.000000e+00 1 1  ON 25
 uuBe_6                 0.000000e+00 1 1  ON 26
 uuBe_7                 0.000000e+00 1 1  ON 27
 uuBe_8                 0.000000e+00 1 1  ON 28
 uuBe_9                 0.000000e+00 1 1  ON 29
uuBe_10                 0.000000e+00 1 1  ON 30
uuBe_11                 0.000000e+00 1 1  ON 31
uuBe_12                 0.000000e+00 1 1  ON 32
uuBe_13                 0.000000e+00 1 1  ON 33
uuBe_14                 0.000000e+00 1 1  ON 34
uuBe_15                 0.000000e+00 1 1  ON 35
uuBe_16                 0.000000e+00 1 1  ON 36
uuBe_17                 0.000000e+00 1 1  ON 37
uuBe_18                 0.000000e+00 1 1  ON 38
uuBe_19                 0.000000e+00 1 1  ON 39
uuBe_20                 0.000000e+00 1 1  ON 40
uuBe_21                 0.000000e+00 1 1  ON 41
uuBe_22                 0.000000e+00 1 1  ON 42
uuBe_23                 0.000000e+00 1 1  ON 43
uuBe_24                 0.000000e+00 1 1  ON 44
uuBe_25                 0.000000e+00 1 1  ON 45
 udBe_0                 1.046176e-05 1 1  ON 46
 udBe_1                -8.836768e-05 1 1  ON 47
 udBe_2                -9.477451e-05 1 1  ON 48
 udBe_3                 1.032861e-04 1 1  ON 49
 udBe_4                 3.894644e-05 1 1  ON 50
 udBe_5                 3.382297e-06 1 1  ON 51
 udBe_6                -1.488005e-04 1 1  ON 52
 udBe_7                 4.379527e-05 1 1  ON 53
 udBe_8                -1.508364e-04 1 1  ON 54
 udBe_9                 7.777453e-05 1 1  ON 55
udBe_10                 6.966962e-05 1 1  ON 56
udBe_11                 2.526540e-05 1 1  ON 57
udBe_12                 4.756732e-05 1 1  ON 58
udBe_13                -1.381167e-04 1 1  ON 59
udBe_14                -3.823051e-05 1 1  ON 60
udBe_15                -8.576911e-07 1 1  ON 61
udBe_16                 2.848006e-05 1 1  ON 62
udBe_17                -1.734855e-04 1 1  ON 63
udBe_18                 5.213082e-05 1 1  ON 64
udBe_19                -2.385313e-05 1 1  ON 65
udBe_20                 3.062213e-05 1 1  ON 66
udBe_21                -2.257501e-06 1 1  ON 67
udBe_22                 2.313709e-06 1 1  ON 68
udBe_23                -4.645420e-06 1 1  ON 69
udBe_24                 1.196234e-06 1 1  ON 70
udBe_25                -4.157484e-07 1 1  ON 71
  </optVariables>
   Restore the number of walkers to 1, removing 0 walkers.
</opt>
</optimization-report>
  QMC Execution time = 3.288 secs
  Reusing QMCFixedSampleLinearOptimize
 Using QMCCostFunction::QMCCostFunction

=========================================================
  Start QMCFixedSampleLinearOptimize
  File Root Be.log.s002 append = no 
=========================================================
  Skip QMCDriver::putQMCInfo 
  Resetting Properties of the walkers 1 x 13

=========================================================
  Start VMC
  File Root Be.log.s002 append = no 
=========================================================
Using existing walkers 
  Resetting Properties of the walkers 1 x 13

<vmc function="put">
  qmc_counter=1  my_counter=1
  time step      = 1.5000e-01
  blocks         = 300
  steps          = 2
  substeps       = 5
  current        = 0
  target samples = 5.1200e+05
  walkers/mpi    = 1

  stepsbetweensamples = 1
<parameter name="blocks" condition="int">300</parameter>
<parameter name="blocks_between_recompute" condition="int">0</parameter>
<parameter name="check_properties" condition="int">100</parameter>
<parameter name="checkproperties" condition="int">100</parameter>
<parameter name="current" condition="int">0</parameter>
<parameter name="dmcwalkersperthread" condition="real">5.0000e+02</parameter>
<parameter name="maxcpusecs" condition="real">3.6000e+05</parameter>
<parameter name="record_configs" condition="int">0</parameter>
<parameter name="record_walkers" condition="int">1</parameter>
<parameter name="recordconfigs" condition="int">0</parameter>
<parameter name="recordwalkers" condition="int">1</parameter>
<parameter name="rewind" condition="int">0</parameter>
<parameter name="samples" condition="real">5.1200e+05</parameter>
<parameter name="samplesperthread" condition="real">5.0000e+02</parameter>
<parameter name="steps" condition="int">2</parameter>
<parameter name="stepsbetweensamples" condition="int">1</parameter>
<parameter name="store_configs" condition="int">0</parameter>
<parameter name="storeconfigs" condition="int">0</parameter>
<parameter name="sub_steps" condition="int">5</parameter>
<parameter name="substeps" condition="int">5</parameter>
<parameter name="tau" condition="au">1.5000e-01</parameter>
<parameter name="time_step" condition="au">1.5000e-01</parameter>
<parameter name="timestep" condition="au">1.5000e-01</parameter>
<parameter name="use_drift" condition="string">no</parameter>
<parameter name="usedrift" condition="string">no</parameter>
<parameter name="walkers" condition="int">1</parameter>
<parameter name="warmup_steps" condition="int">0</parameter>
<parameter name="warmupsteps" condition="int">0</parameter>
  DumpConfig==false Nothing (configurations, state) will be saved.
  Walker Samples are dumped every 1 steps.
</vmc>
  Set drift_modifier UNR parameter a = 1.0000e+00
  EstimatorManagerBase::add replace LocalEnergy estimator.
  Set drift_modifier UNR parameter a = 1.0000e+00
  EstimatorManagerBase::add replace LocalEnergy estimator.
<optimization-report>
<vmc stage="main" blocks="300">
  Cannot make clones again. Use existing 1 clones
  Initial partition of walkers 0 1 
  Using Particle by Particle moves
  Walker moves without drift
  Total Sample Size   =512000
  Walker distribution on root = 0 1 
  Using Locality Approximation
===== Memory Usage after the buffer registration =====
Available memory on node 0, free + buffers : 52526 MB
Memory footprint by rank 0 on node 0       : 585 MB
==================================================
====================================================
  SimpleFixedNodeBranch::finalize after a VMC block
    QMC counter        = 2
    time step          = 0.15
    reference energy   = -0.999575
    reference variance = 0.0659333
====================================================
  Execution time = 1.6955e+00
</vmc>
<opt stage="setup">
  <log>
   Reading configurations from h5FileRoot Be.log.s002
  QMCCostFunction is created with 1 threads.
  Using Nonlocal PP in Opt: NonLocalECP
   Number of samples loaded to each thread : 500 
  VMC Eavg = -1.0235e+00
  VMC Evar = 4.7511e-02
  Total weights = 5.1200e+05
  Execution time = 2.9055e-01
  </log>
</opt>
<opt stage="main" walkers="512000">
  <log>

*****************************************
Building overlap and Hamiltonian matrices
*****************************************

Among totally 72 optimized parameters, largest LM parameter change : 2.9960e-02 at parameter 15

******************************************************************************
Init Cost =  -9.6996e-01    New Cost =  -9.7165e-01  Delta Cost =  -1.6865e-03
******************************************************************************

The new set of parameters is valid. Updating the trial wave function!

*****************************************************************************
Applying the update for shift_i =   1.0000e-02     and shift_s =   6.2500e-02
*****************************************************************************
  Execution time = 2.3699e+00
  </log>
  <optVariables href="Be.log.s002.opt.xml">
   ud_0                 1.419458e+00 1 1  ON 0
   ud_1                 9.965690e-01 1 1  ON 1
   ud_2                 6.702677e-01 1 1  ON 2
   ud_3                 3.973315e-01 1 1  ON 3
   ud_4                 1.884514e-01 1 1  ON 4
   ud_5                 4.085808e-03 1 1  ON 5
   ud_6                -1.684052e-01 1 1  ON 6
   ud_7                -2.921746e-01 1 1  ON 7
   ud_8                -3.503479e-01 1 1  ON 8
   ud_9                -3.951789e-01 1 1  ON 9
  eBe_0                -1.221786e+00 1 1  ON 10
  eBe_1                -3.654116e-01 1 1  ON 11
  eBe_2                -3.468669e-01 1 1  ON 12
  eBe_3                -1.611749e-01 1 1  ON 13
  eBe_4                 1.458068e-02 1 1  ON 14
  eBe_5                 1.439331e-01 1 1  ON 15
  eBe_6                 3.035944e-01 1 1  ON 16
  eBe_7                 4.379793e-01 1 1  ON 17
  eBe_8                 4.813045e-01 1 1  ON 18
  eBe_9                 4.017617e-01 1 1  ON 19
 uuBe_0                 0.000000e+00 1 1  ON 20
 uuBe_1                 0.000000e+00 1 1  ON 21
 uuBe_2                 0.000000e+00 1 1  ON 22
 uuBe_3                 0.000000e+00 1 1  ON 23
 uuBe_4                 0.000000e+00 1 1  ON 24
 uuBe_5                 0.000000e+00 1 1  ON 25
 uuBe_6                 0.000000e+00 1 1  ON 26
 uuBe_7                 0.000000e+00 1 1  ON 27
 uuBe_8                 0.000000e+00 1 1  ON 28
 uuBe_9                 0.000000e+00 1 1  ON 29
uuBe_10                 0.000000e+00 1 1  ON 30
uuBe_11                 0.000000e+00 1 1  ON 31
uuBe_12                 0.000000e+00 1 1  ON 32
uuBe_13                 0.000000e+00 1 1  ON 33
uuBe_14                 0.000000e+00 1 1  ON 34
uuBe_15                 0.000000e+00 1 1  ON 35
uuBe_16                 0.000000e+00 1 1  ON 36
uuBe_17                 0.000000e+00 1 1  ON 37
uuBe_18                 0.000000e+00 1 1  ON 38
uuBe_19                 0.000000e+00 1 1  ON 39
uuBe_20                 0.000000e+00 1 1  ON 40
uuBe_21                 0.000000e+00 1 1  ON 41
uuBe_22                 0.000000e+00 1 1  ON 42
uuBe_23                 0.000000e+00 1 1  ON 43
uuBe_24                 0.000000e+00 1 1  ON 44
uuBe_25                 0.000000e+00 1 1  ON 45
 udBe_0                 3.424194e-06 1 1  ON 46
 udBe_1                -5.989809e-05 1 1  ON 47
 udBe_2                -1.428944e-04 1 1  ON 48
 udBe_3                 1.342412e-04 1 1  ON 49
 udBe_4                 5.362466e-05 1 1  ON 50
 udBe_5                -2.033084e-06 1 1  ON 51
 udBe_6                -1.172312e-04 1 1  ON 52
 udBe_7                 2.253595e-05 1 1  ON 53
 udBe_8                -2.416868e-04 1 1  ON 54
 udBe_9                 7.183439e-05 1 1  ON 55
udBe_10                 7.574544e-05 1 1  ON 56
udBe_11                 9.242830e-05 1 1  ON 57
udBe_12                 7.171857e-05 1 1  ON 58
udBe_13                -1.990634e-04 1 1  ON 59
udBe_14                -6.221891e-05 1 1  ON 60
udBe_15                -9.890220e-07 1 1  ON 61
udBe_16                 5.507216e-05 1 1  ON 62
udBe_17                -2.283413e-04 1 1  ON 63
udBe_18                 2.375099e-05 1 1  ON 64
udBe_19                -3.084075e-05 1 1  ON 65
udBe_20                 5.186657e-05 1 1  ON 66
udBe_21                 4.718807e-06 1 1  ON 67
udBe_22                 2.362557e-06 1 1  ON 68
udBe_23                -1.078409e-05 1 1  ON 69
udBe_24                 4.279693e-07 1 1  ON 70
udBe_25                -3.836654e-07 1 1  ON 71
  </optVariables>
   Restore the number of walkers to 1, removing 0 walkers.
</opt>
</optimization-report>
  QMC Execution time = 2.382 secs
  Reusing QMCFixedSampleLinearOptimize
 Using QMCCostFunction::QMCCostFunction

=========================================================
  Start QMCFixedSampleLinearOptimize
  File Root Be.log.s003 append = no 
=========================================================
  Skip QMCDriver::putQMCInfo 
  Resetting Properties of the walkers 1 x 13

=========================================================
  Start VMC
  File Root Be.log.s003 append = no 
=========================================================
Using existing walkers 
  Resetting Properties of the walkers 1 x 13

<vmc function="put">
  qmc_counter=2  my_counter=2
  time step      = 1.5000e-01
  blocks         = 300
  steps          = 2
  substeps       = 5
  current        = 0
  target samples = 5.1200e+05
  walkers/mpi    = 1

  stepsbetweensamples = 1
<parameter name="blocks" condition="int">300</parameter>
<parameter name="blocks_between_recompute" condition="int">0</parameter>
<parameter name="check_properties" condition="int">100</parameter>
<parameter name="checkproperties" condition="int">100</parameter>
<parameter name="current" condition="int">0</parameter>
<parameter name="dmcwalkersperthread" condition="real">5.0000e+02</parameter>
<parameter name="maxcpusecs" condition="real">3.6000e+05</parameter>
<parameter name="record_configs" condition="int">0</parameter>
<parameter name="record_walkers" condition="int">1</parameter>
<parameter name="recordconfigs" condition="int">0</parameter>
<parameter name="recordwalkers" condition="int">1</parameter>
<parameter name="rewind" condition="int">0</parameter>
<parameter name="samples" condition="real">5.1200e+05</parameter>
<parameter name="samplesperthread" condition="real">5.0000e+02</parameter>
<parameter name="steps" condition="int">2</parameter>
<parameter name="stepsbetweensamples" condition="int">1</parameter>
<parameter name="store_configs" condition="int">0</parameter>
<parameter name="storeconfigs" condition="int">0</parameter>
<parameter name="sub_steps" condition="int">5</parameter>
<parameter name="substeps" condition="int">5</parameter>
<parameter name="tau" condition="au">1.5000e-01</parameter>
<parameter name="time_step" condition="au">1.5000e-01</parameter>
<parameter name="timestep" condition="au">1.5000e-01</parameter>
<parameter name="use_drift" condition="string">no</parameter>
<parameter name="usedrift" condition="string">no</parameter>
<parameter name="walkers" condition="int">1</parameter>
<parameter name="warmup_steps" condition="int">0</parameter>
<parameter name="warmupsteps" condition="int">0</parameter>
  DumpConfig==false Nothing (configurations, state) will be saved.
  Walker Samples are dumped every 1 steps.
</vmc>
  Set drift_modifier UNR parameter a = 1.0000e+00
  EstimatorManagerBase::add replace LocalEnergy estimator.
  Set drift_modifier UNR parameter a = 1.0000e+00
  EstimatorManagerBase::add replace LocalEnergy estimator.
<optimization-report>
<vmc stage="main" blocks="300">
  Cannot make clones again. Use existing 1 clones
  Initial partition of walkers 0 1 
  Using Particle by Particle moves
  Walker moves without drift
  Total Sample Size   =512000
  Walker distribution on root = 0 1 
  Using Locality Approximation
===== Memory Usage after the buffer registration =====
Available memory on node 0, free + buffers : 52524 MB
Memory footprint by rank 0 on node 0       : 588 MB
==================================================
====================================================
  SimpleFixedNodeBranch::finalize after a VMC block
    QMC counter        = 3
    time step          = 0.15
    reference energy   = -0.987744
    reference variance = 0.0805505
====================================================
  Execution time = 1.9061e+00
</vmc>
<opt stage="setup">
  <log>
   Reading configurations from h5FileRoot Be.log.s003
  QMCCostFunction is created with 1 threads.
  Using Nonlocal PP in Opt: NonLocalECP
   Number of samples loaded to each thread : 500 
  VMC Eavg = -1.0231e+00
  VMC Evar = 4.8531e-02
  Total weights = 5.1200e+05
  Execution time = 2.8381e-01
  </log>
</opt>
<opt stage="main" walkers="512000">
  <log>

*****************************************
Building overlap and Hamiltonian matrices
*****************************************

Among totally 72 optimized parameters, largest LM parameter change : 2.6205e-02 at parameter 15

******************************************************************************
Init Cost =  -9.6948e-01    New Cost =  -9.7015e-01  Delta Cost =  -6.6663e-04
******************************************************************************

The new set of parameters is valid. Updating the trial wave function!

*****************************************************************************
Applying the update for shift_i =   1.0000e-02     and shift_s =   1.5625e-02
*****************************************************************************
  Execution time = 2.5760e+00
  </log>
  <optVariables href="Be.log.s003.opt.xml">
   ud_0                 1.419461e+00 1 1  ON 0
   ud_1                 9.896441e-01 1 1  ON 1
   ud_2                 6.801731e-01 1 1  ON 2
   ud_3                 4.147116e-01 1 1  ON 3
   ud_4                 2.105616e-01 1 1  ON 4
   ud_5                 2.234601e-02 1 1  ON 5
   ud_6                -1.578578e-01 1 1  ON 6
   ud_7                -2.829041e-01 1 1  ON 7
   ud_8                -3.399972e-01 1 1  ON 8
   ud_9                -3.830697e-01 1 1  ON 9
  eBe_0                -1.213871e+00 1 1  ON 10
  eBe_1                -3.489770e-01 1 1  ON 11
  eBe_2                -3.406317e-01 1 1  ON 12
  eBe_3                -1.622774e-01 1 1  ON 13
  eBe_4                 9.103554e-03 1 1  ON 14
  eBe_5                 1.177278e-01 1 1  ON 15
  eBe_6                 2.866601e-01 1 1  ON 16
  eBe_7                 4.274339e-01 1 1  ON 17
  eBe_8                 4.788400e-01 1 1  ON 18
  eBe_9                 4.085134e-01 1 1  ON 19
 uuBe_0                 0.000000e+00 1 1  ON 20
 uuBe_1                 0.000000e+00 1 1  ON 21
 uuBe_2                 0.000000e+00 1 1  ON 22
 uuBe_3                 0.000000e+00 1 1  ON 23
 uuBe_4                 0.000000e+00 1 1  ON 24
 uuBe_5                 0.000000e+00 1 1  ON 25
 uuBe_6                 0.000000e+00 1 1  ON 26
 uuBe_7                 0.000000e+00 1 1  ON 27
 uuBe_8                 0.000000e+00 1 1  ON 28
 uuBe_9                 0.000000e+00 1 1  ON 29
uuBe_10                 0.000000e+00 1 1  ON 30
uuBe_11                 0.000000e+00 1 1  ON 31
uuBe_12                 0.000000e+00 1 1  ON 32
uuBe_13                 0.000000e+00 1 1  ON 33
uuBe_14                 0.000000e+00 1 1  ON 34
uuBe_15                 0.000000e+00 1 1  ON 35
uuBe_16                 0.000000e+00 1 1  ON 36
uuBe_17                 0.000000e+00 1 1  ON 37
uuBe_18                 0.000000e+00 1 1  ON 38
uuBe_19                 0.000000e+00 1 1  ON 39
uuBe_20                 0.000000e+00 1 1  ON 40
uuBe_21                 0.000000e+00 1 1  ON 41
uuBe_22                 0.000000e+00 1 1  ON 42
uuBe_23                 0.000000e+00 1 1  ON 43
uuBe_24                 0.000000e+00 1 1  ON 44
uuBe_25                 0.000000e+00 1 1  ON 45
 udBe_0                 2.347872e-06 1 1  ON 46
 udBe_1                -3.928027e-05 1 1  ON 47
 udBe_2                -1.772723e-04 1 1  ON 48
 udBe_3                 1.496378e-04 1 1  ON 49
 udBe_4                 6.111825e-05 1 1  ON 50
 udBe_5                -3.065680e-06 1 1  ON 51
 udBe_6                -1.008425e-04 1 1  ON 52
 udBe_7                 2.121658e-05 1 1  ON 53
 udBe_8                -2.959484e-04 1 1  ON 54
 udBe_9                 6.339756e-05 1 1  ON 55
udBe_10                 7.348563e-05 1 1  ON 56
udBe_11                 1.355999e-04 1 1  ON 57
udBe_12                 8.544319e-05 1 1  ON 58
udBe_13                -2.310720e-04 1 1  ON 59
udBe_14                -7.513884e-05 1 1  ON 60
udBe_15                -1.134117e-06 1 1  ON 61
udBe_16                 6.099211e-05 1 1  ON 62
udBe_17                -2.494278e-04 1 1  ON 63
udBe_18                 3.081363e-07 1 1  ON 64
udBe_19                -3.409542e-05 1 1  ON 65
udBe_20                 6.682902e-05 1 1  ON 66
udBe_21                 9.161464e-06 1 1  ON 67
udBe_22                 2.301546e-06 1 1  ON 68
udBe_23                -1.511341e-05 1 1  ON 69
udBe_24                -6.575462e-09 1 1  ON 70
udBe_25                -3.548184e-07 1 1  ON 71
  </optVariables>
   Restore the number of walkers to 1, removing 0 walkers.
</opt>
</optimization-report>
  QMC Execution time = 2.587 secs
  Reusing QMCFixedSampleLinearOptimize
 Using QMCCostFunction::QMCCostFunction

=========================================================
  Start QMCFixedSampleLinearOptimize
  File Root Be.log.s004 append = no 
=========================================================
  Skip QMCDriver::putQMCInfo 
  Resetting Properties of the walkers 1 x 13

=========================================================
  Start VMC
  File Root Be.log.s004 append = no 
=========================================================
Using existing walkers 
  Resetting Properties of the walkers 1 x 13

<vmc function="put">
  qmc_counter=3  my_counter=3
  time step      = 1.5000e-01
  blocks         = 300
  steps          = 2
  substeps       = 5
  current        = 0
  target samples = 5.1200e+05
  walkers/mpi    = 1

  stepsbetweensamples = 1
<parameter name="blocks" condition="int">300</parameter>
<parameter name="blocks_between_recompute" condition="int">0</parameter>
<parameter name="check_properties" condition="int">100</parameter>
<parameter name="checkproperties" condition="int">100</parameter>
<parameter name="current" condition="int">0</parameter>
<parameter name="dmcwalkersperthread" condition="real">5.0000e+02</parameter>
<parameter name="maxcpusecs" condition="real">3.6000e+05</parameter>
<parameter name="record_configs" condition="int">0</parameter>
<parameter name="record_walkers" condition="int">1</parameter>
<parameter name="recordconfigs" condition="int">0</parameter>
<parameter name="recordwalkers" condition="int">1</parameter>
<parameter name="rewind" condition="int">0</parameter>
<parameter name="samples" condition="real">5.1200e+05</parameter>
<parameter name="samplesperthread" condition="real">5.0000e+02</parameter>
<parameter name="steps" condition="int">2</parameter>
<parameter name="stepsbetweensamples" condition="int">1</parameter>
<parameter name="store_configs" condition="int">0</parameter>
<parameter name="storeconfigs" condition="int">0</parameter>
<parameter name="sub_steps" condition="int">5</parameter>
<parameter name="substeps" condition="int">5</parameter>
<parameter name="tau" condition="au">1.5000e-01</parameter>
<parameter name="time_step" condition="au">1.5000e-01</parameter>
<parameter name="timestep" condition="au">1.5000e-01</parameter>
<parameter name="use_drift" condition="string">no</parameter>
<parameter name="usedrift" condition="string">no</parameter>
<parameter name="walkers" condition="int">1</parameter>
<parameter name="warmup_steps" condition="int">0</parameter>
<parameter name="warmupsteps" condition="int">0</parameter>
  DumpConfig==false Nothing (configurations, state) will be saved.
  Walker Samples are dumped every 1 steps.
</vmc>
  Set drift_modifier UNR parameter a = 1.0000e+00
  EstimatorManagerBase::add replace LocalEnergy estimator.
  Set drift_modifier UNR parameter a = 1.0000e+00
  EstimatorManagerBase::add replace LocalEnergy estimator.
<optimization-report>
<vmc stage="main" blocks="300">
  Cannot make clones again. Use existing 1 clones
  Initial partition of walkers 0 1 
  Using Particle by Particle moves
  Walker moves without drift
  Total Sample Size   =512000
  Walker distribution on root = 0 1 
  Using Locality Approximation
===== Memory Usage after the buffer registration =====
Available memory on node 0, free + buffers : 52517 MB
Memory footprint by rank 0 on node 0       : 590 MB
==================================================
====================================================
  SimpleFixedNodeBranch::finalize after a VMC block
    QMC counter        = 4
    time step          = 0.15
    reference energy   = -1.00468
    reference variance = 0.0702075
====================================================
  Execution time = 1.7049e+00
</vmc>
<opt stage="setup">
  <log>
   Reading configurations from h5FileRoot Be.log.s004
  QMCCostFunction is created with 1 threads.
  Using Nonlocal PP in Opt: NonLocalECP
   Number of samples loaded to each thread : 500 
  VMC Eavg = -1.0251e+00
  VMC Evar = 4.9516e-02
  Total weights = 5.1200e+05
  Execution time = 2.9199e-01
  </log>
</opt>
<opt stage="main" walkers="512000">
  <log>

*****************************************
Building overlap and Hamiltonian matrices
*****************************************

Among totally 72 optimized parameters, largest LM parameter change : 1.8716e-02 at parameter 4

******************************************************************************
Init Cost =  -9.7139e-01    New Cost =  -9.7163e-01  Delta Cost =  -2.3688e-04
******************************************************************************

The new set of parameters is valid. Updating the trial wave function!

*****************************************************************************
Applying the update for shift_i =   1.0000e-02     and shift_s =   3.9062e-03
*****************************************************************************
  Execution time = 2.3840e+00
  </log>
  <optVariables href="Be.log.s004.opt.xml">
   ud_0                 1.419329e+00 1 1  ON 0
   ud_1                 9.879058e-01 1 1  ON 1
   ud_2                 6.912075e-01 1 1  ON 2
   ud_3                 4.303263e-01 1 1  ON 3
   ud_4                 2.292780e-01 1 1  ON 4
   ud_5                 3.959616e-02 1 1  ON 5
   ud_6                -1.448918e-01 1 1  ON 6
   ud_7                -2.706136e-01 1 1  ON 7
   ud_8                -3.291589e-01 1 1  ON 8
   ud_9                -3.723525e-01 1 1  ON 9
  eBe_0                -1.214099e+00 1 1  ON 10
  eBe_1                -3.433560e-01 1 1  ON 11
  eBe_2                -3.354673e-01 1 1  ON 12
  eBe_3                -1.571171e-01 1 1  ON 13
  eBe_4                 1.099763e-02 1 1  ON 14
  eBe_5                 1.045274e-01 1 1  ON 15
  eBe_6                 2.734759e-01 1 1  ON 16
  eBe_7                 4.158528e-01 1 1  ON 17
  eBe_8                 4.764222e-01 1 1  ON 18
  eBe_9                 4.148530e-01 1 1  ON 19
 uuBe_0                 0.000000e+00 1 1  ON 20
 uuBe_1                 0.000000e+00 1 1  ON 21
 uuBe_2                 0.000000e+00 1 1  ON 22
 uuBe_3                 0.000000e+00 1 1  ON 23
 uuBe_4                 0.000000e+00 1 1  ON 24
 uuBe_5                 0.000000e+00 1 1  ON 25
 uuBe_6                 0.000000e+00 1 1  ON 26
 uuBe_7                 0.000000e+00 1 1  ON 27
 uuBe_8                 0.000000e+00 1 1  ON 28
 uuBe_9                 0.000000e+00 1 1  ON 29
uuBe_10                 0.000000e+00 1 1  ON 30
uuBe_11                 0.000000e+00 1 1  ON 31
uuBe_12                 0.000000e+00 1 1  ON 32
uuBe_13                 0.000000e+00 1 1  ON 33
uuBe_14                 0.000000e+00 1 1  ON 34
uuBe_15                 0.000000e+00 1 1  ON 35
uuBe_16                 0.000000e+00 1 1  ON 36
uuBe_17                 0.000000e+00 1 1  ON 37
uuBe_18                 0.000000e+00 1 1  ON 38
uuBe_19                 0.000000e+00 1 1  ON 39
uuBe_20                 0.000000e+00 1 1  ON 40
uuBe_21                 0.000000e+00 1 1  ON 41
uuBe_22                 0.000000e+00 1 1  ON 42
uuBe_23                 0.000000e+00 1 1  ON 43
uuBe_24                 0.000000e+00 1 1  ON 44
uuBe_25                 0.000000e+00 1 1  ON 45
 udBe_0                -2.257695e-05 1 1  ON 46
 udBe_1                -4.431091e-06 1 1  ON 47
 udBe_2                -1.710173e-04 1 1  ON 48
 udBe_3                 1.624557e-04 1 1  ON 49
 udBe_4                 6.016551e-05 1 1  ON 50
 udBe_5                -7.241448e-06 1 1  ON 51
 udBe_6                -3.459956e-05 1 1  ON 52
 udBe_7                 2.255742e-05 1 1  ON 53
 udBe_8                -3.122346e-04 1 1  ON 54
 udBe_9                 4.685822e-05 1 1  ON 55
udBe_10                 6.948995e-05 1 1  ON 56
udBe_11                 1.515058e-04 1 1  ON 57
udBe_12                 8.914001e-05 1 1  ON 58
udBe_13                -2.607099e-04 1 1  ON 59
udBe_14                -8.087436e-05 1 1  ON 60
udBe_15                -1.013223e-06 1 1  ON 61
udBe_16                 8.603750e-05 1 1  ON 62
udBe_17                -2.714978e-04 1 1  ON 63
udBe_18                -9.618885e-06 1 1  ON 64
udBe_19                -3.433573e-05 1 1  ON 65
udBe_20                 7.556868e-05 1 1  ON 66
udBe_21                 1.155264e-05 1 1  ON 67
udBe_22                 2.093660e-06 1 1  ON 68
udBe_23                -1.749352e-05 1 1  ON 69
udBe_24                -3.565439e-07 1 1  ON 70
udBe_25                -3.045675e-07 1 1  ON 71
  </optVariables>
   Restore the number of walkers to 1, removing 0 walkers.
</opt>
</optimization-report>
  QMC Execution time = 2.395 secs
  Reusing QMCFixedSampleLinearOptimize
 Using QMCCostFunction::QMCCostFunction

=========================================================
  Start QMCFixedSampleLinearOptimize
  File Root Be.log.s005 append = no 
=========================================================
  Skip QMCDriver::putQMCInfo 
  Resetting Properties of the walkers 1 x 13

=========================================================
  Start VMC
  File Root Be.log.s005 append = no 
=========================================================
Using existing walkers 
  Resetting Properties of the walkers 1 x 13

<vmc function="put">
  qmc_counter=4  my_counter=4
  time step      = 1.5000e-01
  blocks         = 300
  steps          = 2
  substeps       = 5
  current        = 0
  target samples = 5.1200e+05
  walkers/mpi    = 1

  stepsbetweensamples = 1
<parameter name="blocks" condition="int">300</parameter>
<parameter name="blocks_between_recompute" condition="int">0</parameter>
<parameter name="check_properties" condition="int">100</parameter>
<parameter name="checkproperties" condition="int">100</parameter>
<parameter name="current" condition="int">0</parameter>
<parameter name="dmcwalkersperthread" condition="real">5.0000e+02</parameter>
<parameter name="maxcpusecs" condition="real">3.6000e+05</parameter>
<parameter name="record_configs" condition="int">0</parameter>
<parameter name="record_walkers" condition="int">1</parameter>
<parameter name="recordconfigs" condition="int">0</parameter>
<parameter name="recordwalkers" condition="int">1</parameter>
<parameter name="rewind" condition="int">0</parameter>
<parameter name="samples" condition="real">5.1200e+05</parameter>
<parameter name="samplesperthread" condition="real">5.0000e+02</parameter>
<parameter name="steps" condition="int">2</parameter>
<parameter name="stepsbetweensamples" condition="int">1</parameter>
<parameter name="store_configs" condition="int">0</parameter>
<parameter name="storeconfigs" condition="int">0</parameter>
<parameter name="sub_steps" condition="int">5</parameter>
<parameter name="substeps" condition="int">5</parameter>
<parameter name="tau" condition="au">1.5000e-01</parameter>
<parameter name="time_step" condition="au">1.5000e-01</parameter>
<parameter name="timestep" condition="au">1.5000e-01</parameter>
<parameter name="use_drift" condition="string">no</parameter>
<parameter name="usedrift" condition="string">no</parameter>
<parameter name="walkers" condition="int">1</parameter>
<parameter name="warmup_steps" condition="int">0</parameter>
<parameter name="warmupsteps" condition="int">0</parameter>
  DumpConfig==false Nothing (configurations, state) will be saved.
  Walker Samples are dumped every 1 steps.
</vmc>
  Set drift_modifier UNR parameter a = 1.0000e+00
  EstimatorManagerBase::add replace LocalEnergy estimator.
  Set drift_modifier UNR parameter a = 1.0000e+00
  EstimatorManagerBase::add replace LocalEnergy estimator.
<optimization-report>
<vmc stage="main" blocks="300">
  Cannot make clones again. Use existing 1 clones
  Initial partition of walkers 0 1 
  Using Particle by Particle moves
  Walker moves without drift
  Total Sample Size   =512000
  Walker distribution on root = 0 1 
  Using Locality Approximation
===== Memory Usage after the buffer registration =====
Available memory on node 0, free + buffers : 52515 MB
Memory footprint by rank 0 on node 0       : 592 MB
==================================================
====================================================
  SimpleFixedNodeBranch::finalize after a VMC block
    QMC counter        = 5
    time step          = 0.15
    reference energy   = -1.00765
    reference variance = 0.0532762
====================================================
  Execution time = 1.7022e+00
</vmc>
<opt stage="setup">
  <log>
   Reading configurations from h5FileRoot Be.log.s005
  QMCCostFunction is created with 1 threads.
  Using Nonlocal PP in Opt: NonLocalECP
   Number of samples loaded to each thread : 500 
  VMC Eavg = -1.0246e+00
  VMC Evar = 4.9628e-02
  Total weights = 5.1200e+05
  Execution time = 2.8394e-01
  </log>
</opt>
<opt stage="main" walkers="512000">
  <log>

*****************************************
Building overlap and Hamiltonian matrices
*****************************************

Among totally 72 optimized parameters, largest LM parameter change : 1.8096e-02 at parameter 4

******************************************************************************
Init Cost =  -9.7085e-01    New Cost =  -9.7098e-01  Delta Cost =  -1.3242e-04
******************************************************************************

The new set of parameters is valid. Updating the trial wave function!

*****************************************************************************
Applying the update for shift_i =   1.0000e-02     and shift_s =   3.9062e-03
*****************************************************************************
  Execution time = 2.3923e+00
  </log>
  <optVariables href="Be.log.s005.opt.xml">
   ud_0                 1.420853e+00 1 1  ON 0
   ud_1                 9.892258e-01 1 1  ON 1
   ud_2                 7.015012e-01 1 1  ON 2
   ud_3                 4.447523e-01 1 1  ON 3
   ud_4                 2.473742e-01 1 1  ON 4
   ud_5                 5.620979e-02 1 1  ON 5
   ud_6                -1.325503e-01 1 1  ON 6
   ud_7                -2.598350e-01 1 1  ON 7
   ud_8                -3.186755e-01 1 1  ON 8
   ud_9                -3.619477e-01 1 1  ON 9
  eBe_0                -1.207319e+00 1 1  ON 10
  eBe_1                -3.357267e-01 1 1  ON 11
  eBe_2                -3.343293e-01 1 1  ON 12
  eBe_3                -1.586600e-01 1 1  ON 13
  eBe_4                 7.437345e-03 1 1  ON 14
  eBe_5                 8.973631e-02 1 1  ON 15
  eBe_6                 2.628907e-01 1 1  ON 16
  eBe_7                 4.065651e-01 1 1  ON 17
  eBe_8                 4.705594e-01 1 1  ON 18
  eBe_9                 4.210277e-01 1 1  ON 19
 uuBe_0                 0.000000e+00 1 1  ON 20
 uuBe_1                 0.000000e+00 1 1  ON 21
 uuBe_2                 0.000000e+00 1 1  ON 22
 uuBe_3                 0.000000e+00 1 1  ON 23
 uuBe_4                 0.000000e+00 1 1  ON 24
 uuBe_5                 0.000000e+00 1 1  ON 25
 uuBe_6                 0.000000e+00 1 1  ON 26
 uuBe_7                 0.000000e+00 1 1  ON 27
 uuBe_8                 0.000000e+00 1 1  ON 28
 uuBe_9                 0.000000e+00 1 1  ON 29
uuBe_10                 0.000000e+00 1 1  ON 30
uuBe_11                 0.000000e+00 1 1  ON 31
uuBe_12                 0.000000e+00 1 1  ON 32
uuBe_13                 0.000000e+00 1 1  ON 33
uuBe_14                 0.000000e+00 1 1  ON 34
uuBe_15                 0.000000e+00 1 1  ON 35
uuBe_16                 0.000000e+00 1 1  ON 36
uuBe_17                 0.000000e+00 1 1  ON 37
uuBe_18                 0.000000e+00 1 1  ON 38
uuBe_19                 0.000000e+00 1 1  ON 39
uuBe_20                 0.000000e+00 1 1  ON 40
uuBe_21                 0.000000e+00 1 1  ON 41
uuBe_22                 0.000000e+00 1 1  ON 42
uuBe_23                 0.000000e+00 1 1  ON 43
uuBe_24                 0.000000e+00 1 1  ON 44
uuBe_25                 0.000000e+00 1 1  ON 45
 udBe_0                -3.897016e-05 1 1  ON 46
 udBe_1                 1.731500e-05 1 1  ON 47
 udBe_2                -1.790666e-04 1 1  ON 48
 udBe_3                 1.713122e-04 1 1  ON 49
 udBe_4                 6.368106e-05 1 1  ON 50
 udBe_5                -1.025282e-05 1 1  ON 51
 udBe_6                 2.911214e-06 1 1  ON 52
 udBe_7                 5.114248e-06 1 1  ON 53
 udBe_8                -3.431558e-04 1 1  ON 54
 udBe_9                 4.638732e-05 1 1  ON 55
udBe_10                 6.781255e-05 1 1  ON 56
udBe_11                 1.842758e-04 1 1  ON 57
udBe_12                 9.660890e-05 1 1  ON 58
udBe_13                -2.850888e-04 1 1  ON 59
udBe_14                -9.005042e-05 1 1  ON 60
udBe_15                -9.020946e-07 1 1  ON 61
udBe_16                 8.129767e-05 1 1  ON 62
udBe_17                -2.861724e-04 1 1  ON 63
udBe_18                -2.867926e-05 1 1  ON 64
udBe_19                -3.533512e-05 1 1  ON 65
udBe_20                 8.836064e-05 1 1  ON 66
udBe_21                 1.498681e-05 1 1  ON 67
udBe_22                 1.873839e-06 1 1  ON 68
udBe_23                -2.096139e-05 1 1  ON 69
udBe_24                -7.066123e-07 1 1  ON 70
udBe_25                -2.565750e-07 1 1  ON 71
  </optVariables>
   Restore the number of walkers to 1, removing 0 walkers.
</opt>
</optimization-report>
  QMC Execution time = 2.403 secs
  Reusing QMCFixedSampleLinearOptimize
 Using QMCCostFunction::QMCCostFunction

=========================================================
  Start QMCFixedSampleLinearOptimize
  File Root Be.log.s006 append = no 
=========================================================
  Skip QMCDriver::putQMCInfo 
  Resetting Properties of the walkers 1 x 13

=========================================================
  Start VMC
  File Root Be.log.s006 append = no 
=========================================================
Using existing walkers 
  Resetting Properties of the walkers 1 x 13

<vmc function="put">
  qmc_counter=5  my_counter=5
  time step      = 1.5000e-01
  blocks         = 300
  steps          = 2
  substeps       = 5
  current        = 0
  target samples = 5.1200e+05
  walkers/mpi    = 1

  stepsbetweensamples = 1
<parameter name="blocks" condition="int">300</parameter>
<parameter name="blocks_between_recompute" condition="int">0</parameter>
<parameter name="check_properties" condition="int">100</parameter>
<parameter name="checkproperties" condition="int">100</parameter>
<parameter name="current" condition="int">0</parameter>
<parameter name="dmcwalkersperthread" condition="real">5.0000e+02</parameter>
<parameter name="maxcpusecs" condition="real">3.6000e+05</parameter>
<parameter name="record_configs" condition="int">0</parameter>
<parameter name="record_walkers" condition="int">1</parameter>
<parameter name="recordconfigs" condition="int">0</parameter>
<parameter name="recordwalkers" condition="int">1</parameter>
<parameter name="rewind" condition="int">0</parameter>
<parameter name="samples" condition="real">5.1200e+05</parameter>
<parameter name="samplesperthread" condition="real">5.0000e+02</parameter>
<parameter name="steps" condition="int">2</parameter>
<parameter name="stepsbetweensamples" condition="int">1</parameter>
<parameter name="store_configs" condition="int">0</parameter>
<parameter name="storeconfigs" condition="int">0</parameter>
<parameter name="sub_steps" condition="int">5</parameter>
<parameter name="substeps" condition="int">5</parameter>
<parameter name="tau" condition="au">1.5000e-01</parameter>
<parameter name="time_step" condition="au">1.5000e-01</parameter>
<parameter name="timestep" condition="au">1.5000e-01</parameter>
<parameter name="use_drift" condition="string">no</parameter>
<parameter name="usedrift" condition="string">no</parameter>
<parameter name="walkers" condition="int">1</parameter>
<parameter name="warmup_steps" condition="int">0</parameter>
<parameter name="warmupsteps" condition="int">0</parameter>
  DumpConfig==false Nothing (configurations, state) will be saved.
  Walker Samples are dumped every 1 steps.
</vmc>
  Set drift_modifier UNR parameter a = 1.0000e+00
  EstimatorManagerBase::add replace LocalEnergy estimator.
  Set drift_modifier UNR parameter a = 1.0000e+00
  EstimatorManagerBase::add replace LocalEnergy estimator.
<optimization-report>
<vmc stage="main" blocks="300">
  Cannot make clones again. Use existing 1 clones
  Initial partition of walkers 0 1 
  Using Particle by Particle moves
  Walker moves without drift
  Total Sample Size   =512000
  Walker distribution on root = 0 1 
  Using Locality Approximation
===== Memory Usage after the buffer registration =====
Available memory on node 0, free + buffers : 52512 MB
Memory footprint by rank 0 on node 0       : 594 MB
==================================================
====================================================
  SimpleFixedNodeBranch::finalize after a VMC block
    QMC counter        = 6
    time step          = 0.15
    reference energy   = -0.989988
    reference variance = 0.0880667
====================================================
  Execution time = 1.7038e+00
</vmc>
<opt stage="setup">
  <log>
   Reading configurations from h5FileRoot Be.log.s006
  QMCCostFunction is created with 1 threads.
  Using Nonlocal PP in Opt: NonLocalECP
   Number of samples loaded to each thread : 500 
  VMC Eavg = -1.0256e+00
  VMC Evar = 4.9447e-02
  Total weights = 5.1200e+05
  Execution time = 2.7910e-01
  </log>
</opt>
<opt stage="main" walkers="512000">
  <log>

*****************************************
Building overlap and Hamiltonian matrices
*****************************************

Among totally 72 optimized parameters, largest LM parameter change : 1.4714e-02 at parameter 4

******************************************************************************
Init Cost =  -9.7184e-01    New Cost =  -9.7191e-01  Delta Cost =  -7.0997e-05
******************************************************************************

The new set of parameters is valid. Updating the trial wave function!

*****************************************************************************
Applying the update for shift_i =   1.0000e-02     and shift_s =   3.9062e-03
*****************************************************************************
  Execution time = 2.3578e+00
  </log>
  <optVariables href="Be.log.s006.opt.xml">
   ud_0                 1.424673e+00 1 1  ON 0
   ud_1                 9.914507e-01 1 1  ON 1
   ud_2                 7.108092e-01 1 1  ON 2
   ud_3                 4.569500e-01 1 1  ON 3
   ud_4                 2.620881e-01 1 1  ON 4
   ud_5                 6.924444e-02 1 1  ON 5
   ud_6                -1.211178e-01 1 1  ON 6
   ud_7                -2.479960e-01 1 1  ON 7
   ud_8                -3.081899e-01 1 1  ON 8
   ud_9                -3.498014e-01 1 1  ON 9
  eBe_0                -1.205797e+00 1 1  ON 10
  eBe_1                -3.364983e-01 1 1  ON 11
  eBe_2                -3.343902e-01 1 1  ON 12
  eBe_3                -1.568658e-01 1 1  ON 13
  eBe_4                 7.524523e-03 1 1  ON 14
  eBe_5                 8.299876e-02 1 1  ON 15
  eBe_6                 2.573455e-01 1 1  ON 16
  eBe_7                 3.991865e-01 1 1  ON 17
  eBe_8                 4.652039e-01 1 1  ON 18
  eBe_9                 4.257234e-01 1 1  ON 19
 uuBe_0                 0.000000e+00 1 1  ON 20
 uuBe_1                 0.000000e+00 1 1  ON 21
 uuBe_2                 0.000000e+00 1 1  ON 22
 uuBe_3                 0.000000e+00 1 1  ON 23
 uuBe_4                 0.000000e+00 1 1  ON 24
 uuBe_5                 0.000000e+00 1 1  ON 25
 uuBe_6                 0.000000e+00 1 1  ON 26
 uuBe_7                 0.000000e+00 1 1  ON 27
 uuBe_8                 0.000000e+00 1 1  ON 28
 uuBe_9                 0.000000e+00 1 1  ON 29
uuBe_10                 0.000000e+00 1 1  ON 30
uuBe_11                 0.000000e+00 1 1  ON 31
uuBe_12                 0.000000e+00 1 1  ON 32
uuBe_13                 0.000000e+00 1 1  ON 33
uuBe_14                 0.000000e+00 1 1  ON 34
uuBe_15                 0.000000e+00 1 1  ON 35
uuBe_16                 0.000000e+00 1 1  ON 36
uuBe_17                 0.000000e+00 1 1  ON 37
uuBe_18                 0.000000e+00 1 1  ON 38
uuBe_19                 0.000000e+00 1 1  ON 39
uuBe_20                 0.000000e+00 1 1  ON 40
uuBe_21                 0.000000e+00 1 1  ON 41
uuBe_22                 0.000000e+00 1 1  ON 42
uuBe_23                 0.000000e+00 1 1  ON 43
uuBe_24                 0.000000e+00 1 1  ON 44
uuBe_25                 0.000000e+00 1 1  ON 45
 udBe_0                -6.026060e-05 1 1  ON 46
 udBe_1                 3.045415e-05 1 1  ON 47
 udBe_2                -1.633523e-04 1 1  ON 48
 udBe_3                 1.980203e-04 1 1  ON 49
 udBe_4                 6.593198e-05 1 1  ON 50
 udBe_5                -1.151518e-05 1 1  ON 51
 udBe_6                 5.920548e-05 1 1  ON 52
 udBe_7                -2.890319e-06 1 1  ON 53
 udBe_8                -3.571735e-04 1 1  ON 54
 udBe_9                 2.631665e-05 1 1  ON 55
udBe_10                 8.141752e-05 1 1  ON 56
udBe_11                 1.866418e-04 1 1  ON 57
udBe_12                 1.013943e-04 1 1  ON 58
udBe_13                -3.196470e-04 1 1  ON 59
udBe_14                -9.688170e-05 1 1  ON 60
udBe_15                -7.183041e-07 1 1  ON 61
udBe_16                 1.100535e-04 1 1  ON 62
udBe_17                -3.263283e-04 1 1  ON 63
udBe_18                -2.567637e-05 1 1  ON 64
udBe_19                -3.674484e-05 1 1  ON 65
udBe_20                 9.914951e-05 1 1  ON 66
udBe_21                 1.622558e-05 1 1  ON 67
udBe_22                 1.767658e-06 1 1  ON 68
udBe_23                -2.447231e-05 1 1  ON 69
udBe_24                -8.413456e-07 1 1  ON 70
udBe_25                -2.218698e-07 1 1  ON 71
  </optVariables>
   Restore the number of walkers to 1, removing 0 walkers.
</opt>
</optimization-report>
  QMC Execution time = 2.369 secs
  Reusing QMCFixedSampleLinearOptimize
 Using QMCCostFunction::QMCCostFunction

=========================================================
  Start QMCFixedSampleLinearOptimize
  File Root Be.log.s007 append = no 
=========================================================
  Skip QMCDriver::putQMCInfo 
  Resetting Properties of the walkers 1 x 13

=========================================================
  Start VMC
  File Root Be.log.s007 append = no 
=========================================================
Using existing walkers 
  Resetting Properties of the walkers 1 x 13

<vmc function="put">
  qmc_counter=6  my_counter=6
  time step      = 1.5000e-01
  blocks         = 300
  steps          = 2
  substeps       = 5
  current        = 0
  target samples = 5.1200e+05
  walkers/mpi    = 1

  stepsbetweensamples = 1
<parameter name="blocks" condition="int">300</parameter>
<parameter name="blocks_between_recompute" condition="int">0</parameter>
<parameter name="check_properties" condition="int">100</parameter>
<parameter name="checkproperties" condition="int">100</parameter>
<parameter name="current" condition="int">0</parameter>
<parameter name="dmcwalkersperthread" condition="real">5.0000e+02</parameter>
<parameter name="maxcpusecs" condition="real">3.6000e+05</parameter>
<parameter name="record_configs" condition="int">0</parameter>
<parameter name="record_walkers" condition="int">1</parameter>
<parameter name="recordconfigs" condition="int">0</parameter>
<parameter name="recordwalkers" condition="int">1</parameter>
<parameter name="rewind" condition="int">0</parameter>
<parameter name="samples" condition="real">5.1200e+05</parameter>
<parameter name="samplesperthread" condition="real">5.0000e+02</parameter>
<parameter name="steps" condition="int">2</parameter>
<parameter name="stepsbetweensamples" condition="int">1</parameter>
<parameter name="store_configs" condition="int">0</parameter>
<parameter name="storeconfigs" condition="int">0</parameter>
<parameter name="sub_steps" condition="int">5</parameter>
<parameter name="substeps" condition="int">5</parameter>
<parameter name="tau" condition="au">1.5000e-01</parameter>
<parameter name="time_step" condition="au">1.5000e-01</parameter>
<parameter name="timestep" condition="au">1.5000e-01</parameter>
<parameter name="use_drift" condition="string">no</parameter>
<parameter name="usedrift" condition="string">no</parameter>
<parameter name="walkers" condition="int">1</parameter>
<parameter name="warmup_steps" condition="int">0</parameter>
<parameter name="warmupsteps" condition="int">0</parameter>
  DumpConfig==false Nothing (configurations, state) will be saved.
  Walker Samples are dumped every 1 steps.
</vmc>
  Set drift_modifier UNR parameter a = 1.0000e+00
  EstimatorManagerBase::add replace LocalEnergy estimator.
  Set drift_modifier UNR parameter a = 1.0000e+00
  EstimatorManagerBase::add replace LocalEnergy estimator.
<optimization-report>
<vmc stage="main" blocks="300">
  Cannot make clones again. Use existing 1 clones
  Initial partition of walkers 0 1 
  Using Particle by Particle moves
  Walker moves without drift
  Total Sample Size   =512000
  Walker distribution on root = 0 1 
  Using Locality Approximation
===== Memory Usage after the buffer registration =====
Available memory on node 0, free + buffers : 52508 MB
Memory footprint by rank 0 on node 0       : 597 MB
==================================================
====================================================
  SimpleFixedNodeBranch::finalize after a VMC block
    QMC counter        = 7
    time step          = 0.15
    reference energy   = -0.990667
    reference variance = 0.0816001
====================================================
  Execution time = 1.6864e+00
</vmc>
<opt stage="setup">
  <log>
   Reading configurations from h5FileRoot Be.log.s007
  QMCCostFunction is created with 1 threads.
  Using Nonlocal PP in Opt: NonLocalECP
   Number of samples loaded to each thread : 500 
  VMC Eavg = -1.0245e+00
  VMC Evar = 5.2073e-02
  Total weights = 5.1200e+05
  Execution time = 2.9195e-01
  </log>
</opt>
<opt stage="main" walkers="512000">
  <log>

*****************************************
Building overlap and Hamiltonian matrices
*****************************************

Among totally 72 optimized parameters, largest LM parameter change : 1.3092e-02 at parameter 3

******************************************************************************
Init Cost =  -9.7067e-01    New Cost =  -9.7074e-01  Delta Cost =  -7.8840e-05
******************************************************************************

The new set of parameters is valid. Updating the trial wave function!

*****************************************************************************
Applying the update for shift_i =   1.0000e-02     and shift_s =   3.9062e-03
*****************************************************************************
  Execution time = 2.3770e+00
  </log>
  <optVariables href="Be.log.s007.opt.xml">
   ud_0                 1.427623e+00 1 1  ON 0
   ud_1                 9.968575e-01 1 1  ON 1
   ud_2                 7.214412e-01 1 1  ON 2
   ud_3                 4.700418e-01 1 1  ON 3
   ud_4                 2.750628e-01 1 1  ON 4
   ud_5                 8.211603e-02 1 1  ON 5
   ud_6                -1.101063e-01 1 1  ON 6
   ud_7                -2.382067e-01 1 1  ON 7
   ud_8                -3.000260e-01 1 1  ON 8
   ud_9                -3.434516e-01 1 1  ON 9
  eBe_0                -1.209380e+00 1 1  ON 10
  eBe_1                -3.346432e-01 1 1  ON 11
  eBe_2                -3.323213e-01 1 1  ON 12
  eBe_3                -1.569983e-01 1 1  ON 13
  eBe_4                 9.649034e-03 1 1  ON 14
  eBe_5                 8.354437e-02 1 1  ON 15
  eBe_6                 2.549274e-01 1 1  ON 16
  eBe_7                 3.930860e-01 1 1  ON 17
  eBe_8                 4.603725e-01 1 1  ON 18
  eBe_9                 4.263294e-01 1 1  ON 19
 uuBe_0                 0.000000e+00 1 1  ON 20
 uuBe_1                 0.000000e+00 1 1  ON 21
 uuBe_2                 0.000000e+00 1 1  ON 22
 uuBe_3                 0.000000e+00 1 1  ON 23
 uuBe_4                 0.000000e+00 1 1  ON 24
 uuBe_5                 0.000000e+00 1 1  ON 25
 uuBe_6                 0.000000e+00 1 1  ON 26
 uuBe_7                 0.000000e+00 1 1  ON 27
 uuBe_8                 0.000000e+00 1 1  ON 28
 uuBe_9                 0.000000e+00 1 1  ON 29
uuBe_10                 0.000000e+00 1 1  ON 30
uuBe_11                 0.000000e+00 1 1  ON 31
uuBe_12                 0.000000e+00 1 1  ON 32
uuBe_13                 0.000000e+00 1 1  ON 33
uuBe_14                 0.000000e+00 1 1  ON 34
uuBe_15                 0.000000e+00 1 1  ON 35
uuBe_16                 0.000000e+00 1 1  ON 36
uuBe_17                 0.000000e+00 1 1  ON 37
uuBe_18                 0.000000e+00 1 1  ON 38
uuBe_19                 0.000000e+00 1 1  ON 39
uuBe_20                 0.000000e+00 1 1  ON 40
uuBe_21                 0.000000e+00 1 1  ON 41
uuBe_22                 0.000000e+00 1 1  ON 42
uuBe_23                 0.000000e+00 1 1  ON 43
uuBe_24                 0.000000e+00 1 1  ON 44
uuBe_25                 0.000000e+00 1 1  ON 45
 udBe_0                -6.627926e-05 1 1  ON 46
 udBe_1                -3.831072e-06 1 1  ON 47
 udBe_2                -1.698835e-04 1 1  ON 48
 udBe_3                 2.255443e-04 1 1  ON 49
 udBe_4                 7.276237e-05 1 1  ON 50
 udBe_5                -6.929809e-06 1 1  ON 51
 udBe_6                 1.700277e-05 1 1  ON 52
 udBe_7                 3.250825e-05 1 1  ON 53
 udBe_8                -3.725948e-04 1 1  ON 54
 udBe_9                 4.737839e-05 1 1  ON 55
udBe_10                 1.013282e-04 1 1  ON 56
udBe_11                 1.715372e-04 1 1  ON 57
udBe_12                 1.084947e-04 1 1  ON 58
udBe_13                -3.503714e-04 1 1  ON 59
udBe_14                -1.009343e-04 1 1  ON 60
udBe_15                -9.763580e-07 1 1  ON 61
udBe_16                 1.105802e-04 1 1  ON 62
udBe_17                -3.604869e-04 1 1  ON 63
udBe_18                -8.531419e-06 1 1  ON 64
udBe_19                -4.101941e-05 1 1  ON 65
udBe_20                 1.072869e-04 1 1  ON 66
udBe_21                 1.477618e-05 1 1  ON 67
udBe_22                 2.240915e-06 1 1  ON 68
udBe_23                -2.583230e-05 1 1  ON 69
udBe_24                -4.961001e-07 1 1  ON 70
udBe_25                -3.034314e-07 1 1  ON 71
  </optVariables>
   Restore the number of walkers to 1, removing 0 walkers.
</opt>
</optimization-report>
  QMC Execution time = 2.388 secs
  Reusing QMCFixedSampleLinearOptimize
 Using QMCCostFunction::QMCCostFunction

=========================================================
  Start QMCFixedSampleLinearOptimize
  File Root Be.log.s008 append = no 
=========================================================
  Skip QMCDriver::putQMCInfo 
  Resetting Properties of the walkers 1 x 13

=========================================================
  Start VMC
  File Root Be.log.s008 append = no 
=========================================================
Using existing walkers 
  Resetting Properties of the walkers 1 x 13

<vmc function="put">
  qmc_counter=7  my_counter=7
  time step      = 1.5000e-01
  blocks         = 300
  steps          = 2
  substeps       = 5
  current        = 0
  target samples = 5.1200e+05
  walkers/mpi    = 1

  stepsbetweensamples = 1
<parameter name="blocks" condition="int">300</parameter>
<parameter name="blocks_between_recompute" condition="int">0</parameter>
<parameter name="check_properties" condition="int">100</parameter>
<parameter name="checkproperties" condition="int">100</parameter>
<parameter name="current" condition="int">0</parameter>
<parameter name="dmcwalkersperthread" condition="real">5.0000e+02</parameter>
<parameter name="maxcpusecs" condition="real">3.6000e+05</parameter>
<parameter name="record_configs" condition="int">0</parameter>
<parameter name="record_walkers" condition="int">1</parameter>
<parameter name="recordconfigs" condition="int">0</parameter>
<parameter name="recordwalkers" condition="int">1</parameter>
<parameter name="rewind" condition="int">0</parameter>
<parameter name="samples" condition="real">5.1200e+05</parameter>
<parameter name="samplesperthread" condition="real">5.0000e+02</parameter>
<parameter name="steps" condition="int">2</parameter>
<parameter name="stepsbetweensamples" condition="int">1</parameter>
<parameter name="store_configs" condition="int">0</parameter>
<parameter name="storeconfigs" condition="int">0</parameter>
<parameter name="sub_steps" condition="int">5</parameter>
<parameter name="substeps" condition="int">5</parameter>
<parameter name="tau" condition="au">1.5000e-01</parameter>
<parameter name="time_step" condition="au">1.5000e-01</parameter>
<parameter name="timestep" condition="au">1.5000e-01</parameter>
<parameter name="use_drift" condition="string">no</parameter>
<parameter name="usedrift" condition="string">no</parameter>
<parameter name="walkers" condition="int">1</parameter>
<parameter name="warmup_steps" condition="int">0</parameter>
<parameter name="warmupsteps" condition="int">0</parameter>
  DumpConfig==false Nothing (configurations, state) will be saved.
  Walker Samples are dumped every 1 steps.
</vmc>
  Set drift_modifier UNR parameter a = 1.0000e+00
  EstimatorManagerBase::add replace LocalEnergy estimator.
  Set drift_modifier UNR parameter a = 1.0000e+00
  EstimatorManagerBase::add replace LocalEnergy estimator.
<optimization-report>
<vmc stage="main" blocks="300">
  Cannot make clones again. Use existing 1 clones
  Initial partition of walkers 0 1 
  Using Particle by Particle moves
  Walker moves without drift
  Total Sample Size   =512000
  Walker distribution on root = 0 1 
  Using Locality Approximation
===== Memory Usage after the buffer registration =====
Available memory on node 0, free + buffers : 52505 MB
[...]

The new set of parameters is valid. Updating the trial wave function!

*****************************************************************************
Applying the update for shift_i =   1.0000e-02     and shift_s =   3.9062e-03
*****************************************************************************
  Execution time = 2.4210e+00
  </log>
  <optVariables href="Be.log.s020.opt.xml">
   ud_0                 1.496026e+00 1 1  ON 0
   ud_1                 1.082028e+00 1 1  ON 1
   ud_2                 8.254192e-01 1 1  ON 2
   ud_3                 5.862817e-01 1 1  ON 3
   ud_4                 3.989729e-01 1 1  ON 4
   ud_5                 2.075749e-01 1 1  ON 5
   ud_6                 1.355540e-02 1 1  ON 6
   ud_7                -1.157096e-01 1 1  ON 7
   ud_8                -1.859724e-01 1 1  ON 8
   ud_9                -2.340663e-01 1 1  ON 9
  eBe_0                -1.238034e+00 1 1  ON 10
  eBe_1                -3.582708e-01 1 1  ON 11
  eBe_2                -3.533750e-01 1 1  ON 12
  eBe_3                -1.714214e-01 1 1  ON 13
  eBe_4                -7.844419e-03 1 1  ON 14
  eBe_5                 4.740330e-02 1 1  ON 15
  eBe_6                 2.213497e-01 1 1  ON 16
  eBe_7                 3.584142e-01 1 1  ON 17
  eBe_8                 4.205421e-01 1 1  ON 18
  eBe_9                 4.386679e-01 1 1  ON 19
 uuBe_0                 0.000000e+00 1 1  ON 20
 uuBe_1                 0.000000e+00 1 1  ON 21
 uuBe_2                 0.000000e+00 1 1  ON 22
 uuBe_3                 0.000000e+00 1 1  ON 23
 uuBe_4                 0.000000e+00 1 1  ON 24
 uuBe_5                 0.000000e+00 1 1  ON 25
 uuBe_6                 0.000000e+00 1 1  ON 26
 uuBe_7                 0.000000e+00 1 1  ON 27
 uuBe_8                 0.000000e+00 1 1  ON 28
 uuBe_9                 0.000000e+00 1 1  ON 29
uuBe_10                 0.000000e+00 1 1  ON 30
uuBe_11                 0.000000e+00 1 1  ON 31
uuBe_12                 0.000000e+00 1 1  ON 32
uuBe_13                 0.000000e+00 1 1  ON 33
uuBe_14                 0.000000e+00 1 1  ON 34
uuBe_15                 0.000000e+00 1 1  ON 35
uuBe_16                 0.000000e+00 1 1  ON 36
uuBe_17                 0.000000e+00 1 1  ON 37
uuBe_18                 0.000000e+00 1 1  ON 38
uuBe_19                 0.000000e+00 1 1  ON 39
uuBe_20                 0.000000e+00 1 1  ON 40
uuBe_21                 0.000000e+00 1 1  ON 41
uuBe_22                 0.000000e+00 1 1  ON 42
uuBe_23                 0.000000e+00 1 1  ON 43
uuBe_24                 0.000000e+00 1 1  ON 44
uuBe_25                 0.000000e+00 1 1  ON 45
 udBe_0                -7.097996e-05 1 1  ON 46
 udBe_1                 2.124463e-05 1 1  ON 47
 udBe_2                -1.645666e-04 1 1  ON 48
 udBe_3                 2.097855e-04 1 1  ON 49
 udBe_4                 6.642933e-05 1 1  ON 50
 udBe_5                -6.556161e-06 1 1  ON 51
 udBe_6                 3.754829e-05 1 1  ON 52
 udBe_7                 5.236086e-05 1 1  ON 53
 udBe_8                -3.595162e-04 1 1  ON 54
 udBe_9                 3.332695e-05 1 1  ON 55
udBe_10                 8.507949e-05 1 1  ON 56
udBe_11                 1.697724e-04 1 1  ON 57
udBe_12                 1.036680e-04 1 1  ON 58
udBe_13                -3.383524e-04 1 1  ON 59
udBe_14                -9.638850e-05 1 1  ON 60
udBe_15                -9.834956e-07 1 1  ON 61
udBe_16                 1.184624e-04 1 1  ON 62
udBe_17                -3.411012e-04 1 1  ON 63
udBe_18                -1.525503e-05 1 1  ON 64
udBe_19                -3.847978e-05 1 1  ON 65
udBe_20                 1.032229e-04 1 1  ON 66
udBe_21                 1.484675e-05 1 1  ON 67
udBe_22                 2.062343e-06 1 1  ON 68
udBe_23                -2.490138e-05 1 1  ON 69
udBe_24                -5.932121e-07 1 1  ON 70
udBe_25                -2.820737e-07 1 1  ON 71
  </optVariables>
   Restore the number of walkers to 1, removing 0 walkers.
</opt>
</optimization-report>
  QMC Execution time = 2.432 secs

=========================================================
  Start VMC
  File Root Be.log.s021 append = no 
=========================================================
  Using the current 1 walkers.
  Total number of walkers: 1024
  Total weight: 1024
  Resetting Properties of the walkers 1 x 13

<vmc function="put">
  qmc_counter=0  my_counter=0
  time step      = 0.15
  blocks         = 200
  steps          = 1
  substeps       = 30
  current        = 0
  target samples = 4096
  walkers/mpi    = 1

  stepsbetweensamples = 50
<parameter name="blocks" condition="int">200</parameter>
<parameter name="blocks_between_recompute" condition="int">0</parameter>
<parameter name="check_properties" condition="int">100</parameter>
<parameter name="checkproperties" condition="int">100</parameter>
<parameter name="current" condition="int">0</parameter>
<parameter name="dmcwalkersperthread" condition="real">4</parameter>
<parameter name="maxcpusecs" condition="real">3.6e+05</parameter>
<parameter name="record_configs" condition="int">0</parameter>
<parameter name="record_walkers" condition="int">50</parameter>
<parameter name="recordconfigs" condition="int">0</parameter>
<parameter name="recordwalkers" condition="int">50</parameter>
<parameter name="rewind" condition="int">0</parameter>
<parameter name="samples" condition="real">4096</parameter>
<parameter name="samplesperthread" condition="real">4</parameter>
<parameter name="steps" condition="int">1</parameter>
<parameter name="stepsbetweensamples" condition="int">50</parameter>
<parameter name="store_configs" condition="int">0</parameter>
<parameter name="storeconfigs" condition="int">0</parameter>
<parameter name="sub_steps" condition="int">30</parameter>
<parameter name="substeps" condition="int">30</parameter>
<parameter name="tau" condition="au">0.15</parameter>
<parameter name="time_step" condition="au">0.15</parameter>
<parameter name="timestep" condition="au">0.15</parameter>
<parameter name="use_drift" condition="string">no</parameter>
<parameter name="usedrift" condition="string">no</parameter>
<parameter name="walkers" condition="int">1</parameter>
<parameter name="warmup_steps" condition="int">100</parameter>
<parameter name="warmupsteps" condition="int">100</parameter>
  DumpConfig==false Nothing (configurations, state) will be saved.
  Walker Samples are dumped every 50 steps.
</vmc>
  Set drift_modifier UNR parameter a = 1
  EstimatorManagerBase::add replace LocalEnergy estimator.
  Cannot make clones again. Use existing 1 clones
  Initial partition of walkers 0 1 

  Using Particle by Particle moves
  Walker moves without drift
  Total Sample Size   =4096
  Walker distribution on root = 0 1 
  Using Locality Approximation
===== Memory Usage after the buffer registration =====
Available memory on node 0, free + buffers : 52463 MB
Memory footprint by rank 0 on node 0       : 628 MB
==================================================
  Anonymous Buffer size per walker : 1024 Bytes.
MEMORY increase 0 MB VMC::resetRun
====================================================
  SimpleFixedNodeBranch::finalize after a VMC block
    QMC counter        = 21
    time step          = 0.15
    reference energy   = -0.985797
    reference variance = 0.105544
====================================================
  QMC Execution time = 1.262 secs

=========================================================
  Start DMC
  File Root Be.log.s022 append = no 
=========================================================
Using existing walkers 
  Resetting Properties of the walkers 1 x 13
  Set drift_modifier UNR parameter a = 1
  EstimatorManagerBase::add replace LocalEnergy estimator.
  Cannot make clones again. Use existing 1 clones
  Total number of walkers: 4096
  Total weight: 4096
  Creating WalkerController: target  number of walkers = 4096
  Using WalkerControlMPI for dynamic population control.
  START ALL OVER 
  WalkerControlBase parameters 
    maxCopy = 2
    Max Walkers per MPI rank 9
    Min Walkers per MPI rank 1
    Using non-blocking send/recv
  QMC counter      = 22
  time step        = 0.02
  effective time step = 0.02
  trial energy     = -0.9858
  reference energy = -0.9858
  Feedback = 1
  reference variance = 0.1055
  target walkers = 4096
  branching cutoff scheme classic
  branch cutoff = 50 75
  Max and minimum walkers per node= 9 1
  QMC Status (BranchMode) = 0000001101
  Initial partition of walkers on a node: 0 4 
  Updates by particle-by-particle moves
  DMC moves are rejected when a node crossing is detected
  Using Non-local T-moves v0, M. Casula, PRB 74, 161102(R) (2006)
===== Memory Usage after the buffer registration =====
Available memory on node 0, free + buffers : 52460 MB
Memory footprint by rank 0 on node 0       : 628 MB
==================================================
SimpleFixedNodeBranch::checkParameters 
  Average Energy of a population  = -0.984366
  Energy Variance = 0.100442

  Fluctuating population
  Persistent walkers are killed after 1 MC sweeps
  BranchInterval = 1
  Steps per block = 50
  Number of blocks = 70

  DMC Engine Initialization = 0.03546 secs

 Warmup is completed after 100

  TauEff     = 0.01998
 TauEff/Tau = 0.9989
  Etrial     = -0.9441
 Running average of energy = -1.004
                  Variance = 0.07015
branch cutoff = 10 15
====================================================
  SimpleFixedNodeBranch::finalize after a DMC block
    QMC counter                   = 22
    time step                     = 0.02
    effective time step           = 0.0199775
    trial energy                  = -1.01502
    reference energy              = -1.00821
    reference variance            = 0.0701474
    target walkers                = 4096
    branch cutoff                 = 10 15
    Max and minimum walkers per node= 9 1
    Feedback                      = 1
    QMC Status (BranchMode)       = 0000001111
====================================================
  QMC Execution time = 22 secs
  Reusing DMC
BRANCH resetRun
 SimpleFixedNodeBranch::resetRun detected changes in <parameter>'s 
 BranchMode : 0000001111 0000001111
  WalkerControlBase parameters 
    maxCopy = 2
    Max Walkers per MPI rank 9
    Min Walkers per MPI rank 1
    Using non-blocking send/recv
 iParam (old):                  0                 1                22              4096                 9                 1                 1                 0
 iParam (new):                100                 1                22              4096                 9                 1                 1                 0
 vParam (old):               0.02     0.01997753504      -1.015023769       -1.00821109      -1.007716006                15                10               0.2     0.07014739816      -3428.925424              3401                 1                10                 1                 1                 1                 1
 vParam (new):               0.01     0.01997753504      -1.015023769       -1.00821109      -1.007716006                15                10               0.2     0.07014739816      -3428.925424              3401                 1                10                 1                 1                 1                 1

 Using branching cutoff scheme classic
SimpleFixedNodeBranch::checkParameters 
  Average Energy of a population  = -1.00703
  Energy Variance = 0.0670506

  Using Non-local T-moves v0, M. Casula, PRB 74, 161102(R) (2006)
===== Memory Usage after the buffer registration =====
Available memory on node 0, free + buffers : 52456 MB
Memory footprint by rank 0 on node 0       : 630 MB
==================================================

=========================================================
  Start DMC
  File Root Be.log.s023 append = no 
=========================================================
Using existing walkers 
  Resetting Properties of the walkers 1 x 13
  Set drift_modifier UNR parameter a = 1
  EstimatorManagerBase::add replace LocalEnergy estimator.
  Cannot make clones again. Use existing 1 clones
SimpleFixedNodeBranch::checkParameters 
  Average Energy of a population  = -1.00704
  Energy Variance = 0.0670495

  Fluctuating population
  Persistent walkers are killed after 1 MC sweeps
  BranchInterval = 1
  Steps per block = 100
  Number of blocks = 90

  DMC Engine Initialization = 0.0002810955048 secs

 Warmup is completed after 100

  TauEff     = 0.009996118377
 TauEff/Tau = 0.9996118377
  Etrial     = -1.128233705
 Running average of energy = -1.007738389
                  Variance = 0.06613083673
branch cutoff = 10 15
====================================================
  SimpleFixedNodeBranch::finalize after a DMC block
    QMC counter                   = 23
    time step                     = 0.01
    effective time step           = 0.00999591
    trial energy                  = -1.00674
    reference energy              = -1.00845
    reference variance            = 0.0661308
    target walkers                = 4096
    branch cutoff                 = 10 15
    Max and minimum walkers per node= 9 1
    Feedback                      = 1
    QMC Status (BranchMode)       = 0000001111
====================================================
  QMC Execution time = 55.71 secs
  Reusing DMC
BRANCH resetRun
 SimpleFixedNodeBranch::resetRun detected changes in <parameter>'s 
 BranchMode : 0000001111 0000001111
  WalkerControlBase parameters 
    maxCopy = 2
    Max Walkers per MPI rank 9
    Min Walkers per MPI rank 1
    Using non-blocking send/recv
 iParam (old):                  0                 1                23              4096                 9                 1                 1                 0
 iParam (new):                200                 1                23              4096                 9                 1                 1                 0
 vParam (old):               0.01    0.009995908005      -1.006741282      -1.008451729      -1.005704026                15                10               0.2     0.06613083673      -8976.226088              8901                 1                10                 1                 1                 1                 1
 vParam (new):              0.005    0.009995908005      -1.006741282      -1.008451729      -1.005704026                15                10               0.2     0.06613083673      -8976.226088              8901                 1                10                 1                 1                 1                 1

 Using branching cutoff scheme classic
SimpleFixedNodeBranch::checkParameters 
  Average Energy of a population  = -1.00605
  Energy Variance = 0.0673706

  Using Non-local T-moves v0, M. Casula, PRB 74, 161102(R) (2006)
===== Memory Usage after the buffer registration =====
Available memory on node 0, free + buffers : 52452 MB
Memory footprint by rank 0 on node 0       : 632 MB
==================================================

=========================================================
  Start DMC
  File Root Be.log.s024 append = no 
=========================================================
Using existing walkers 
  Resetting Properties of the walkers 1 x 13
  Set drift_modifier UNR parameter a = 1
  EstimatorManagerBase::add replace LocalEnergy estimator.
  Cannot make clones again. Use existing 1 clones
SimpleFixedNodeBranch::checkParameters 
  Average Energy of a population  = -1.00605
  Energy Variance = 0.067365

  Fluctuating population
  Persistent walkers are killed after 1 MC sweeps
  BranchInterval = 1
  Steps per block = 200
  Number of blocks = 110

  DMC Engine Initialization = 0.0003139972687 secs

 Warmup is completed after 200

  TauEff     = 0.00499927542
 TauEff/Tau = 0.9998550839
  Etrial     = -0.9599085267
 Running average of energy = -1.00711758
                  Variance = 0.06703043677
branch cutoff = 10 15
====================================================
  SimpleFixedNodeBranch::finalize after a DMC block
    QMC counter                   = 24
    time step                     = 0.005
    effective time step           = 0.00499928
    trial energy                  = -1.00797
    reference energy              = -1.0087
    reference variance            = 0.0670304
    target walkers                = 4096
    branch cutoff                 = 10 15
    Max and minimum walkers per node= 9 1
    Feedback                      = 1
    QMC Status (BranchMode)       = 0000001111
====================================================
  QMC Execution time = 135.9 secs
  Reusing DMC
BRANCH resetRun
 SimpleFixedNodeBranch::resetRun detected changes in <parameter>'s 
 BranchMode : 0000001111 0000001111
  WalkerControlBase parameters 
    maxCopy = 2
    Max Walkers per MPI rank 9
    Min Walkers per MPI rank 1
    Using non-blocking send/recv
 iParam (old):                  0                 1                24              4096                 9                 1                 1                 0
 iParam (new):                400                 1                24              4096                 9                 1                 1                 0
 vParam (old):              0.005    0.004999282862       -1.00797165       -1.00870434      -1.010411559                15                10               0.2     0.06703043677      -21990.76503             21801                 1                10                 1                 1                 1                 1
 vParam (new):             0.0025    0.004999282862       -1.00797165       -1.00870434      -1.010411559                15                10               0.2     0.06703043677      -21990.76503             21801                 1                10                 1                 1                 1                 1

 Using branching cutoff scheme classic
SimpleFixedNodeBranch::checkParameters 
  Average Energy of a population  = -1.01061
  Energy Variance = 0.0591616

  Using Non-local T-moves v0, M. Casula, PRB 74, 161102(R) (2006)
===== Memory Usage after the buffer registration =====
Available memory on node 0, free + buffers : 52446 MB
Memory footprint by rank 0 on node 0       : 633 MB
==================================================

=========================================================
  Start DMC
  File Root Be.log.s025 append = no 
=========================================================
Using existing walkers 
  Resetting Properties of the walkers 1 x 13
  Set drift_modifier UNR parameter a = 1
  EstimatorManagerBase::add replace LocalEnergy estimator.
  Cannot make clones again. Use existing 1 clones
SimpleFixedNodeBranch::checkParameters 
  Average Energy of a population  = -1.01061
  Energy Variance = 0.0591605

  Fluctuating population
  Persistent walkers are killed after 1 MC sweeps
  BranchInterval = 1
  Steps per block = 400
  Number of blocks = 130

  DMC Engine Initialization = 0.0003199577332 secs

 Warmup is completed after 400

  TauEff     = 0.002499888495
 TauEff/Tau = 0.9999553981
  Etrial     = -0.9135111537
 Running average of energy = -1.008756824
                  Variance = 0.06060499876
branch cutoff = 10 15
====================================================
  SimpleFixedNodeBranch::finalize after a DMC block
    QMC counter                   = 25
    time step                     = 0.0025
    effective time step           = 0.00249987
    trial energy                  = -1.00797
    reference energy              = -1.00895
    reference variance            = 0.060605
    target walkers                = 4096
    branch cutoff                 = 10 15
    Max and minimum walkers per node= 9 1
    Feedback                      = 1
    QMC Status (BranchMode)       = 0000001111
====================================================
  QMC Execution time = 318.7 secs
  Total Execution time = 583.3 secs

=========================================================
  A new xml input file : Be.log.s025.cont.xml
TACC:  Shutdown complete. Exiting. 
