
 Primary working directories    : /global/cscratch1/sd/aannabe
 Secondary working directories  : /global/cscratch1/sd/aannabe
 Wavefunction directory         : /global/homes/a/aannabe/wfu/
 Main file repository           : /global/cscratch1/sd/aannabe/

 SHA1      : 19cd028119e0e09f93f0674bd8af7968d9b3eff6
 NAME      : 2015.1.36
 ARCHNAME  : linux/x86_64
 FC        : /opt/cray/pe/craype/2.5.14/bin/ftn
 BLASLIB   : -L/opt/intel/compilers_and_libraries_2018.1.163/linux/mkl/lib/intel64 -Wl,-_start-group -lmkl_intel_ilp64 -lmkl_intel_thread -lmkl_core -Wl,-_end-group -liomp5
 id        : lbl

 Nodes     nprocs
 nid00456     1

 Using customized tuning parameters: mindgm=7; mindgv=16; mindgc=1; mindgr=1; noblas=0; minvec=7
 default implementation of scratch files=df  

 ***,Be
 memory,8,g
 gthresh,twoint=1.e-12
 
 gprint,basis,orbitals
 gexpec,ekin,pot
 
 angstrom
 geometry={
 1                                                                               ! Number of atoms
 Be 0.0 0.0 0.0
 }
 
 basis={
 
 Including file /global/homes/a/aannabe/repos/pseudopotentiallibrary/recipes/Be/ccECP/Be.ccECP.molpro
 
                                   !include,/global/homes/a/aannabe/repos/pseudopotentiallibrary/recipes/Be/ccECP/Be.cc-pVDZ.molpro
                                  !include,/global/homes/a/aannabe/repos/pseudopotentiallibrary/recipes/Be/ccECP/Be.cc-pCVDZ.molpro
 Including file /global/homes/a/aannabe/repos/pseudopotentiallibrary/recipes/Be/ccECP/Be.aug-cc-pVDZ.molpro
 
 
 }
 
 {hf
 wf,2,1,0
 occ,1,0,0,0,0,0,0,0
                                                                                 !open,1.3
 closed,1,0,0,0,0,0,0,0
                                                                                 !sym,
 }
 scf(i)=energy
 
 _CC_NORM_MAX=2.0
 {ci
 maxit,100
 core
 }
 posthf(i)=energy
 
 table,scf,posthf,ekin,pot
 save,2.csv,new
 
 

 Variables initialized (889), CPU time= 0.01 sec
 Commands  initialized (702), CPU time= 0.00 sec, 572 directives.
 Default parameters read. Elapsed time= 0.18 sec

 Checking input...
 Passed
1


                                         ***  PROGRAM SYSTEM MOLPRO  ***
                                       Copyright, TTI GmbH Stuttgart, 2015
                                    Version 2015.1 linked Dec 29 2018 15:55:43


 **********************************************************************************************************************************
 LABEL *   Be                                                                            
  64 bit serial version                                                                  DATE: 24-Jun-19          TIME: 05:56:27  
 **********************************************************************************************************************************

 SHA1:             19cd028119e0e09f93f0674bd8af7968d9b3eff6
 **********************************************************************************************************************************

 THRESHOLDS:

 ZERO    =  1.00D-12  ONEINT  =  1.00D-12  TWOINT  =  1.00D-12  PREFAC  =  1.00D-14  LOCALI  =  1.00D-09  EORDER  =  1.00D-04
 ENERGY  =  0.00D+00  ETEST   =  0.00D+00  EDENS   =  0.00D+00  THRDEDEF=  1.00D-06  GRADIENT=  1.00D-02  STEP    =  1.00D-03
 ORBITAL =  1.00D-05  CIVEC   =  1.00D-05  COEFF   =  1.00D-04  PRINTCI =  5.00D-02  PUNCHCI =  9.90D+01  OPTGRAD =  3.00D-04
 OPTENERG=  1.00D-06  OPTSTEP =  3.00D-04  THRGRAD =  1.00D-10  COMPRESS=  1.00D-11  VARMIN  =  1.00D-07  VARMAX  =  1.00D-03
 THRDOUB =  0.00D+00  THRDIV  =  1.00D-05  THRRED  =  1.00D-07  THRPSP  =  1.00D+00  THRDC   =  1.00D-10  THRCS   =  1.00D-10
 THRNRM  =  1.00D-08  THREQ   =  0.00D+00  THRDE   =  1.00D+00  THRREF  =  1.00D-05  SPARFAC =  1.00D+00  THRDLP  =  1.00D-07
 THRDIA  =  1.00D-10  THRDLS  =  1.00D-07  THRGPS  =  0.00D+00  THRKEX  =  0.00D+00  THRDIS  =  2.00D-01  THRVAR  =  1.00D-10
 THRLOC  =  1.00D-06  THRGAP  =  1.00D-06  THRLOCT = -1.00D+00  THRGAPT = -1.00D+00  THRORB  =  1.00D-06  THRMLTP =  0.00D+00
 THRCPQCI=  1.00D-10  KEXTA   =  0.00D+00  THRCOARS=  0.00D+00  SYMTOL  =  1.00D-06  GRADTOL =  1.00D-06  THROVL  =  1.00D-08
 THRORTH =  1.00D-08  GRID    =  1.00D-06  GRIDMAX =  1.00D-03  DTMAX   =  0.00D+00  THROCCDE=  1.00D-01  THROCCDE=  1.00D-01



 ZUNIT=ANG
 

Geometry recognized as XYZ


 Variable memory set to 8000000000 words,  buffer space   230000 words

 SETTING BASIS          =    USERDEF


 Recomputing integrals since basis changed


 Using spherical harmonics



 PROGRAM * SEWARD (Integral evaluation for generally contracted gaussian basis sets)     Author: Roland Lindh, 1990

 Geometry written to block  1 of record 700

 Orientation using atomic masses  
 Molecule type: Atom
 Symmetry elements: X,Y,Z
 Rotational constants:       0.0000000      0.0000000      0.0000000 GHz  (calculated with average atomic masses)

 Point group  D2h 



 ATOMIC COORDINATES

 NR  ATOM    CHARGE       X              Y              Z

   1  BE      2.00    0.000000000    0.000000000    0.000000000


          BE  CORE POTENTIAL

          p POTENTIAL

 POWERS             1              3              2              2
 EXPONENTIALS   17.94900       24.13200       20.13800       4.333171    
 COEFFICIENTS   2.000000       35.89800      -12.77500      -2.960014    

          s - p POTENTIAL

 POWERS             2
 EXPONENTIALS   2.487404    
 COEFFICIENTS   12.66392    


 BASIS DATA

   Nr Sym  Nuc  Type         Exponents   Contraction coefficients

    1.1 Ag    1  1s          15.965877     0.000690
                              7.367361    -0.000377
                              3.399626     0.024069
                              1.568738    -0.111989
                              0.723885    -0.076442
                              0.334032     0.135744
                              0.154137     0.418515
                              0.071126     0.462924
                              0.032821     0.128266
    2.1 Ag    1  1s           0.213567     1.000000
    3.1 Ag    1  1s           0.085427     1.000000
    4.1 Ag    1  3d0          0.227966     1.000000
    5.1 Ag    1  3d2+         0.227966     1.000000
    6.1 Ag    1  3d0          0.091186     1.000000
    7.1 Ag    1  3d2+         0.091186     1.000000
    1.2 B3u   1  2px         16.554942     0.000341
                              7.526050     0.003228
                              3.421421     0.017660
                              1.555414     0.038664
                              0.707108     0.098639
                              0.321458     0.231259
                              0.146138     0.387109
                              0.066436     0.339448
                              0.030203     0.089102
    2.2 B3u   1  2px          0.261244     1.000000
    3.2 B3u   1  2px          0.104498     1.000000
    1.3 B2u   1  2py         16.554942     0.000341
                              7.526050     0.003228
                              3.421421     0.017660
                              1.555414     0.038664
                              0.707108     0.098639
                              0.321458     0.231259
                              0.146138     0.387109
                              0.066436     0.339448
                              0.030203     0.089102
    2.3 B2u   1  2py          0.261244     1.000000
    3.3 B2u   1  2py          0.104498     1.000000
    1.4 B1g   1  3d2-         0.227966     1.000000
    2.4 B1g   1  3d2-         0.091186     1.000000
    1.5 B1u   1  2pz         16.554942     0.000341
                              7.526050     0.003228
                              3.421421     0.017660
                              1.555414     0.038664
                              0.707108     0.098639
                              0.321458     0.231259
                              0.146138     0.387109
                              0.066436     0.339448
                              0.030203     0.089102
    2.5 B1u   1  2pz          0.261244     1.000000
    3.5 B1u   1  2pz          0.104498     1.000000
    1.6 B2g   1  3d1+         0.227966     1.000000
    2.6 B2g   1  3d1+         0.091186     1.000000
    1.7 B3g   1  3d1-         0.227966     1.000000
    2.7 B3g   1  3d1-         0.091186     1.000000

 NUCLEAR CHARGE:                    2
 NUMBER OF PRIMITIVE AOS:          56
 NUMBER OF SYMMETRY AOS:           54
 NUMBER OF CONTRACTIONS:           22   (   7Ag  +   3B3u +   3B2u +   2B1g +   3B1u +   2B2g +   2B3g +   0Au  )
 NUMBER OF CORE ORBITALS:           0   (   0Ag  +   0B3u +   0B2u +   0B1g +   0B1u +   0B2g +   0B3g +   0Au  )
 NUMBER OF VALENCE ORBITALS:        4   (   1Ag  +   1B3u +   1B2u +   0B1g +   1B1u +   0B2g +   0B3g +   0Au  )


 NUCLEAR REPULSION ENERGY    0.00000000

 EXTRA SYMMETRY OF AOS IN SYMMETRY 1:   1 1 1 2 3 2 3

 Eigenvalues of metric

         1 0.574E-02 0.174E+00 0.299E+00 0.299E+00 0.170E+01 0.170E+01 0.282E+01
         2 0.219E-01 0.229E+00 0.275E+01
         3 0.219E-01 0.229E+00 0.275E+01
         4 0.299E+00 0.170E+01
         5 0.219E-01 0.229E+00 0.275E+01
         6 0.299E+00 0.170E+01
         7 0.299E+00 0.170E+01


 Contracted 2-electron integrals neglected if value below      1.0D-12
 AO integral compression algorithm  1   Integral accuracy      1.0D-12

     0.262 MB (compressed) written to integral file (100.0%)


 NUMBER OF SORTED TWO-ELECTRON INTEGRALS:       5272.     BUFFER LENGTH:  32768
 NUMBER OF SEGMENTS:   1  SEGMENT LENGTH:       5272      RECORD LENGTH: 524288

 Memory used in sort:       0.56 MW

 SORT1 READ       12220. AND WROTE        4734. INTEGRALS IN      1 RECORDS. CPU TIME:     0.00 SEC, REAL TIME:     0.01 SEC
 SORT2 READ        4734. AND WROTE        5272. INTEGRALS IN      1 RECORDS. CPU TIME:     0.00 SEC, REAL TIME:     0.00 SEC

 FILE SIZES:   FILE 1:    20.1 MBYTE,  FILE 4:     4.2 MBYTE,   TOTAL:     24.4 MBYTE

 OPERATOR DM      FOR CENTER  0  COORDINATES:    0.000000    0.000000    0.000000
 OPERATOR EKIN    FOR CENTER  0  COORDINATES:    0.000000    0.000000    0.000000
 OPERATOR POT     FOR CENTER  0  COORDINATES:    0.000000    0.000000    0.000000


 **********************************************************************************************************************************
 DATASETS  * FILE   NREC   LENGTH (MB)   RECORD NAMES
              1      20       19.92       500      610      700      900      950      970     1000      129      960     1100   
                                          VAR    BASINP    GEOM    SYMINP    ZMAT    AOBASIS   BASIS     P2S    ABASIS      S 
                                         1400     1410     1420     1200     1210     1080     1600     1650     1300     1700   
                                         EKIN       V       ECP      H0       H01     AOSYM     SMH    MOLCAS    ERIS     OPER   

 PROGRAMS   *        TOTAL       INT
 CPU TIMES  *         1.61      1.52
 REAL TIME  *        11.05 SEC
 DISK USED  *        24.63 MB      
 **********************************************************************************************************************************


 PROGRAM * RHF-SCF (CLOSED SHELL)       Authors: W. Meyer, H.-J. Werner


 NUMBER OF ELECTRONS:       1+    1-    SPACE SYMMETRY=1    SPIN SYMMETRY: Singlet 
 CONVERGENCE THRESHOLDS:    1.00E-05 (Density)    1.00E-07 (Energy)
 MAX. NUMBER OF ITERATIONS:       60
 INTERPOLATION TYPE:            DIIS
 INTERPOLATION STEPS:              2 (START)      1 (STEP)
 LEVEL SHIFTS:                  0.00 (CLOSED)  0.00 (OPEN) 

 Number of closed-shell orbitals:    1 (   1   0   0   0   0   0   0 )



   Atom=BE basis=ECP2SDF_GUESS     lmin=0  lmax=0

 Orbital guess generated from atomic densities. Full valence occupancy:    1   0   0   0   0   0   0   0


 Molecular orbital dump at record        2100.2

 ITERATION    DDIFF          GRAD             ENERGY        2-EL.EN.            DIPOLE MOMENTS         DIIS   ORB.
    1      0.000D+00      0.000D+00        -0.96188856      0.686217    0.00000    0.00000    0.00000    0    start
    2      0.000D+00      0.102D-02        -0.96189254      0.686436    0.00000    0.00000    0.00000    1    diag
    3      0.365D-02      0.948D-04        -0.96189258      0.686475    0.00000    0.00000    0.00000    2    diag
    4      0.334D-03      0.190D-05        -0.96189258      0.686479    0.00000    0.00000    0.00000    3    diag
    5      0.118D-04      0.109D-08        -0.96189258      0.686479    0.00000    0.00000    0.00000    4    diag
    6      0.524D-08      0.182D-14        -0.96189258      0.686479    0.00000    0.00000    0.00000    0    orth

 Final occupancy:   1   0   0   0   0   0   0

 !RHF STATE 1.1 Energy                 -0.961892575771
 Nuclear energy                         0.00000000
 One-electron energy                   -1.30513232
 Two-electron energy                    0.34323975
 Virial quotient                       -3.05033856
 !RHF STATE 1.1 Dipole moment           0.00000000     0.00000000     0.00000000
 Dipole moment /Debye                   0.00000000     0.00000000     0.00000000
 

 !RHF expec          <1.1|EKIN|1.1>     0.315339611758
 
 !RHF expec           <1.1|POT|1.1>    -0.925394570412

 ELECTRON ORBITALS
 =================


   Orb  Occ    Energy  Couls-En    Coefficients

                                   1 1s      1 1s      1 1s      1 3d0     1 3d2+    1 3d0     1 3d2+ 

   1.1   2    -0.3093   -0.9619  0.999994 -0.000010  0.000015  0.000000  0.000000 -0.000000 -0.000000

 HOMO      1.1    -0.309326 =      -8.4172eV
 LUMO      1.2     0.068191 =       1.8556eV
 LUMO-HOMO         0.377517 =      10.2728eV


 **********************************************************************************************************************************
 DATASETS  * FILE   NREC   LENGTH (MB)   RECORD NAMES
              1      20       19.92       500      610      700      900      950      970     1000      129      960     1100   
                                          VAR    BASINP    GEOM    SYMINP    ZMAT    AOBASIS   BASIS     P2S    ABASIS      S 
                                         1400     1410     1420     1200     1210     1080     1600     1650     1300     1700   
                                         EKIN       V       ECP      H0       H01     AOSYM     SMH    MOLCAS    ERIS     OPER   

              2       4        2.75       700     1000      520     2100   
                                         GEOM     BASIS   MCVARS     RHF  

 PROGRAMS   *        TOTAL        HF       INT
 CPU TIMES  *         1.63      0.02      1.52
 REAL TIME  *        11.18 SEC
 DISK USED  *        24.63 MB      
 **********************************************************************************************************************************
 SETTING SCF(I)         =        -0.96189258  AU                              
 SETTING _CC_NORM_MAX   =         2.00000000                                  


 PROGRAM * CI (Multireference internally contracted CI)     Authors: H.-J. Werner, P.J. Knowles, 1987


 Convergence thresholds:  THRVAR = 1.00D-08  THRDEN = 1.00D-06

 Number of optimized states:  1  Roots:   1
 Number of reference states:  1  Roots:   1

 Reference symmetry:                   1   Singlet 
 Number of electrons:                  2
 Maximum number of shells:             2
 Maximum number of spin couplings:     1

 Reference space:        1 conf        1 CSFs
 N elec internal:        1 conf        1 CSFs
 N-1 el internal:        1 conf        1 CSFs
 N-2 el internal:        1 conf        1 CSFs

 Number of electrons in valence space:                      2
 Maximum number of open shell orbitals in reference space:  0
 Maximum number of open shell orbitals in internal spaces:  2


 Number of closed-shell orbitals:   1 (   1   0   0   0   0   0   0 )
 Number of external orbitals:      21 (   6   3   3   2   3   2   2 )

 Molecular orbitals read from record     2100.2  Type=RHF/CANONICAL (state 1.1)

 Integral transformation finished. Total CPU:   0.01 sec, npass=  1  Memory used:   0.07 MW

 Number of p-space configurations:   1

 Reference wavefunction optimized for reference space (refopt=1)

 State     Reference Energy 
   1          -0.96189258

 Number of blocks in overlap matrix:     1   Smallest eigenvalue:  0.10D+01
 Number of N-2 electron functions:       1
 Number of N-1 electron functions:       1

 Number of internal configurations:                    1
 Number of singly external configurations:             6
 Number of doubly external configurations:            48
 Total number of contracted configurations:           55
 Total number of uncontracted configurations:         55

 Diagonal Coupling coefficients finished.               Storage:      54 words, CPU-Time:      0.00 seconds.
 Energy denominators for pairs finished in 1 passes.    Storage:     323 words, CPU-time:      0.00 seconds.

  ITER. STATE  ROOT     SQ.NORM     CORR.ENERGY   TOTAL ENERGY   ENERGY CHANGE       DEN1      VAR(S)    VAR(P)      TIME
    1     1     1     1.00000000     0.00000000    -0.96189258    -0.00000000    -0.03495112  0.00D+00  0.44D-01     0.02
    2     1     1     1.06237494    -0.04156749    -1.00346006    -0.04156749    -0.00359432  0.36D-03  0.33D-02     0.02
    3     1     1     1.10402397    -0.04688421    -1.00877679    -0.00531672    -0.00009841  0.81D-05  0.66D-04     0.02
    4     1     1     1.10516060    -0.04699215    -1.00888473    -0.00010794    -0.00000157  0.21D-06  0.12D-05     0.02
    5     1     1     1.10527184    -0.04699393    -1.00888650    -0.00000178    -0.00000003  0.22D-08  0.18D-07     0.02
    6     1     1     1.10526988    -0.04699395    -1.00888653    -0.00000003    -0.00000000  0.10D-09  0.15D-09     0.02


 =====================================
 Analysis of CPU times by interactions
 =====================================

       I      S      P

 I   0.0%
 S   0.0%   0.0%
 P   0.0%   0.0%   0.0%

 Initialization: 100.0%
 Other:            0.0%

 Total CPU:        0.0 seconds
 =====================================



 Reference coefficients greater than 0.0500000
 =============================================
 2           0.9511868

 Coefficients of doubly external configurations greater than 0.0500000
 =====================================================================

 PAIR    I     J   ->   K     L     NP  SYM  REF     COEFFICIENTS

   1    1.1   1.1      1.2   1.2     1   1    1   -0.16111248
   1    1.1   1.1      1.5   1.5     1   1    1   -0.16111248
   1    1.1   1.1      1.3   1.3     1   1    1   -0.16111248



 RESULTS FOR STATE 1.1
 =====================

 Coefficient of reference function:   C(0) = 0.95118684 (fixed)   0.95118684 (relaxed)

 Energy contributions of configuration classes

 CLASS          SQ.NORM        ECORR1        ECORR2
 +++++++++++++++++++++++++++++++++++++++++++++++++++
 Internals    0.00000000    0.00000000   -0.00000000
 Singles      0.00072740   -0.00000000   -0.00003073
 Pairs        0.10454248   -0.04699395   -0.04696322
 Total        1.10526988   -0.04699395   -0.04699395
 +++++++++++++++++++++++++++++++++++++++++++++++++++


 Reference energy                      -0.96189258
 Nuclear energy                         0.00000000
 Kinetic energy                         0.38682436
 One electron energy                   -1.28198985
 Two electron energy                    0.27310332
 Virial quotient                       -2.60812565
 Correlation energy                    -0.04699395
 !CI(SD) STATE 1.1 Energy              -1.008886529594

 Properties without orbital relaxation:

 !CI(SD) STATE 1.1 Dipole moment        0.00000000     0.00000000     0.00000000
 Dipole moment /Debye                   0.00000000     0.00000000     0.00000000

 Cluster corrected energies            -1.00888653 (Davidson, fixed reference)
 Cluster corrected energies            -1.00888653 (Davidson, relaxed reference)

 Cluster corrected energies            -1.00888653 (Pople, fixed reference)
 Cluster corrected energies            -1.00888653 (Pople, relaxed reference)

 

 !CI(SD) expec       <1.1|EKIN|1.1>     0.386824357416
 
 !CI(SD) expec        <1.1|POT|1.1>    -0.943784862243


 **********************************************************************************************************************************
 DATASETS  * FILE   NREC   LENGTH (MB)   RECORD NAMES
              1      21       19.92       500      610      700      900      950      970     1000      129      960     1100   
                                          VAR    BASINP    GEOM    SYMINP    ZMAT    AOBASIS   BASIS     P2S    ABASIS      S 
                                         1400     1410     1420     1200     1210     1080     1600     1650     1300     1700   
                                         EKIN       V       ECP      H0       H01     AOSYM     SMH    MOLCAS    ERIS     OPER   
                                         1380   
                                         JKOP   

              2       4        2.75       700     1000      520     2100   
                                         GEOM     BASIS   MCVARS     RHF  

 PROGRAMS   *        TOTAL        CI        HF       INT
 CPU TIMES  *         1.67      0.04      0.02      1.52
 REAL TIME  *        11.65 SEC
 DISK USED  *        24.63 MB      
 **********************************************************************************************************************************
 SETTING POSTHF(I)      =        -1.00888653  AU                              
                                                                                                                                                                                                                                                                

       SCF           POSTHF       EKIN          POT
    -0.96189258   -1.00888653   0.38682436   -0.94378486
                                                  

 CI/USERDEF energy=     -1.008886529594

        CI              HF-SCF  
     -1.00888653     -0.96189258
 **********************************************************************************************************************************
 Molpro calculation terminated
 Variable memory released
