
 Primary working directories    : /global/cscratch1/sd/aannabe
 Secondary working directories  : /global/cscratch1/sd/aannabe
 Wavefunction directory         : /global/homes/a/aannabe/wfu/
 Main file repository           : /global/cscratch1/sd/aannabe/

 SHA1      : 19cd028119e0e09f93f0674bd8af7968d9b3eff6
 NAME      : 2015.1.36
 ARCHNAME  : linux/x86_64
 FC        : /opt/cray/pe/craype/2.5.14/bin/ftn
 BLASLIB   : -L/opt/intel/compilers_and_libraries_2018.1.163/linux/mkl/lib/intel64 -Wl,-_start-group -lmkl_intel_ilp64 -lmkl_intel_thread -lmkl_core -Wl,-_end-group -liomp5
 id        : lbl

 Nodes     nprocs
 nid00456     1

 Using customized tuning parameters: mindgm=7; mindgv=16; mindgc=1; mindgr=1; noblas=0; minvec=7
 default implementation of scratch files=df  

 ***,Be
 memory,8,g
 gthresh,twoint=1.e-12
 
 gprint,basis,orbitals
 gexpec,ekin,pot
 
 angstrom
 geometry={
 1                                                                               ! Number of atoms
 Be 0.0 0.0 0.0
 }
 
 basis={
 
 Including file /global/homes/a/aannabe/repos/pseudopotentiallibrary/recipes/Be/ccECP/Be.ccECP.molpro
 
                                   !include,/global/homes/a/aannabe/repos/pseudopotentiallibrary/recipes/Be/ccECP/Be.cc-pV6Z.molpro
                                  !include,/global/homes/a/aannabe/repos/pseudopotentiallibrary/recipes/Be/ccECP/Be.cc-pCV6Z.molpro
 Including file /global/homes/a/aannabe/repos/pseudopotentiallibrary/recipes/Be/ccECP/Be.aug-cc-pV6Z.molpro
 
 
 }
 
 {hf
 wf,2,1,0
 occ,1,0,0,0,0,0,0,0
                                                                                 !open,1.3
 closed,1,0,0,0,0,0,0,0
                                                                                 !sym,
 }
 scf(i)=energy
 
 _CC_NORM_MAX=2.0
 {ci
 maxit,100
 core
 }
 posthf(i)=energy
 
 table,scf,posthf,ekin,pot
 save,6.csv,new
 
 

 Variables initialized (889), CPU time= 0.01 sec
 Commands  initialized (702), CPU time= 0.01 sec, 572 directives.
 Default parameters read. Elapsed time= 0.12 sec

 Checking input...
 Passed
1


                                         ***  PROGRAM SYSTEM MOLPRO  ***
                                       Copyright, TTI GmbH Stuttgart, 2015
                                    Version 2015.1 linked Dec 29 2018 15:55:43


 **********************************************************************************************************************************
 LABEL *   Be                                                                            
  64 bit serial version                                                                  DATE: 24-Jun-19          TIME: 05:57:57  
 **********************************************************************************************************************************

 SHA1:             19cd028119e0e09f93f0674bd8af7968d9b3eff6
 **********************************************************************************************************************************

 THRESHOLDS:

 ZERO    =  1.00D-12  ONEINT  =  1.00D-12  TWOINT  =  1.00D-12  PREFAC  =  1.00D-14  LOCALI  =  1.00D-09  EORDER  =  1.00D-04
 ENERGY  =  0.00D+00  ETEST   =  0.00D+00  EDENS   =  0.00D+00  THRDEDEF=  1.00D-06  GRADIENT=  1.00D-02  STEP    =  1.00D-03
 ORBITAL =  1.00D-05  CIVEC   =  1.00D-05  COEFF   =  1.00D-04  PRINTCI =  5.00D-02  PUNCHCI =  9.90D+01  OPTGRAD =  3.00D-04
 OPTENERG=  1.00D-06  OPTSTEP =  3.00D-04  THRGRAD =  1.00D-10  COMPRESS=  1.00D-11  VARMIN  =  1.00D-07  VARMAX  =  1.00D-03
 THRDOUB =  0.00D+00  THRDIV  =  1.00D-05  THRRED  =  1.00D-07  THRPSP  =  1.00D+00  THRDC   =  1.00D-10  THRCS   =  1.00D-10
 THRNRM  =  1.00D-08  THREQ   =  0.00D+00  THRDE   =  1.00D+00  THRREF  =  1.00D-05  SPARFAC =  1.00D+00  THRDLP  =  1.00D-07
 THRDIA  =  1.00D-10  THRDLS  =  1.00D-07  THRGPS  =  0.00D+00  THRKEX  =  0.00D+00  THRDIS  =  2.00D-01  THRVAR  =  1.00D-10
 THRLOC  =  1.00D-06  THRGAP  =  1.00D-06  THRLOCT = -1.00D+00  THRGAPT = -1.00D+00  THRORB  =  1.00D-06  THRMLTP =  0.00D+00
 THRCPQCI=  1.00D-10  KEXTA   =  0.00D+00  THRCOARS=  0.00D+00  SYMTOL  =  1.00D-06  GRADTOL =  1.00D-06  THROVL  =  1.00D-08
 THRORTH =  1.00D-08  GRID    =  1.00D-06  GRIDMAX =  1.00D-03  DTMAX   =  0.00D+00  THROCCDE=  1.00D-01  THROCCDE=  1.00D-01



 ZUNIT=ANG
 

Geometry recognized as XYZ


 Variable memory set to 8000000000 words,  buffer space   230000 words

 SETTING BASIS          =    USERDEF


 Recomputing integrals since basis changed


 Using spherical harmonics



 PROGRAM * SEWARD (Integral evaluation for generally contracted gaussian basis sets)     Author: Roland Lindh, 1990

 Geometry written to block  1 of record 700

 Orientation using atomic masses  
 Molecule type: Atom
 Symmetry elements: X,Y,Z
 Rotational constants:       0.0000000      0.0000000      0.0000000 GHz  (calculated with average atomic masses)

 Point group  D2h 



 ATOMIC COORDINATES

 NR  ATOM    CHARGE       X              Y              Z

   1  BE      2.00    0.000000000    0.000000000    0.000000000


          BE  CORE POTENTIAL

          p POTENTIAL

 POWERS             1              3              2              2
 EXPONENTIALS   17.94900       24.13200       20.13800       4.333171    
 COEFFICIENTS   2.000000       35.89800      -12.77500      -2.960014    

          s - p POTENTIAL

 POWERS             2
 EXPONENTIALS   2.487404    
 COEFFICIENTS   12.66392    


 BASIS DATA

   Nr Sym  Nuc  Type         Exponents   Contraction coefficients

    1.1 Ag    1  1s          15.965877     0.000690
                              7.367361    -0.000377
                              3.399626     0.024069
                              1.568738    -0.111989
                              0.723885    -0.076442
                              0.334032     0.135744
                              0.154137     0.418515
                              0.071126     0.462924
                              0.032821     0.128266
    2.1 Ag    1  1s           0.663553     1.000000
    3.1 Ag    1  1s           0.311589     1.000000
    4.1 Ag    1  1s           0.146315     1.000000
    5.1 Ag    1  1s           0.068706     1.000000
    6.1 Ag    1  1s           0.032263     1.000000
    7.1 Ag    1  1s           0.012905     1.000000
    8.1 Ag    1  3d0          1.567419     1.000000
    9.1 Ag    1  3d2+         1.567419     1.000000
   10.1 Ag    1  3d0          0.842974     1.000000
   11.1 Ag    1  3d2+         0.842974     1.000000
   12.1 Ag    1  3d0          0.453360     1.000000
   13.1 Ag    1  3d2+         0.453360     1.000000
   14.1 Ag    1  3d0          0.243822     1.000000
   15.1 Ag    1  3d2+         0.243822     1.000000
   16.1 Ag    1  3d0          0.131130     1.000000
   17.1 Ag    1  3d2+         0.131130     1.000000
   18.1 Ag    1  3d0          0.052452     1.000000
   19.1 Ag    1  3d2+         0.052452     1.000000
   20.1 Ag    1  5g0          1.105060     1.000000
   21.1 Ag    1  5g4+         1.105060     1.000000
   22.1 Ag    1  5g2+         1.105060     1.000000
   23.1 Ag    1  5g0          0.553328     1.000000
   24.1 Ag    1  5g4+         0.553328     1.000000
   25.1 Ag    1  5g2+         0.553328     1.000000
   26.1 Ag    1  5g0          0.277063     1.000000
   27.1 Ag    1  5g4+         0.277063     1.000000
   28.1 Ag    1  5g2+         0.277063     1.000000
   29.1 Ag    1  5g0          0.110825     1.000000
   30.1 Ag    1  5g4+         0.110825     1.000000
   31.1 Ag    1  5g2+         0.110825     1.000000
   32.1 Ag    1  7i6+         0.587011     1.000000
   33.1 Ag    1  7i4+         0.587011     1.000000
   34.1 Ag    1  7i2+         0.587011     1.000000
   35.1 Ag    1  7i0          0.587011     1.000000
   36.1 Ag    1  7i6+         0.234804     1.000000
   37.1 Ag    1  7i4+         0.234804     1.000000
   38.1 Ag    1  7i2+         0.234804     1.000000
   39.1 Ag    1  7i0          0.234804     1.000000
    1.2 B3u   1  2px         16.554942     0.000341
                              7.526050     0.003228
                              3.421421     0.017660
                              1.555414     0.038664
                              0.707108     0.098639
                              0.321458     0.231259
                              0.146138     0.387109
                              0.066436     0.339448
                              0.030203     0.089102
    2.2 B3u   1  2px          3.228674     1.000000
    3.2 B3u   1  2px          1.379869     1.000000
    4.2 B3u   1  2px          0.589728     1.000000
    5.2 B3u   1  2px          0.252038     1.000000
    6.2 B3u   1  2px          0.107716     1.000000
    7.2 B3u   1  2px          0.043086     1.000000
    8.2 B3u   1  4f1+         1.158430     1.000000
    9.2 B3u   1  4f3+         1.158430     1.000000
   10.2 B3u   1  4f1+         0.644955     1.000000
   11.2 B3u   1  4f3+         0.644955     1.000000
   12.2 B3u   1  4f1+         0.359078     1.000000
   13.2 B3u   1  4f3+         0.359078     1.000000
   14.2 B3u   1  4f1+         0.199916     1.000000
   15.2 B3u   1  4f3+         0.199916     1.000000
   16.2 B3u   1  4f1+         0.079966     1.000000
   17.2 B3u   1  4f3+         0.079966     1.000000
   18.2 B3u   1  6h1+         0.748694     1.000000
   19.2 B3u   1  6h3+         0.748694     1.000000
   20.2 B3u   1  6h5+         0.748694     1.000000
   21.2 B3u   1  6h1+         0.376945     1.000000
   22.2 B3u   1  6h3+         0.376945     1.000000
   23.2 B3u   1  6h5+         0.376945     1.000000
   24.2 B3u   1  6h1+         0.150778     1.000000
   25.2 B3u   1  6h3+         0.150778     1.000000
   26.2 B3u   1  6h5+         0.150778     1.000000
    1.3 B2u   1  2py         16.554942     0.000341
                              7.526050     0.003228
                              3.421421     0.017660
                              1.555414     0.038664
                              0.707108     0.098639
                              0.321458     0.231259
                              0.146138     0.387109
                              0.066436     0.339448
                              0.030203     0.089102
    2.3 B2u   1  2py          3.228674     1.000000
    3.3 B2u   1  2py          1.379869     1.000000
    4.3 B2u   1  2py          0.589728     1.000000
    5.3 B2u   1  2py          0.252038     1.000000
    6.3 B2u   1  2py          0.107716     1.000000
    7.3 B2u   1  2py          0.043086     1.000000
    8.3 B2u   1  4f1-         1.158430     1.000000
    9.3 B2u   1  4f3-         1.158430     1.000000
   10.3 B2u   1  4f1-         0.644955     1.000000
   11.3 B2u   1  4f3-         0.644955     1.000000
   12.3 B2u   1  4f1-         0.359078     1.000000
   13.3 B2u   1  4f3-         0.359078     1.000000
   14.3 B2u   1  4f1-         0.199916     1.000000
   15.3 B2u   1  4f3-         0.199916     1.000000
   16.3 B2u   1  4f1-         0.079966     1.000000
   17.3 B2u   1  4f3-         0.079966     1.000000
   18.3 B2u   1  6h1-         0.748694     1.000000
   19.3 B2u   1  6h3-         0.748694     1.000000
   20.3 B2u   1  6h5-         0.748694     1.000000
   21.3 B2u   1  6h1-         0.376945     1.000000
   22.3 B2u   1  6h3-         0.376945     1.000000
   23.3 B2u   1  6h5-         0.376945     1.000000
   24.3 B2u   1  6h1-         0.150778     1.000000
   25.3 B2u   1  6h3-         0.150778     1.000000
   26.3 B2u   1  6h5-         0.150778     1.000000
    1.4 B1g   1  3d2-         1.567419     1.000000
    2.4 B1g   1  3d2-         0.842974     1.000000
    3.4 B1g   1  3d2-         0.453360     1.000000
    4.4 B1g   1  3d2-         0.243822     1.000000
    5.4 B1g   1  3d2-         0.131130     1.000000
    6.4 B1g   1  3d2-         0.052452     1.000000
    7.4 B1g   1  5g2-         1.105060     1.000000
    8.4 B1g   1  5g4-         1.105060     1.000000
    9.4 B1g   1  5g2-         0.553328     1.000000
   10.4 B1g   1  5g4-         0.553328     1.000000
   11.4 B1g   1  5g2-         0.277063     1.000000
   12.4 B1g   1  5g4-         0.277063     1.000000
   13.4 B1g   1  5g2-         0.110825     1.000000
   14.4 B1g   1  5g4-         0.110825     1.000000
   15.4 B1g   1  7i2-         0.587011     1.000000
   16.4 B1g   1  7i6-         0.587011     1.000000
   17.4 B1g   1  7i4-         0.587011     1.000000
   18.4 B1g   1  7i2-         0.234804     1.000000
   19.4 B1g   1  7i6-         0.234804     1.000000
   20.4 B1g   1  7i4-         0.234804     1.000000
    1.5 B1u   1  2pz         16.554942     0.000341
                              7.526050     0.003228
                              3.421421     0.017660
                              1.555414     0.038664
                              0.707108     0.098639
                              0.321458     0.231259
                              0.146138     0.387109
                              0.066436     0.339448
                              0.030203     0.089102
    2.5 B1u   1  2pz          3.228674     1.000000
    3.5 B1u   1  2pz          1.379869     1.000000
    4.5 B1u   1  2pz          0.589728     1.000000
    5.5 B1u   1  2pz          0.252038     1.000000
    6.5 B1u   1  2pz          0.107716     1.000000
    7.5 B1u   1  2pz          0.043086     1.000000
    8.5 B1u   1  4f0          1.158430     1.000000
    9.5 B1u   1  4f2+         1.158430     1.000000
   10.5 B1u   1  4f0          0.644955     1.000000
   11.5 B1u   1  4f2+         0.644955     1.000000
   12.5 B1u   1  4f0          0.359078     1.000000
   13.5 B1u   1  4f2+         0.359078     1.000000
   14.5 B1u   1  4f0          0.199916     1.000000
   15.5 B1u   1  4f2+         0.199916     1.000000
   16.5 B1u   1  4f0          0.079966     1.000000
   17.5 B1u   1  4f2+         0.079966     1.000000
   18.5 B1u   1  6h2+         0.748694     1.000000
   19.5 B1u   1  6h4+         0.748694     1.000000
   20.5 B1u   1  6h0          0.748694     1.000000
   21.5 B1u   1  6h2+         0.376945     1.000000
   22.5 B1u   1  6h4+         0.376945     1.000000
   23.5 B1u   1  6h0          0.376945     1.000000
   24.5 B1u   1  6h2+         0.150778     1.000000
   25.5 B1u   1  6h4+         0.150778     1.000000
   26.5 B1u   1  6h0          0.150778     1.000000
    1.6 B2g   1  3d1+         1.567419     1.000000
    2.6 B2g   1  3d1+         0.842974     1.000000
    3.6 B2g   1  3d1+         0.453360     1.000000
    4.6 B2g   1  3d1+         0.243822     1.000000
    5.6 B2g   1  3d1+         0.131130     1.000000
    6.6 B2g   1  3d1+         0.052452     1.000000
    7.6 B2g   1  5g1+         1.105060     1.000000
    8.6 B2g   1  5g3+         1.105060     1.000000
    9.6 B2g   1  5g1+         0.553328     1.000000
   10.6 B2g   1  5g3+         0.553328     1.000000
   11.6 B2g   1  5g1+         0.277063     1.000000
   12.6 B2g   1  5g3+         0.277063     1.000000
   13.6 B2g   1  5g1+         0.110825     1.000000
   14.6 B2g   1  5g3+         0.110825     1.000000
   15.6 B2g   1  7i5+         0.587011     1.000000
   16.6 B2g   1  7i3+         0.587011     1.000000
   17.6 B2g   1  7i1+         0.587011     1.000000
   18.6 B2g   1  7i5+         0.234804     1.000000
   19.6 B2g   1  7i3+         0.234804     1.000000
   20.6 B2g   1  7i1+         0.234804     1.000000
    1.7 B3g   1  3d1-         1.567419     1.000000
    2.7 B3g   1  3d1-         0.842974     1.000000
    3.7 B3g   1  3d1-         0.453360     1.000000
    4.7 B3g   1  3d1-         0.243822     1.000000
    5.7 B3g   1  3d1-         0.131130     1.000000
    6.7 B3g   1  3d1-         0.052452     1.000000
    7.7 B3g   1  5g1-         1.105060     1.000000
    8.7 B3g   1  5g3-         1.105060     1.000000
    9.7 B3g   1  5g1-         0.553328     1.000000
   10.7 B3g   1  5g3-         0.553328     1.000000
   11.7 B3g   1  5g1-         0.277063     1.000000
   12.7 B3g   1  5g3-         0.277063     1.000000
   13.7 B3g   1  5g1-         0.110825     1.000000
   14.7 B3g   1  5g3-         0.110825     1.000000
   15.7 B3g   1  7i5-         0.587011     1.000000
   16.7 B3g   1  7i3-         0.587011     1.000000
   17.7 B3g   1  7i1-         0.587011     1.000000
   18.7 B3g   1  7i5-         0.234804     1.000000
   19.7 B3g   1  7i3-         0.234804     1.000000
   20.7 B3g   1  7i1-         0.234804     1.000000
    1.8 Au    1  4f2-         1.158430     1.000000
    2.8 Au    1  4f2-         0.644955     1.000000
    3.8 Au    1  4f2-         0.359078     1.000000
    4.8 Au    1  4f2-         0.199916     1.000000
    5.8 Au    1  4f2-         0.079966     1.000000
    6.8 Au    1  6h4-         0.748694     1.000000
    7.8 Au    1  6h2-         0.748694     1.000000
    8.8 Au    1  6h4-         0.376945     1.000000
    9.8 Au    1  6h2-         0.376945     1.000000
   10.8 Au    1  6h4-         0.150778     1.000000
   11.8 Au    1  6h2-         0.150778     1.000000

 NUCLEAR CHARGE:                    2
 NUMBER OF PRIMITIVE AOS:         325
 NUMBER OF SYMMETRY AOS:          220
 NUMBER OF CONTRACTIONS:          188   (  39Ag  +  26B3u +  26B2u +  20B1g +  26B1u +  20B2g +  20B3g +  11Au  )
 NUMBER OF CORE ORBITALS:           0   (   0Ag  +   0B3u +   0B2u +   0B1g +   0B1u +   0B2g +   0B3g +   0Au  )
 NUMBER OF VALENCE ORBITALS:        4   (   1Ag  +   1B3u +   1B2u +   0B1g +   1B1u +   0B2g +   0B3g +   0Au  )


 NUCLEAR REPULSION ENERGY    0.00000000

 EXTRA SYMMETRY OF AOS IN SYMMETRY 1:   1 1 1 1 1 1 1 2 3 2   3 2 3 2 3 2 3 2 3 4   5 6 4 5 6 4 5 6 4 5   6 7 8 910 7 8 910
 EXTRA SYMMETRY OF AOS IN SYMMETRY 2:   1 1 1 1 1 1 1 2 3 2   3 2 3 2 3 2 3 4 5 6   4 5 6 4 5 6
 EXTRA SYMMETRY OF AOS IN SYMMETRY 3:   1 1 1 1 1 1 1 2 3 2   3 2 3 2 3 2 3 4 5 6   4 5 6 4 5 6
 EXTRA SYMMETRY OF AOS IN SYMMETRY 4:   1 1 1 1 1 1 2 3 2 3   2 3 2 3 4 5 6 4 5 6
 EXTRA SYMMETRY OF AOS IN SYMMETRY 5:   1 1 1 1 1 1 1 2 3 2   3 2 3 2 3 2 3 4 5 6   4 5 6 4 5 6
 EXTRA SYMMETRY OF AOS IN SYMMETRY 6:   1 1 1 1 1 1 2 3 2 3   2 3 2 3 4 5 6 4 5 6
 EXTRA SYMMETRY OF AOS IN SYMMETRY 7:   1 1 1 1 1 1 2 3 2 3   2 3 2 3 4 5 6 4 5 6
 EXTRA SYMMETRY OF AOS IN SYMMETRY 8:   1 1 1 1 1 2 3 2 3 2   3

 Eigenvalues of metric

         1 0.220E-03 0.210E-02 0.493E-02 0.493E-02 0.153E-01 0.394E-01 0.394E-01 0.811E-01
         2 0.156E-04 0.131E-01 0.131E-01 0.137E-01 0.637E-01 0.117E+00 0.117E+00 0.208E+00
         3 0.156E-04 0.131E-01 0.131E-01 0.137E-01 0.637E-01 0.117E+00 0.117E+00 0.208E+00
         4 0.493E-02 0.394E-01 0.811E-01 0.811E-01 0.201E+00 0.433E+00 0.433E+00 0.533E+00
         5 0.156E-04 0.131E-01 0.131E-01 0.137E-01 0.637E-01 0.117E+00 0.117E+00 0.208E+00
         6 0.493E-02 0.394E-01 0.811E-01 0.811E-01 0.201E+00 0.433E+00 0.433E+00 0.533E+00
         7 0.493E-02 0.394E-01 0.811E-01 0.811E-01 0.201E+00 0.433E+00 0.433E+00 0.533E+00
         8 0.131E-01 0.117E+00 0.208E+00 0.208E+00 0.523E+00 0.856E+00 0.856E+00 0.133E+01


 Contracted 2-electron integrals neglected if value below      1.0D-12
 AO integral compression algorithm  1   Integral accuracy      1.0D-12

     116.654 MB (compressed) written to integral file ( 45.9%)


 NUMBER OF SORTED TWO-ELECTRON INTEGRALS:   20212815.     BUFFER LENGTH:  32768
 NUMBER OF SEGMENTS:   2  SEGMENT LENGTH:   15998787      RECORD LENGTH: 524288

 Memory used in sort:      16.56 MW

 SORT1 READ    31710950. AND WROTE    13213985. INTEGRALS IN     39 RECORDS. CPU TIME:     0.78 SEC, REAL TIME:     1.06 SEC
 SORT2 READ    13213985. AND WROTE    20212815. INTEGRALS IN    445 RECORDS. CPU TIME:     0.56 SEC, REAL TIME:     0.99 SEC

 FILE SIZES:   FILE 1:   137.4 MBYTE,  FILE 4:   163.6 MBYTE,   TOTAL:    301.0 MBYTE

 OPERATOR DM      FOR CENTER  0  COORDINATES:    0.000000    0.000000    0.000000
 OPERATOR EKIN    FOR CENTER  0  COORDINATES:    0.000000    0.000000    0.000000
 OPERATOR POT     FOR CENTER  0  COORDINATES:    0.000000    0.000000    0.000000


 **********************************************************************************************************************************
 DATASETS  * FILE   NREC   LENGTH (MB)   RECORD NAMES
              1      20       95.76       500      610      700      900      950      970     1000      129      960     1100   
                                          VAR    BASINP    GEOM    SYMINP    ZMAT    AOBASIS   BASIS     P2S    ABASIS      S 
                                         1400     1410     1420     1200     1210     1080     1600     1650     1300     1700   
                                         EKIN       V       ECP      H0       H01     AOSYM     SMH    MOLCAS    ERIS     OPER   

 PROGRAMS   *        TOTAL       INT
 CPU TIMES  *         7.49      7.38
 REAL TIME  *        18.12 SEC
 DISK USED  *       301.30 MB      
 **********************************************************************************************************************************


 PROGRAM * RHF-SCF (CLOSED SHELL)       Authors: W. Meyer, H.-J. Werner


 NUMBER OF ELECTRONS:       1+    1-    SPACE SYMMETRY=1    SPIN SYMMETRY: Singlet 
 CONVERGENCE THRESHOLDS:    1.00E-05 (Density)    1.00E-07 (Energy)
 MAX. NUMBER OF ITERATIONS:       60
 INTERPOLATION TYPE:            DIIS
 INTERPOLATION STEPS:              2 (START)      1 (STEP)
 LEVEL SHIFTS:                  0.00 (CLOSED)  0.00 (OPEN) 

 Number of closed-shell orbitals:    1 (   1   0   0   0   0   0   0   0 )



   Atom=BE basis=ECP2SDF_GUESS     lmin=0  lmax=0

 Orbital guess generated from atomic densities. Full valence occupancy:    1   0   0   0   0   0   0   0


 Molecular orbital dump at record        2100.2

 ITERATION    DDIFF          GRAD             ENERGY        2-EL.EN.            DIPOLE MOMENTS         DIIS   ORB.
    1      0.000D+00      0.000D+00        -0.96188619      0.686242    0.00000    0.00000    0.00000    0    start
    2      0.000D+00      0.566D-03        -0.96189249      0.686437    0.00000    0.00000    0.00000    1    diag
    3      0.460D-03      0.525D-04        -0.96189258      0.686476    0.00000    0.00000    0.00000    2    diag
    4      0.845D-04      0.250D-05        -0.96189258      0.686481    0.00000    0.00000    0.00000    3    diag
    5      0.116D-04      0.150D-06        -0.96189258      0.686481    0.00000    0.00000    0.00000    4    diag
    6      0.922D-06      0.148D-07        -0.96189258      0.686482    0.00000    0.00000    0.00000    0    orth

 Final occupancy:   1   0   0   0   0   0   0   0

 !RHF STATE 1.1 Energy                 -0.961892579928
 Nuclear energy                         0.00000000
 One-electron energy                   -1.30513335
 Two-electron energy                    0.34324077
 Virial quotient                       -3.05031412
 !RHF STATE 1.1 Dipole moment           0.00000000     0.00000000     0.00000000
 Dipole moment /Debye                   0.00000000     0.00000000     0.00000000
 

 !RHF expec          <1.1|EKIN|1.1>     0.315342139553
 
 !RHF expec           <1.1|POT|1.1>    -0.925397804916

 ELECTRON ORBITALS
 =================


   Orb  Occ    Energy  Couls-En    Coefficients

                                   1 1s      1 1s      1 1s      1 1s      1 1s      1 1s      1 1s      1 3d0     1 3d2+    1 3d0  
                                   1 3d2+    1 3d0     1 3d2+    1 3d0     1 3d2+    1 3d0     1 3d2+    1 3d0     1 3d2+    1 5g0  
                                   1 5g4+    1 5g2+    1 5g0     1 5g4+    1 5g2+    1 5g0     1 5g4+    1 5g2+    1 5g0     1 5g4+ 
                                   1 5g2+    1 7i6+    1 7i4+    1 7i2+    1 7i0     1 7i6+    1 7i4+    1 7i2+    1 7i0  

   1.1   2    -0.3093   -0.9619  1.000091  0.000020  0.000015 -0.000210  0.000348 -0.000477  0.000258 -0.000000  0.000000  0.000000
                                -0.000000 -0.000000  0.000000  0.000000 -0.000000 -0.000000  0.000000  0.000000 -0.000000 -0.000000
                                -0.000000 -0.000000  0.000000  0.000000  0.000000 -0.000000 -0.000000 -0.000000  0.000000  0.000000
                                 0.000000  0.000000 -0.000000 -0.000000  0.000000 -0.000000  0.000000  0.000000 -0.000000

 HOMO      1.1    -0.309326 =      -8.4172eV
 LUMO      2.1     0.024221 =       0.6591eV
 LUMO-HOMO         0.333547 =       9.0763eV


 **********************************************************************************************************************************
 DATASETS  * FILE   NREC   LENGTH (MB)   RECORD NAMES
              1      20       95.76       500      610      700      900      950      970     1000      129      960     1100   
                                          VAR    BASINP    GEOM    SYMINP    ZMAT    AOBASIS   BASIS     P2S    ABASIS      S 
                                         1400     1410     1420     1200     1210     1080     1600     1650     1300     1700   
                                         EKIN       V       ECP      H0       H01     AOSYM     SMH    MOLCAS    ERIS     OPER   

              2       4        2.88       700     1000      520     2100   
                                         GEOM     BASIS   MCVARS     RHF  

 PROGRAMS   *        TOTAL        HF       INT
 CPU TIMES  *         7.88      0.39      7.38
 REAL TIME  *        18.64 SEC
 DISK USED  *       301.30 MB      
 **********************************************************************************************************************************
 SETTING SCF(I)         =        -0.96189258  AU                              
 SETTING _CC_NORM_MAX   =         2.00000000                                  


 PROGRAM * CI (Multireference internally contracted CI)     Authors: H.-J. Werner, P.J. Knowles, 1987


 Convergence thresholds:  THRVAR = 1.00D-08  THRDEN = 1.00D-06

 Number of optimized states:  1  Roots:   1
 Number of reference states:  1  Roots:   1

 Reference symmetry:                   1   Singlet 
 Number of electrons:                  2
 Maximum number of shells:             2
 Maximum number of spin couplings:     1

 Reference space:        1 conf        1 CSFs
 N elec internal:        1 conf        1 CSFs
 N-1 el internal:        1 conf        1 CSFs
 N-2 el internal:        1 conf        1 CSFs

 Number of electrons in valence space:                      2
 Maximum number of open shell orbitals in reference space:  0
 Maximum number of open shell orbitals in internal spaces:  2


 Number of closed-shell orbitals:   1 (   1   0   0   0   0   0   0   0 )
 Number of external orbitals:     187 (  38  26  26  20  26  20  20  11 )

 Molecular orbitals read from record     2100.2  Type=RHF/CANONICAL (state 1.1)

 Integral transformation finished. Total CPU:   0.04 sec, npass=  1  Memory used:   0.10 MW

 Number of p-space configurations:   1

 Reference wavefunction optimized for reference space (refopt=1)

 State     Reference Energy 
   1          -0.96189258

 Number of blocks in overlap matrix:     1   Smallest eigenvalue:  0.10D+01
 Number of N-2 electron functions:       1
 Number of N-1 electron functions:       1

 Number of internal configurations:                    1
 Number of singly external configurations:            38
 Number of doubly external configurations:          2490
 Total number of contracted configurations:         2529
 Total number of uncontracted configurations:       2529

 Diagonal Coupling coefficients finished.               Storage:      54 words, CPU-Time:      0.00 seconds.
 Energy denominators for pairs finished in 1 passes.    Storage:   15141 words, CPU-time:      0.00 seconds.

  ITER. STATE  ROOT     SQ.NORM     CORR.ENERGY   TOTAL ENERGY   ENERGY CHANGE       DEN1      VAR(S)    VAR(P)      TIME
    1     1     1     1.00000000     0.00000000    -0.96189258    -0.00000000    -0.03635516  0.37D-14  0.41D-01     0.06
    2     1     1     1.05075022    -0.04024892    -1.00214150    -0.04024892    -0.00531302  0.68D-03  0.31D-02     0.11
    3     1     1     1.10021535    -0.04775141    -1.00964399    -0.00750249    -0.00036854  0.19D-04  0.18D-03     0.16
    4     1     1     1.10620739    -0.04822301    -1.01011559    -0.00047161    -0.00001495  0.13D-05  0.84D-05     0.22
    5     1     1     1.10676719    -0.04824248    -1.01013506    -0.00001947    -0.00000118  0.19D-06  0.51D-06     0.28
    6     1     1     1.10682260    -0.04824383    -1.01013641    -0.00000134    -0.00000009  0.28D-07  0.35D-07     0.33
    7     1     1     1.10683835    -0.04824394    -1.01013652    -0.00000011    -0.00000001  0.16D-08  0.37D-08     0.39


 =====================================
 Analysis of CPU times by interactions
 =====================================

       I      S      P

 I   0.0%
 S   0.0%   2.6%
 P   0.0%   0.0%   0.0%

 Initialization:  15.4%
 Other:           82.1%

 Total CPU:        0.4 seconds
 =====================================



 Reference coefficients greater than 0.0500000
 =============================================
 2           0.9505126

 Coefficients of doubly external configurations greater than 0.0500000
 =====================================================================

 PAIR    I     J   ->   K     L     NP  SYM  REF     COEFFICIENTS

   1    1.1   1.1      1.3   1.3     1   1    1   -0.10994173
   1    1.1   1.1      1.2   1.2     1   1    1   -0.10994173
   1    1.1   1.1      1.5   1.5     1   1    1   -0.10994173
   1    1.1   1.1      1.2   2.2     1   1    1    0.08106274
   1    1.1   1.1      1.3   2.3     1   1    1    0.08106274
   1    1.1   1.1      1.5   2.5     1   1    1    0.08106274
   1    1.1   1.1      2.2   2.2     1   1    1   -0.06129866
   1    1.1   1.1      2.3   2.3     1   1    1   -0.06129866
   1    1.1   1.1      2.5   2.5     1   1    1   -0.06129866



 RESULTS FOR STATE 1.1
 =====================

 Coefficient of reference function:   C(0) = 0.95051265 (fixed)   0.95051265 (relaxed)

 Energy contributions of configuration classes

 CLASS          SQ.NORM        ECORR1        ECORR2
 +++++++++++++++++++++++++++++++++++++++++++++++++++
 Internals    0.00000000    0.00000000    0.00000000
 Singles      0.00237874   -0.00000000   -0.00010429
 Pairs        0.10445961   -0.04824394   -0.04813964
 Total        1.10683835   -0.04824394   -0.04824394
 +++++++++++++++++++++++++++++++++++++++++++++++++++


 Reference energy                      -0.96189258
 Nuclear energy                         0.00000000
 Kinetic energy                         0.39876145
 One electron energy                   -1.28579850
 Two electron energy                    0.27566198
 Virial quotient                       -2.53318497
 Correlation energy                    -0.04824394
 !CI(SD) STATE 1.1 Energy              -1.010136516985

 Properties without orbital relaxation:

 !CI(SD) STATE 1.1 Dipole moment        0.00000000     0.00000000     0.00000000
 Dipole moment /Debye                   0.00000000     0.00000000     0.00000000

 Cluster corrected energies            -1.01013652 (Davidson, fixed reference)
 Cluster corrected energies            -1.01013652 (Davidson, relaxed reference)

 Cluster corrected energies            -1.01013652 (Pople, fixed reference)
 Cluster corrected energies            -1.01013652 (Pople, relaxed reference)

 

 !CI(SD) expec       <1.1|EKIN|1.1>     0.398761452145
 
 !CI(SD) expec        <1.1|POT|1.1>    -0.951200892184


 **********************************************************************************************************************************
 DATASETS  * FILE   NREC   LENGTH (MB)   RECORD NAMES
              1      21       95.91       500      610      700      900      950      970     1000      129      960     1100   
                                          VAR    BASINP    GEOM    SYMINP    ZMAT    AOBASIS   BASIS     P2S    ABASIS      S 
                                         1400     1410     1420     1200     1210     1080     1600     1650     1300     1700   
                                         EKIN       V       ECP      H0       H01     AOSYM     SMH    MOLCAS    ERIS     OPER   
                                         1380   
                                         JKOP   

              2       4        2.88       700     1000      520     2100   
                                         GEOM     BASIS   MCVARS     RHF  

 PROGRAMS   *        TOTAL        CI        HF       INT
 CPU TIMES  *         8.28      0.40      0.39      7.38
 REAL TIME  *        19.65 SEC
 DISK USED  *       301.30 MB      
 **********************************************************************************************************************************
 SETTING POSTHF(I)      =        -1.01013652  AU                              
                                                                                                                                                                                                                                                                

       SCF           POSTHF       EKIN          POT
    -0.96189258   -1.01013652   0.39876145   -0.95120089
                                                  

 CI/USERDEF energy=     -1.010136516985

        CI              HF-SCF  
     -1.01013652     -0.96189258
 **********************************************************************************************************************************
 Molpro calculation terminated
 Variable memory released
