
 Primary working directories    : /global/cscratch1/sd/aannabe
 Secondary working directories  : /global/cscratch1/sd/aannabe
 Wavefunction directory         : /global/homes/a/aannabe/wfu/
 Main file repository           : /global/cscratch1/sd/aannabe/

 SHA1      : 19cd028119e0e09f93f0674bd8af7968d9b3eff6
 NAME      : 2015.1.36
 ARCHNAME  : linux/x86_64
 FC        : /opt/cray/pe/craype/2.5.14/bin/ftn
 BLASLIB   : -L/opt/intel/compilers_and_libraries_2018.1.163/linux/mkl/lib/intel64 -Wl,-_start-group -lmkl_intel_ilp64 -lmkl_intel_thread -lmkl_core -Wl,-_end-group -liomp5
 id        : lbl

 Nodes     nprocs
 nid00459     1

 Using customized tuning parameters: mindgm=7; mindgv=16; mindgc=1; mindgr=1; noblas=0; minvec=7
 default implementation of scratch files=df  

 ***,Br
 memory,8,g
 gthresh,twoint=1.e-12
 
 gprint,basis,orbitals
 gexpec,ekin,pot
 
 angstrom
 geometry={
 1                                                                               ! Number of atoms
 Br 0.0 0.0 0.0
 }
 
 basis={
 
 Including file /global/homes/a/aannabe/repos/pseudopotentiallibrary/recipes/Br/ccECP/Br.ccECP.molpro
 
                                   !include,/global/homes/a/aannabe/repos/pseudopotentiallibrary/recipes/Br/ccECP/Br.cc-pVDZ.molpro
                                  !include,/global/homes/a/aannabe/repos/pseudopotentiallibrary/recipes/Br/ccECP/Br.cc-pCVDZ.molpro
 Including file /global/homes/a/aannabe/repos/pseudopotentiallibrary/recipes/Br/ccECP/Br.aug-cc-pVDZ.molpro
 
 
 }
 
 
 {rhf
  start,atden
  wf,7,3,1
  occ,1,1,1,0,1,0,0,0
  open,1.3
  orbital,4202.2
 }
 {multi
  maxiter,40
  start,4202.2
  occ,1,1,1,0,1,0,0,0
  closed,1,0,0,0,0,0,0
  wf,7,3,1;state,1
  wf,7,5,1;state,1
  wf,7,2,1;state,1
  natorb,ci,print
  orbital,5202.2
 }
 {rhf,nitord=1,maxit=0
  start,5202.2
  wf,7,3,1
  occ,1,1,1,0,1,0,0,0
  open,1.3
 }
 
 scf(i)=energy
 
 _CC_NORM_MAX=2.0
 {ci
 maxit,100
 core
 }
 posthf(i)=energy
 
 table,scf,posthf,ekin,pot
 save,2.csv,new
 
 

 Variables initialized (889), CPU time= 0.01 sec
 Commands  initialized (702), CPU time= 0.00 sec, 572 directives.
 Default parameters read. Elapsed time= 0.12 sec

 Checking input...
 Passed
1


                                         ***  PROGRAM SYSTEM MOLPRO  ***
                                       Copyright, TTI GmbH Stuttgart, 2015
                                    Version 2015.1 linked Dec 29 2018 15:55:43


 **********************************************************************************************************************************
 LABEL *   Br                                                                            
  64 bit serial version                                                                  DATE: 25-Jun-19          TIME: 12:14:43  
 **********************************************************************************************************************************

 SHA1:             19cd028119e0e09f93f0674bd8af7968d9b3eff6
 **********************************************************************************************************************************

 THRESHOLDS:

 ZERO    =  1.00D-12  ONEINT  =  1.00D-12  TWOINT  =  1.00D-12  PREFAC  =  1.00D-14  LOCALI  =  1.00D-09  EORDER  =  1.00D-04
 ENERGY  =  0.00D+00  ETEST   =  0.00D+00  EDENS   =  0.00D+00  THRDEDEF=  1.00D-06  GRADIENT=  1.00D-02  STEP    =  1.00D-03
 ORBITAL =  1.00D-05  CIVEC   =  1.00D-05  COEFF   =  1.00D-04  PRINTCI =  5.00D-02  PUNCHCI =  9.90D+01  OPTGRAD =  3.00D-04
 OPTENERG=  1.00D-06  OPTSTEP =  3.00D-04  THRGRAD =  1.00D-10  COMPRESS=  1.00D-11  VARMIN  =  1.00D-07  VARMAX  =  1.00D-03
 THRDOUB =  0.00D+00  THRDIV  =  1.00D-05  THRRED  =  1.00D-07  THRPSP  =  1.00D+00  THRDC   =  1.00D-10  THRCS   =  1.00D-10
 THRNRM  =  1.00D-08  THREQ   =  0.00D+00  THRDE   =  1.00D+00  THRREF  =  1.00D-05  SPARFAC =  1.00D+00  THRDLP  =  1.00D-07
 THRDIA  =  1.00D-10  THRDLS  =  1.00D-07  THRGPS  =  0.00D+00  THRKEX  =  0.00D+00  THRDIS  =  2.00D-01  THRVAR  =  1.00D-10
 THRLOC  =  1.00D-06  THRGAP  =  1.00D-06  THRLOCT = -1.00D+00  THRGAPT = -1.00D+00  THRORB  =  1.00D-06  THRMLTP =  0.00D+00
 THRCPQCI=  1.00D-10  KEXTA   =  0.00D+00  THRCOARS=  0.00D+00  SYMTOL  =  1.00D-06  GRADTOL =  1.00D-06  THROVL  =  1.00D-08
 THRORTH =  1.00D-08  GRID    =  1.00D-06  GRIDMAX =  1.00D-03  DTMAX   =  0.00D+00  THROCCDE=  1.00D-01  THROCCDE=  1.00D-01



 ZUNIT=ANG
 

Geometry recognized as XYZ


 Variable memory set to 8000000000 words,  buffer space   230000 words

 SETTING BASIS          =    USERDEF


 Recomputing integrals since basis changed


 Using spherical harmonics



 PROGRAM * SEWARD (Integral evaluation for generally contracted gaussian basis sets)     Author: Roland Lindh, 1990

 Geometry written to block  1 of record 700

 Orientation using atomic masses  
 Molecule type: Atom
 Symmetry elements: X,Y,Z
 Rotational constants:       0.0000000      0.0000000      0.0000000 GHz  (calculated with average atomic masses)

 Point group  D2h 



 ATOMIC COORDINATES

 NR  ATOM    CHARGE       X              Y              Z

   1  BR      7.00    0.000000000    0.000000000    0.000000000


          BR  CORE POTENTIAL

          f POTENTIAL

 POWERS             1              3              2              2
 EXPONENTIALS   3.665770       5.293023       3.176376       2.897544    
 COEFFICIENTS   7.000000       25.66039       13.04026      -21.90884    

          s - f POTENTIAL

 POWERS             2              2
 EXPONENTIALS   4.971807       2.042687    
 COEFFICIENTS   85.88435       4.621255    

          p - f POTENTIAL

 POWERS             2              2
 EXPONENTIALS   4.711839       2.384293    
 COEFFICIENTS   55.36172       11.03141    

          d - f POTENTIAL

 POWERS             2              2
 EXPONENTIALS   3.412863       1.530285    
 COEFFICIENTS   26.41041       5.468739    


 BASIS DATA

   Nr Sym  Nuc  Type         Exponents   Contraction coefficients

    1.1 Ag    1  1s          60.457695    -0.000452
                             27.422852     0.003372
                             12.438662    -0.025045
                              5.642021     0.170101
                              2.559150    -0.430992
                              1.160798    -0.154358
                              0.526524     0.525458
                              0.238824     0.592735
                              0.108328     0.169490
    2.1 Ag    1  1s           0.071724     1.000000
    3.1 Ag    1  1s           0.028690     1.000000
    4.1 Ag    1  3d0          0.416740     1.000000
    5.1 Ag    1  3d2+         0.416740     1.000000
    6.1 Ag    1  3d0          0.166696     1.000000
    7.1 Ag    1  3d2+         0.166696     1.000000
    1.2 B3u   1  2px         27.437987     0.000087
                             12.887440    -0.001797
                              6.053145     0.027150
                              2.843122    -0.134143
                              1.335395    -0.006234
                              0.627226     0.309551
                              0.294604     0.440285
                              0.138374     0.316750
                              0.064993     0.092533
    2.2 B3u   1  2px          0.126435     1.000000
    3.2 B3u   1  2px          0.050574     1.000000
    1.3 B2u   1  2py         27.437987     0.000087
                             12.887440    -0.001797
                              6.053145     0.027150
                              2.843122    -0.134143
                              1.335395    -0.006234
                              0.627226     0.309551
                              0.294604     0.440285
                              0.138374     0.316750
                              0.064993     0.092533
    2.3 B2u   1  2py          0.126435     1.000000
    3.3 B2u   1  2py          0.050574     1.000000
    1.4 B1g   1  3d2-         0.416740     1.000000
    2.4 B1g   1  3d2-         0.166696     1.000000
    1.5 B1u   1  2pz         27.437987     0.000087
                             12.887440    -0.001797
                              6.053145     0.027150
                              2.843122    -0.134143
                              1.335395    -0.006234
                              0.627226     0.309551
                              0.294604     0.440285
                              0.138374     0.316750
                              0.064993     0.092533
    2.5 B1u   1  2pz          0.126435     1.000000
    3.5 B1u   1  2pz          0.050574     1.000000
    1.6 B2g   1  3d1+         0.416740     1.000000
    2.6 B2g   1  3d1+         0.166696     1.000000
    1.7 B3g   1  3d1-         0.416740     1.000000
    2.7 B3g   1  3d1-         0.166696     1.000000

 NUCLEAR CHARGE:                    7
 NUMBER OF PRIMITIVE AOS:          56
 NUMBER OF SYMMETRY AOS:           54
 NUMBER OF CONTRACTIONS:           22   (   7Ag  +   3B3u +   3B2u +   2B1g +   3B1u +   2B2g +   2B3g +   0Au  )
 NUMBER OF CORE ORBITALS:           0   (   0Ag  +   0B3u +   0B2u +   0B1g +   0B1u +   0B2g +   0B3g +   0Au  )
 NUMBER OF VALENCE ORBITALS:        4   (   1Ag  +   1B3u +   1B2u +   0B1g +   1B1u +   0B2g +   0B3g +   0Au  )


 NUCLEAR REPULSION ENERGY    0.00000000

 EXTRA SYMMETRY OF AOS IN SYMMETRY 1:   1 1 1 2 3 2 3

 Eigenvalues of metric

         1 0.606E-01 0.299E+00 0.299E+00 0.495E+00 0.170E+01 0.170E+01 0.244E+01
         2 0.642E-01 0.442E+00 0.249E+01
         3 0.642E-01 0.442E+00 0.249E+01
         4 0.299E+00 0.170E+01
         5 0.642E-01 0.442E+00 0.249E+01
         6 0.299E+00 0.170E+01
         7 0.299E+00 0.170E+01


 Contracted 2-electron integrals neglected if value below      1.0D-12
 AO integral compression algorithm  1   Integral accuracy      1.0D-12

     0.262 MB (compressed) written to integral file (100.0%)


 NUMBER OF SORTED TWO-ELECTRON INTEGRALS:       5272.     BUFFER LENGTH:  32768
 NUMBER OF SEGMENTS:   1  SEGMENT LENGTH:       5272      RECORD LENGTH: 524288

 Memory used in sort:       0.56 MW

 SORT1 READ       12220. AND WROTE        4734. INTEGRALS IN      1 RECORDS. CPU TIME:     0.00 SEC, REAL TIME:     0.01 SEC
 SORT2 READ        4734. AND WROTE        5272. INTEGRALS IN      1 RECORDS. CPU TIME:     0.00 SEC, REAL TIME:     0.00 SEC

 FILE SIZES:   FILE 1:    20.1 MBYTE,  FILE 4:     4.2 MBYTE,   TOTAL:     24.4 MBYTE

 OPERATOR DM      FOR CENTER  0  COORDINATES:    0.000000    0.000000    0.000000
 OPERATOR EKIN    FOR CENTER  0  COORDINATES:    0.000000    0.000000    0.000000
 OPERATOR POT     FOR CENTER  0  COORDINATES:    0.000000    0.000000    0.000000


 **********************************************************************************************************************************
 DATASETS  * FILE   NREC   LENGTH (MB)   RECORD NAMES
              1      20       19.92       500      610      700      900      950      970     1000      129      960     1100   
                                          VAR    BASINP    GEOM    SYMINP    ZMAT    AOBASIS   BASIS     P2S    ABASIS      S 
                                         1400     1410     1420     1200     1210     1080     1600     1650     1300     1700   
                                         EKIN       V       ECP      H0       H01     AOSYM     SMH    MOLCAS    ERIS     OPER   

 PROGRAMS   *        TOTAL       INT
 CPU TIMES  *         1.91      1.79
 REAL TIME  *        12.44 SEC
 DISK USED  *        24.63 MB      
 **********************************************************************************************************************************


 PROGRAM * RHF-SCF (OPEN SHELL)       Authors: W. Meyer, H.-J. Werner


 NUMBER OF ELECTRONS:       4+    3-    SPACE SYMMETRY=3    SPIN SYMMETRY: Doublet 
 CONVERGENCE THRESHOLDS:    1.00E-05 (Density)    1.00E-07 (Energy)
 MAX. NUMBER OF ITERATIONS:       60
 INTERPOLATION TYPE:            DIIS
 INTERPOLATION STEPS:              2 (START)      1 (STEP)
 LEVEL SHIFTS:                 -0.60 (CLOSED) -0.30 (OPEN) 


 Singly occupied orbitals:      1.3

   Atom=BR basis=ECP28MDF_GUESS    lmin=0  lmax=1

 Orbital guess generated from atomic densities. Full valence occupancy:    1   1   1   0   1   0   0   0


 Molecular orbital dump at record        4202.2

 ITERATION    DDIFF          GRAD             ENERGY        2-EL.EN.            DIPOLE MOMENTS         DIIS   ORB.
    1      0.000D+00      0.000D+00       -13.11864098     17.435089    0.00000    0.00000    0.00000    0    start
    2      0.000D+00      0.602D-02       -13.11987941     17.525956    0.00000    0.00000    0.00000    1    diag,B
    3      0.136D-01      0.214D-02       -13.12013032     17.567440    0.00000    0.00000    0.00000    2    diag,B
    4      0.599D-02      0.605D-03       -13.12015365     17.572701    0.00000    0.00000    0.00000    3    diag,B
    5      0.216D-02      0.857D-04       -13.12015396     17.573027    0.00000    0.00000    0.00000    4    diag,B
    6      0.358D-03      0.836D-05       -13.12015396     17.573162    0.00000    0.00000    0.00000    5    diag,B
    7      0.260D-04      0.189D-05       -13.12015396     17.573140    0.00000    0.00000    0.00000    6    fixocc
    8      0.530D-05      0.354D-06       -13.12015396     17.573144    0.00000    0.00000    0.00000    0    orth

 Final alpha occupancy:   1   1   1   0   1   0   0
 Final beta  occupancy:   1   1   0   0   1   0   0

 !RHF STATE 1.3 Energy                -13.120153961375
 Nuclear energy                         0.00000000
 One-electron energy                  -21.90672581
 Two-electron energy                    8.78657185
 Virial quotient                       -2.85121774
 !RHF STATE 1.3 Dipole moment           0.00000000     0.00000000     0.00000000
 Dipole moment /Debye                   0.00000000     0.00000000     0.00000000
 

 !RHF expec          <1.3|EKIN|1.3>     4.601596641501
 
 !RHF expec           <1.3|POT|1.3>    -4.024968727348

 ELECTRON ORBITALS
 =================


   Orb  Occ    Energy  Couls-En    Coefficients

                                   1 1s      1 1s      1 1s      1 3d0     1 3d2+    1 3d0     1 3d2+ 

   1.1   2    -1.0198   -4.6425  1.000153 -0.001106  0.001376 -0.000404 -0.000700  0.002988  0.005175

                                   1 2px     1 2px     1 2px  

   1.2   2    -0.4440   -3.3704  1.000077 -0.000317  0.000360

                                   1 2py     1 2py     1 2py  

   1.3   +    -0.5180   -3.4738  1.042701 -0.031193 -0.027624

                                   1 2pz     1 2pz     1 2pz  

   1.5   2    -0.4440   -3.3704  1.000077 -0.000317  0.000360

 HOMO      1.2    -0.444013 =     -12.0822eV
 LUMO      2.1     0.049355 =       1.3430eV
 LUMO-HOMO         0.493368 =      13.4252eV


 **********************************************************************************************************************************
 DATASETS  * FILE   NREC   LENGTH (MB)   RECORD NAMES
              1      20       19.92       500      610      700      900      950      970     1000      129      960     1100   
                                          VAR    BASINP    GEOM    SYMINP    ZMAT    AOBASIS   BASIS     P2S    ABASIS      S 
                                         1400     1410     1420     1200     1210     1080     1600     1650     1300     1700   
                                         EKIN       V       ECP      H0       H01     AOSYM     SMH    MOLCAS    ERIS     OPER   

              2       4        2.75       700     1000      520     4202   
                                         GEOM     BASIS   MCVARS     RHF  

 PROGRAMS   *        TOTAL       RHF       INT
 CPU TIMES  *         1.95      0.04      1.79
 REAL TIME  *        12.61 SEC
 DISK USED  *        24.63 MB      
 **********************************************************************************************************************************


 PROGRAM * MULTI (Direct Multiconfiguration SCF)       Authors: P.J. Knowles, H.-J. Werner (1984)     S.T. Elbert (1988)


 Number of closed-shell orbitals:   1 (   1   0   0   0   0   0   0   0 )
 Number of active  orbitals:        3 (   0   1   1   0   1   0   0   0 )
 Number of external orbitals:      18 (   6   2   2   2   2   2   2   0 )

 State symmetry 1

 Number of electrons:     5    Spin symmetry=Doublet   Space symmetry=3
 Number of states:        1
 Number of CSFs:          1   (1 determinants, 3 intermediate states)

 State symmetry 2

 Number of electrons:     5    Spin symmetry=Doublet   Space symmetry=5
 Number of states:        1
 Number of CSFs:          1   (1 determinants, 3 intermediate states)

 State symmetry 3

 Number of electrons:     5    Spin symmetry=Doublet   Space symmetry=2
 Number of states:        1
 Number of CSFs:          1   (1 determinants, 3 intermediate states)

 Iteration controls:
             1  2  3  4  5  6  7  8  9 10 11 12 13 14 15 16 17 18 19 20 21 22 23 24 25 26 27 28 29 30 31 32 33 34 35 36 37 38 39
 DIAGCI      T  T  T  T  T  T  T  T  T  T  T  T  T  T  T  T  T  T  T  T  T  T  T  T  T  T  T  T  T  T  T  T  T  T  T  T  T  T  T
 WERNER      T  T  T  T  T  T  T  T  T  T  T  T  T  T  T  T  T  T  T  T  T  T  T  T  T  T  T  T  T  T  T  T  T  T  T  T  T  T  T
 INTERNAL    F  T  T  T  T  T  T  T  T  T  T  T  T  T  T  T  T  T  T  T  T  T  T  T  T  T  T  T  T  T  T  T  T  T  T  T  T  T  T

 Molecular orbitals read from record     4202.2  Type=RHF/CANONICAL (state 1.3)
 *** IN SYMMETRY 1 ORBITAL  1 SYMMETRY CONTAMINATION OF 0.916D-02 HAS BEEN REMOVED

 EXTRA SYMMETRY OF MOS IN SYMMETRY 1:   1 1 3 2 3 2 1

 Wavefunction dump at record             5202.2

 Convergence thresholds  0.10E-01 (gradient)  0.10E-05 (energy)  0.10E-02 (step length)

 Weight factors for state symmetry  1:    0.33333
 Weight factors for state symmetry  2:    0.33333
 Weight factors for state symmetry  3:    0.33333

 Number of orbital rotations:       12   (     0 Core/Active      6 Core/Virtual   0 Active/Active      6 Active/Virtual)
 Total number of variables:         15


 ITER. MIC  NCI  NEG     ENERGY(VAR)     ENERGY(PROJ)   ENERGY CHANGE     GRAD(0)  GRAD(ORB)   GRAD(CI)     STEP       TIME

   1   21   12    0     -13.11886081     -13.11960912   -0.00074831    0.02804337 0.00000000 0.00000000  0.29D-01      0.01
   2   12   12    0     -13.11960932     -13.11960933   -0.00000000    0.00008221 0.00000000 0.00000000  0.60D-04      0.03

 ** WVFN ****  CONVERGENCE REACHED, FINAL GRADIENT:  0.11D-08



 Results for state 1.3
 =====================

 !MCSCF STATE 1.3 Energy              -13.119609325441
 Nuclear energy                         0.00000000
 Kinetic energy                         4.60151346
 One electron energy                  -21.90839799
 Two electron energy                    8.78878866
 Virial ratio                           3.85115092

 !MCSCF STATE 1.3 Dipole moment         0.00000000     0.00000000     0.00000000
 Dipole moment /Debye                   0.00000000     0.00000000     0.00000000



 Results for state 1.5
 =====================

 !MCSCF STATE 1.5 Energy              -13.119609325441
 Nuclear energy                         0.00000000
 Kinetic energy                         4.60151346
 One electron energy                  -21.90839799
 Two electron energy                    8.78878866
 Virial ratio                           3.85115092

 !MCSCF STATE 1.5 Dipole moment         0.00000000     0.00000000     0.00000000
 Dipole moment /Debye                   0.00000000     0.00000000     0.00000000



 Results for state 1.2
 =====================

 !MCSCF STATE 1.2 Energy              -13.119609325441
 Nuclear energy                         0.00000000
 Kinetic energy                         4.60151346
 One electron energy                  -21.90839799
 Two electron energy                    8.78878866
 Virial ratio                           3.85115092

 !MCSCF STATE 1.2 Dipole moment         0.00000000     0.00000000     0.00000000
 Dipole moment /Debye                   0.00000000     0.00000000     0.00000000

 State-averaged charge density matrix saved on record  5202.2 (density set 1)

 !MCSCF expec        <1.3|EKIN|1.3>     4.601513458586
 !MCSCF expec        <1.5|EKIN|1.5>     4.601513458592
 !MCSCF expec        <1.2|EKIN|1.2>     4.601513458592

 !MCSCF expec         <1.3|POT|1.3>    -4.025214869492
 !MCSCF expec         <1.5|POT|1.5>    -4.025214869494
 !MCSCF expec         <1.2|POT|1.2>    -4.025214869494


 NATURAL ORBITALS (state averaged)
 =================================

   Orb     Occ        Energy       Coefficients

                                   1 1s      1 1s      1 1s      1 3d0     1 3d2+    1 3d0     1 3d2+ 

   1.1  2.00000    -1.019559     1.000102 -0.001008  0.001355  0.000000  0.000000  0.000000  0.000000

                                   1 2px     1 2px     1 2px  

   1.2  1.66667    -0.389895     1.008407 -0.005721 -0.005931

                                   1 2py     1 2py     1 2py  

   1.3  1.66667    -0.389895     1.008407 -0.005721 -0.005931

                                   1 2pz     1 2pz     1 2pz  

   1.5  1.66667    -0.389895     1.008407 -0.005721 -0.005931
 

 EXTRA SYMMETRY OF MOS IN SYMMETRY 1:   1 1 2 3 3 2 1

 Natural orbital dump (state averaged) at molpro section  5202.2    (Orbital set 2)


 CI vector for state symmetry 1
 ==============================

 2 a 2           1.0000000

 TOTAL ENERGIES                       -13.11960933

 CI vector for state symmetry 2
 ==============================

 2 2 a           1.0000000

 TOTAL ENERGIES                       -13.11960933

 CI vector for state symmetry 3
 ==============================

 a 2 2           1.0000000

 TOTAL ENERGIES                       -13.11960933



 **********************************************************************************************************************************
 DATASETS  * FILE   NREC   LENGTH (MB)   RECORD NAMES
              1      21       19.93       500      610      700      900      950      970     1000      129      960     1100   
                                          VAR    BASINP    GEOM    SYMINP    ZMAT    AOBASIS   BASIS     P2S    ABASIS      S 
                                         1400     1410     1420     1200     1210     1080     1600     1650     1300     1700   
                                         EKIN       V       ECP      H0       H01     AOSYM     SMH    MOLCAS    ERIS     OPER   
                                         1380   
                                         JKOP   

              2       5        5.24       700     1000      520     4202     5202   
                                         GEOM     BASIS   MCVARS     RHF     MCSCF   

 PROGRAMS   *        TOTAL     MULTI       RHF       INT
 CPU TIMES  *         1.99      0.04      0.04      1.79
 REAL TIME  *        13.95 SEC
 DISK USED  *        34.31 MB      
 **********************************************************************************************************************************


 PROGRAM * RHF-SCF (OPEN SHELL)       Authors: W. Meyer, H.-J. Werner


 NUMBER OF ELECTRONS:       4+    3-    SPACE SYMMETRY=3    SPIN SYMMETRY: Doublet 
 CONVERGENCE THRESHOLDS:    1.00E-05 (Density)    1.00E-07 (Energy)
 MAX. NUMBER OF ITERATIONS:        0
 INTERPOLATION TYPE:            DIIS
 INTERPOLATION STEPS:              2 (START)      1 (STEP)
 LEVEL SHIFTS:                 -0.60 (CLOSED) -0.30 (OPEN) 


 Singly occupied orbitals:      1.3
 Molecular orbitals read from record     5202.2  Type=MCSCF/NATURAL (state averaged)

 Molecular orbital dump at record        2101.2

 ITERATION    DDIFF          GRAD             ENERGY        2-EL.EN.            DIPOLE MOMENTS         DIIS   ORB.
    1      0.000D+00      0.000D+00       -13.11960933     17.577577    0.00000    0.00000    0.00000    0    start

 Final alpha occupancy:   1   1   1   0   1   0   0
 Final beta  occupancy:   1   1   0   0   1   0   0

 !RHF STATE 1.3 Energy                -13.119609325441
 Nuclear energy                         0.00000000
 One-electron energy                  -21.90839799
 Two-electron energy                    8.78878866
 Virial quotient                       -2.85115092
 !RHF STATE 1.3 Dipole moment           0.00000000     0.00000000     0.00000000
 Dipole moment /Debye                   0.00000000     0.00000000     0.00000000
 

 !RHF expec          <1.3|EKIN|1.3>     4.601513458586
 
 !RHF expec           <1.3|POT|1.3>    -4.025214869492

 ELECTRON ORBITALS
 =================


   Orb  Occ    Energy  Couls-En    Coefficients

                                   1 1s      1 1s      1 1s      1 3d0     1 3d2+    1 3d0     1 3d2+ 

   1.1   2    -1.0196   -4.6423  1.000102 -0.001008  0.001355  0.000000  0.000000  0.000000  0.000000

                                   1 2px     1 2px     1 2px  

   1.2   2    -0.3899   -3.3225  1.008407 -0.005721 -0.005931

                                   1 2py     1 2py     1 2py  

   1.3   +    -0.3899   -3.3225  1.008407 -0.005721 -0.005931

                                   1 2pz     1 2pz     1 2pz  

   1.5   2    -0.3899   -3.3225  1.008407 -0.005721 -0.005931

 HOMO      1.2    -0.389895 =     -10.6096eV
 LUMO      2.1     0.050716 =       1.3801eV
 LUMO-HOMO         0.440611 =      11.9896eV


 **********************************************************************************************************************************
 DATASETS  * FILE   NREC   LENGTH (MB)   RECORD NAMES
              1      21       19.93       500      610      700      900      950      970     1000      129      960     1100   
                                          VAR    BASINP    GEOM    SYMINP    ZMAT    AOBASIS   BASIS     P2S    ABASIS      S 
                                         1400     1410     1420     1200     1210     1080     1600     1650     1300     1700   
                                         EKIN       V       ECP      H0       H01     AOSYM     SMH    MOLCAS    ERIS     OPER   
                                         1380   
                                         JKOP   

              2       6        7.74       700     1000      520     4202     5202     2101   
                                         GEOM     BASIS   MCVARS     RHF     MCSCF     RHF  

 PROGRAMS   *        TOTAL       RHF     MULTI       RHF       INT
 CPU TIMES  *         2.01      0.02      0.04      0.04      1.79
 REAL TIME  *        14.04 SEC
 DISK USED  *        34.31 MB      
 **********************************************************************************************************************************
 SETTING SCF(I)         =       -13.11960933  AU                              
 SETTING _CC_NORM_MAX   =         2.00000000                                  


 PROGRAM * CI (Multireference internally contracted CI)     Authors: H.-J. Werner, P.J. Knowles, 1987


 Convergence thresholds:  THRVAR = 1.00D-08  THRDEN = 1.00D-06

 Number of optimized states:  1  Roots:   1
 Number of reference states:  1  Roots:   1

 Reference symmetry:                   3   Doublet 
 Number of electrons:                  7
 Maximum number of shells:             3
 Maximum number of spin couplings:     5

 Reference space:        1 conf        1 CSFs
 N elec internal:        4 conf        4 CSFs
 N-1 el internal:       10 conf       16 CSFs
 N-2 el internal:        9 conf       27 CSFs

 Number of electrons in valence space:                      7
 Maximum number of open shell orbitals in reference space:  1
 Maximum number of open shell orbitals in internal spaces:  5


 Number of closed-shell orbitals:   3 (   1   1   0   0   1   0   0 )
 Number of active  orbitals:        1 (   0   0   1   0   0   0   0 )
 Number of external orbitals:      18 (   6   2   2   2   2   2   2 )

 Molecular orbitals read from record     2101.2  Type=RHF/CANONICAL (state 1.3)

 Coulomb and exchange operators available. No transformation done.

 Number of p-space configurations:   1

 Reference wavefunction optimized for reference space (refopt=1)

 State     Reference Energy 
   1         -13.11960933

 Number of blocks in overlap matrix:    15   Smallest eigenvalue:  0.10D+01
 Number of N-2 electron functions:      15
 Number of N-1 electron functions:      16

 Number of internal configurations:                    1
 Number of singly external configurations:            36
 Number of doubly external configurations:           357
 Total number of contracted configurations:          394
 Total number of uncontracted configurations:        637

 Diagonal Coupling coefficients finished.               Storage:     982 words, CPU-Time:      0.00 seconds.
 Energy denominators for pairs finished in 1 passes.    Storage:    1129 words, CPU-time:      0.00 seconds.

  ITER. STATE  ROOT     SQ.NORM     CORR.ENERGY   TOTAL ENERGY   ENERGY CHANGE       DEN1      VAR(S)    VAR(P)      TIME
    1     1     1     1.00000000     0.00000000   -13.11960933    -0.00000000    -0.11862189  0.14D-01  0.47D-01     0.01
    2     1     1     1.05221716    -0.10949259   -13.22910191    -0.10949259    -0.00139126  0.41D-03  0.32D-03     0.01
    3     1     1     1.05379028    -0.11109464   -13.23070397    -0.00160206    -0.00004091  0.17D-04  0.11D-04     0.01
    4     1     1     1.05432165    -0.11114329   -13.23075262    -0.00004865    -0.00000103  0.36D-06  0.31D-06     0.02
    5     1     1     1.05437279    -0.11114455   -13.23075388    -0.00000126    -0.00000003  0.97D-08  0.10D-07     0.03
    6     1     1     1.05437681    -0.11114459   -13.23075392    -0.00000004    -0.00000000  0.80D-09  0.40D-09     0.03


 =====================================
 Analysis of CPU times by interactions
 =====================================

       I      S      P

 I  33.3%
 S   0.0%   0.0%
 P   0.0%  33.3%   0.0%

 Initialization:  33.3%
 Other:            0.0%

 Total CPU:        0.0 seconds
 =====================================



 Reference coefficients greater than 0.0500000
 =============================================
 22/2           0.9738724



 RESULTS FOR STATE 1.3
 =====================

 Coefficient of reference function:   C(0) = 0.97387244 (fixed)   0.97387244 (relaxed)

 Energy contributions of configuration classes

 CLASS          SQ.NORM        ECORR1        ECORR2
 +++++++++++++++++++++++++++++++++++++++++++++++++++
 Internals    0.00000000    0.00000000    0.00000000
 Singles      0.01208130   -0.01968933   -0.01994861
 Pairs        0.04229551   -0.09145527   -0.09119599
 Total        1.05437681   -0.11114459   -0.11114459
 +++++++++++++++++++++++++++++++++++++++++++++++++++


 Reference energy                     -13.11960933
 Nuclear energy                         0.00000000
 Kinetic energy                         4.64604657
 One electron energy                  -21.80844861
 Two electron energy                    8.57769469
 Virial quotient                       -2.84774458
 Correlation energy                    -0.11114459
 !CI(SD) STATE 1.3 Energy             -13.230753919132

 Properties without orbital relaxation:

 !CI(SD) STATE 1.3 Dipole moment        0.00000000     0.00000000     0.00000000
 Dipole moment /Debye                   0.00000000     0.00000000     0.00000000

 Cluster corrected energies           -13.23679761 (Davidson, fixed reference)
 Cluster corrected energies           -13.23679761 (Davidson, relaxed reference)

 Cluster corrected energies           -13.23485463 (Pople, fixed reference)
 Cluster corrected energies           -13.23485463 (Pople, relaxed reference)

 

 !CI(SD) expec       <1.3|EKIN|1.3>     4.646046568998
 
 !CI(SD) expec        <1.3|POT|1.3>    -4.016107832106


 **********************************************************************************************************************************
 DATASETS  * FILE   NREC   LENGTH (MB)   RECORD NAMES
              1      21       19.93       500      610      700      900      950      970     1000      129      960     1100   
                                          VAR    BASINP    GEOM    SYMINP    ZMAT    AOBASIS   BASIS     P2S    ABASIS      S 
                                         1400     1410     1420     1200     1210     1080     1600     1650     1300     1700   
                                         EKIN       V       ECP      H0       H01     AOSYM     SMH    MOLCAS    ERIS     OPER   
                                         1380   
                                         JKOP   

              2       6        7.74       700     1000      520     4202     5202     2101   
                                         GEOM     BASIS   MCVARS     RHF     MCSCF     RHF  

 PROGRAMS   *        TOTAL        CI       RHF     MULTI       RHF       INT
 CPU TIMES  *         2.07      0.06      0.02      0.04      0.04      1.79
 REAL TIME  *        14.42 SEC
 DISK USED  *        34.31 MB      
 **********************************************************************************************************************************
 SETTING POSTHF(I)      =       -13.23075392  AU                              
                                                                                                                                                                                                                                                                

        SCF            POSTHF       EKIN          POT
    -13.11960933   -13.23075392   4.64604657   -4.01610783
                                                  

 CI/USERDEF energy=    -13.230753919132

        CI              RHF-SCF         MULTI           RHF-SCF 
    -13.23075392    -13.11960933    -13.11960933    -13.12015396
 **********************************************************************************************************************************
 Molpro calculation terminated
 Variable memory released
