
 Primary working directories    : /global/cscratch1/sd/aannabe
 Secondary working directories  : /global/cscratch1/sd/aannabe
 Wavefunction directory         : /global/homes/a/aannabe/wfu/
 Main file repository           : /global/cscratch1/sd/aannabe/

 SHA1      : 2873118e99aab1bc19f5b6fc1784693c06d15c95
 NAME      : 2015.1.8
 ARCHNAME  : linux/x86_64
 FC        : /opt/cray/pe/craype/2.5.5/bin/ftn
 BLASLIB   : -Wl,-_start-group /opt/intel/compilers_and_libraries_2016.3.210/linux/mkl/lib/intel64/libmkl_intel_ilp64.a /opt/intel/compilers_and_libraries_2016.3.210/linux/mkl/lib/intel64/libmkl_intel_thread.a /opt/intel/compilers_and_libraries_2016.3.210/linux/mkl/lib/intel64/libmkl_core.a -Wl,-_end-group
 id        : lbl

 Nodes     nprocs
 nid00504     1

 Using customized tuning parameters: mindgm=8; mindgv=16; mindgc=4; mindgr=1; noblas=0; minvec=7
 default implementation of scratch files=df  

 ***,V
 memory,512,m
 gthresh,twoint=1.e-12
 
 gprint,basis,orbitals
 gexpec,ekin,pot
 
 angstrom
 geometry={
 1                                                                               ! Number of atoms
 V 0.0 0.0 0.0
 }
 
 basis={
 Including file /global/homes/a/aannabe/docs/accurate/ccECP_Kh/pps/V.pp
                                               !include,/global/homes/a/aannabe/docs/accurate/ccECP_Kh/basis/aug-cc-pVnZ/V_5z.basis
 Including file /global/homes/a/aannabe/docs/accurate/ccECP_Kh/basis/cc-pVnZ/V_5z.basis
 }
 
 {rhf
  start,atden
  wf,13,6,3
  occ,4,1,1,0,1,1,0,0
  open,3.1,4.1,1.6
  sym,1,1,1
  orbital,4202.2
 }
 {multi
  start,4202.2
  occ,4,1,1,1,1,1,1,0
  closed,2,1,1,0,1,0,0
  wf,13,1,3;state,1
  wf,13,4,3;state,3
  wf,13,6,3;state,3
  wf,13,7,3;state,3
  natorb,ci,print
  orbital,5202.2
 }
 {rhf,nitord=1,maxit=0
  start,5202.2
  wf,13,1,3
  occ,2,1,1,1,1,1,1,0
  open,1.4,1.6,1.7
 }
 
 scf(i)=energy
 
 _CC_NORM_MAX=2.0
 {uccsd(t)
 maxit,100
 core
 }
 posthf(i)=energy
 
 table,scf,posthf,ekin,pot
 save,5.csv,new
 
 

 Variables initialized (889), CPU time= 0.01 sec
 Commands  initialized (702), CPU time= 0.01 sec, 572 directives.
 Default parameters read. Elapsed time= 0.24 sec

 Checking input...
 Passed
1


                                         ***  PROGRAM SYSTEM MOLPRO  ***
                                       Copyright, TTI GmbH Stuttgart, 2015
                                    Version 2015.1 linked Sep  7 2016 23:09:38


 **********************************************************************************************************************************
 LABEL *   V                                                                             
  64 bit serial version                                                                  DATE: 13-Nov-18          TIME: 22:20:50  
 **********************************************************************************************************************************

 SHA1:             2873118e99aab1bc19f5b6fc1784693c06d15c95
 **********************************************************************************************************************************

 THRESHOLDS:

 ZERO    =  1.00D-12  ONEINT  =  1.00D-12  TWOINT  =  1.00D-12  PREFAC  =  1.00D-14  LOCALI  =  1.00D-09  EORDER  =  1.00D-04
 ENERGY  =  0.00D+00  ETEST   =  0.00D+00  EDENS   =  0.00D+00  THRDEDEF=  1.00D-06  GRADIENT=  1.00D-02  STEP    =  1.00D-03
 ORBITAL =  1.00D-05  CIVEC   =  1.00D-05  COEFF   =  1.00D-04  PRINTCI =  5.00D-02  PUNCHCI =  9.90D+01  OPTGRAD =  3.00D-04
 OPTENERG=  1.00D-06  OPTSTEP =  3.00D-04  THRGRAD =  1.00D-10  COMPRESS=  1.00D-11  VARMIN  =  1.00D-07  VARMAX  =  1.00D-03
 THRDOUB =  0.00D+00  THRDIV  =  1.00D-05  THRRED  =  1.00D-07  THRPSP  =  1.00D+00  THRDC   =  1.00D-10  THRCS   =  1.00D-10
 THRNRM  =  1.00D-08  THREQ   =  0.00D+00  THRDE   =  1.00D+00  THRREF  =  1.00D-05  SPARFAC =  1.00D+00  THRDLP  =  1.00D-07
 THRDIA  =  1.00D-10  THRDLS  =  1.00D-07  THRGPS  =  0.00D+00  THRKEX  =  0.00D+00  THRDIS  =  2.00D-01  THRVAR  =  1.00D-10
 THRLOC  =  1.00D-06  THRGAP  =  1.00D-06  THRLOCT = -1.00D+00  THRGAPT = -1.00D+00  THRORB  =  1.00D-06  THRMLTP =  0.00D+00
 THRCPQCI=  1.00D-10  KEXTA   =  0.00D+00  THRCOARS=  0.00D+00  SYMTOL  =  1.00D-06  GRADTOL =  1.00D-06  THROVL  =  1.00D-08
 THRORTH =  1.00D-08  GRID    =  1.00D-06  GRIDMAX =  1.00D-03  DTMAX   =  0.00D+00  THROCCDE=  1.00D-01  THROCCDE=  1.00D-01



 ZUNIT=ANG
 

Geometry recognized as XYZ


 Variable memory set to  512000000 words,  buffer space   230000 words

 SETTING BASIS          =    USERDEF


 Recomputing integrals since basis changed


 Using spherical harmonics



 PROGRAM * SEWARD (Integral evaluation for generally contracted gaussian basis sets)     Author: Roland Lindh, 1990

 Geometry written to block  1 of record 700

 Orientation using atomic masses  
 Molecule type: Atom
 Symmetry elements: X,Y,Z
 Rotational constants:       0.0000000      0.0000000      0.0000000 GHz  (calculated with average atomic masses)

 Point group  D2h 



 ATOMIC COORDINATES

 NR  ATOM    CHARGE       X              Y              Z

   1  V      13.00    0.000000000    0.000000000    0.000000000


          V   CORE POTENTIAL

          d POTENTIAL

 POWERS             1              3              2              2
 EXPONENTIALS   20.32169       19.59698       17.33147       5.123207    
 COEFFICIENTS   13.00000       264.1820      -115.2929     -0.6628873    

          s - d POTENTIAL

 POWERS             2              2
 EXPONENTIALS   15.12502       6.298989    
 COEFFICIENTS   195.5671       22.88643    

          p - d POTENTIAL

 POWERS             2              2
 EXPONENTIALS   15.93855       5.740063    
 COEFFICIENTS   126.4212       16.03597    


 BASIS DATA

   Nr Sym  Nuc  Type         Exponents   Contraction coefficients

    1.1 Ag    1  1s          68.577621     0.000804   -0.000177   -0.000583   -0.000765   -0.003567   -0.003495
                                           0.000000
    2.1 Ag                   34.937147    -0.011594    0.002791    0.009570    0.014529    0.010007    0.000425
                                           0.000000
    3.1 Ag                   17.939491     0.092209   -0.023650   -0.085606   -0.139618    0.040202    0.173641
                                           0.000000
    4.1 Ag                   11.262123    -0.045477    0.012504    0.048426    0.063073    0.343295    0.270676
                                           0.000000
    5.1 Ag                    6.776264    -0.287983    0.078761    0.331239    0.704193   -2.097022   -3.729614
                                           0.000000
    6.1 Ag                    3.524091    -0.217648    0.054974    0.140352   -0.011602    2.804039    9.160519
                                           0.000000
    7.1 Ag                    1.938421     0.407509   -0.118955   -0.907962   -2.311604    1.206638   -7.572293
                                           0.000000
                              0.927153     0.658193   -0.245341   -0.503878    0.768269   -4.505724   -0.106068
                                           0.000000
                              0.448420     0.255234   -0.222959    0.398938    2.168920    2.158325    5.607091
                                           0.000000
                              0.209668     0.008620    0.047809    0.971131   -1.062671    2.129892   -6.008111
                                           0.000000
                              0.103660     0.002734    0.415374    0.423999   -1.218151   -2.265037    1.906416
                                           0.000000
                              0.050630    -0.001161    0.540880   -0.628646    0.340809   -0.681051    1.902685
                                           0.000000
                              0.024201     0.000294    0.183421   -0.467495    0.713322    1.257862   -1.575315
                                           1.000000
    8.1 Ag    1  1s           1.067978     1.000000
    9.1 Ag    1  1s           2.245459     1.000000
   10.1 Ag    1  3d0         89.989649     0.000051
                             33.132961     0.004804
                             15.879656     0.029485
                              7.465803     0.086249
                              3.551993     0.179728
                              1.728185     0.261850
                              0.850498     0.291794
                              0.417673     0.259356
                              0.201523     0.174944
                              0.100711     0.062278
                              0.058959     0.027653
   11.1 Ag    1  3d2+        89.989649     0.000051
                             33.132961     0.004804
                             15.879656     0.029485
                              7.465803     0.086249
                              3.551993     0.179728
                              1.728185     0.261850
                              0.850498     0.291794
                              0.417673     0.259356
                              0.201523     0.174944
                              0.100711     0.062278
                              0.058959     0.027653
   12.1 Ag    1  3d0         89.989649    -0.000038
                             33.132961    -0.004590
                             15.879656    -0.027563
                              7.465803    -0.082775
                              3.551993    -0.173494
                              1.728185    -0.236188
                              0.850498    -0.149226
                              0.417673     0.044145
                              0.201523     0.390500
                              0.100711     0.203064
                              0.058959     0.398002
   13.1 Ag    1  3d2+        89.989649    -0.000038
                             33.132961    -0.004590
                             15.879656    -0.027563
                              7.465803    -0.082775
                              3.551993    -0.173494
                              1.728185    -0.236188
                              0.850498    -0.149226
                              0.417673     0.044145
                              0.201523     0.390500
                              0.100711     0.203064
                              0.058959     0.398002
   14.1 Ag    1  3d0         89.989649     0.000128
                             33.132961     0.006652
                             15.879656     0.044635
                              7.465803     0.122559
                              3.551993     0.311147
                              1.728185     0.288813
                              0.850498    -0.142246
                              0.417673    -0.613737
                              0.201523    -0.123916
                              0.100711    -0.020235
                              0.058959     0.733259
   15.1 Ag    1  3d2+        89.989649     0.000128
                             33.132961     0.006652
                             15.879656     0.044635
                              7.465803     0.122559
                              3.551993     0.311147
                              1.728185     0.288813
                              0.850498    -0.142246
                              0.417673    -0.613737
                              0.201523    -0.123916
                              0.100711    -0.020235
                              0.058959     0.733259
   16.1 Ag    1  3d0         89.989649     0.000045
                             33.132961    -0.010394
                             15.879656    -0.055051
                              7.465803    -0.171457
                              3.551993    -0.519922
                              1.728185     0.099026
                              0.850498     0.829332
                              0.417673    -0.070908
                              0.201523    -0.471171
                              0.100711    -0.878789
                              0.058959     1.211747
   17.1 Ag    1  3d2+        89.989649     0.000045
                             33.132961    -0.010394
                             15.879656    -0.055051
                              7.465803    -0.171457
                              3.551993    -0.519922
                              1.728185     0.099026
                              0.850498     0.829332
                              0.417673    -0.070908
                              0.201523    -0.471171
                              0.100711    -0.878789
                              0.058959     1.211747
   18.1 Ag    1  3d0         89.989649     0.001864
                             33.132961    -0.031157
                             15.879656    -0.049783
                              7.465803    -0.532622
                              3.551993    -0.463738
                              1.728185     1.440373
                              0.850498    -0.384059
                              0.417673    -0.783705
                              0.201523     0.107733
                              0.100711     1.435333
                              0.058959    -1.215094
   19.1 Ag    1  3d2+        89.989649     0.001864
                             33.132961    -0.031157
                             15.879656    -0.049783
                              7.465803    -0.532622
                              3.551993    -0.463738
                              1.728185     1.440373
                              0.850498    -0.384059
                              0.417673    -0.783705
                              0.201523     0.107733
                              0.100711     1.435333
                              0.058959    -1.215094
   20.1 Ag    1  3d0         89.989649     0.000000
                             33.132961     0.000000
                             15.879656     0.000000
                              7.465803     0.000000
                              3.551993     0.000000
                              1.728185     0.000000
                              0.850498     0.000000
                              0.417673     0.000000
                              0.201523     0.000000
                              0.100711     0.000000
                              0.058959     1.000000
   21.1 Ag    1  3d2+        89.989649     0.000000
                             33.132961     0.000000
                             15.879656     0.000000
                              7.465803     0.000000
                              3.551993     0.000000
                              1.728185     0.000000
                              0.850498     0.000000
                              0.417673     0.000000
                              0.201523     0.000000
                              0.100711     0.000000
                              0.058959     1.000000
   22.1 Ag    1  3d0          3.250980     1.000000
   23.1 Ag    1  3d2+         3.250980     1.000000
   24.1 Ag    1  3d0          2.938037     1.000000
   25.1 Ag    1  3d2+         2.938037     1.000000
   26.1 Ag    1  5g0          0.567011     1.000000
   27.1 Ag    1  5g4+         0.567011     1.000000
   28.1 Ag    1  5g2+         0.567011     1.000000
   29.1 Ag    1  5g0          1.547265     1.000000
   30.1 Ag    1  5g4+         1.547265     1.000000
   31.1 Ag    1  5g2+         1.547265     1.000000
   32.1 Ag    1  5g0          4.222190     1.000000
   33.1 Ag    1  5g4+         4.222190     1.000000
   34.1 Ag    1  5g2+         4.222190     1.000000
   35.1 Ag    1  5g0          3.704309     1.000000
   36.1 Ag    1  5g4+         3.704309     1.000000
   37.1 Ag    1  5g2+         3.704309     1.000000
   38.1 Ag    1  7i6+         3.121626     1.000000
   39.1 Ag    1  7i4+         3.121626     1.000000
   40.1 Ag    1  7i2+         3.121626     1.000000
   41.1 Ag    1  7i0          3.121626     1.000000
   42.1 Ag    1  7i6+         5.225579     1.000000
   43.1 Ag    1  7i4+         5.225579     1.000000
   44.1 Ag    1  7i2+         5.225579     1.000000
   45.1 Ag    1  7i0          5.225579     1.000000
    1.2 B3u   1  2px         96.215967     0.000069    0.000040   -0.000053   -0.001262   -0.004780    0.003196
                                           0.000000
    2.2 B3u                  49.579340    -0.000672   -0.000133    0.000023    0.006419    0.025312   -0.016740
                                           0.000000
    3.2 B3u                  25.638009     0.008199   -0.000955    0.004629   -0.021229   -0.094267    0.070507
                                           0.000000
    4.2 B3u                  14.025942    -0.027108    0.003719   -0.007755    0.115777    0.437896   -0.161523
                                           0.000000
    5.2 B3u                   8.740334    -0.053021    0.018866   -0.104133   -0.420740   -1.443166   -0.903765
                                           0.000000
    6.2 B3u                   4.634840     0.005002   -0.012074   -0.017762    0.197742    2.636780    4.916409
                                           0.000000
    7.2 B3u                   2.553374     0.261986   -0.057107    0.728212    1.575600   -0.382436   -6.345867
                                           0.000000
                              1.321166     0.433544   -0.146433    0.218826   -1.067913   -2.761881    2.974168
                                           0.000000
                              0.681285     0.324947   -0.067365   -0.493223   -1.310083    2.159756    1.416657
                                           0.000000
                              0.349458     0.092342   -0.068254   -0.838192    1.191147    0.676151   -3.396922
                                           0.000000
                              0.172773     0.008964    0.403103    0.398401    0.550516   -1.621517    2.170135
                                           0.000000
                              0.063300     0.001185    0.502668    0.664589   -0.718788    0.429164   -0.059081
                                           0.000000
                              0.033969     0.000104    0.261291    0.033011   -0.157441    0.400178   -0.603995
                                           1.000000
    8.2 B3u   1  2px          3.214499     1.000000
    9.2 B3u   1  2px          4.992590     1.000000
   10.2 B3u   1  4f1+         0.222627     1.000000
   11.2 B3u   1  4f3+         0.222627     1.000000
   12.2 B3u   1  4f1+         0.636150     1.000000
   13.2 B3u   1  4f3+         0.636150     1.000000
   14.2 B3u   1  4f1+         1.817778     1.000000
   15.2 B3u   1  4f3+         1.817778     1.000000
   16.2 B3u   1  4f1+         5.194245     1.000000
   17.2 B3u   1  4f3+         5.194245     1.000000
   18.2 B3u   1  4f1+         3.099663     1.000000
   19.2 B3u   1  4f3+         3.099663     1.000000
   20.2 B3u   1  6h1+         1.277114     1.000000
   21.2 B3u   1  6h3+         1.277114     1.000000
   22.2 B3u   1  6h5+         1.277114     1.000000
   23.2 B3u   1  6h1+         3.733326     1.000000
   24.2 B3u   1  6h3+         3.733326     1.000000
   25.2 B3u   1  6h5+         3.733326     1.000000
   26.2 B3u   1  6h1+         4.527979     1.000000
   27.2 B3u   1  6h3+         4.527979     1.000000
   28.2 B3u   1  6h5+         4.527979     1.000000
    1.3 B2u   1  2py         96.215967     0.000069    0.000040   -0.000053   -0.001262   -0.004780    0.003196
                                           0.000000
    2.3 B2u                  49.579340    -0.000672   -0.000133    0.000023    0.006419    0.025312   -0.016740
                                           0.000000
    3.3 B2u                  25.638009     0.008199   -0.000955    0.004629   -0.021229   -0.094267    0.070507
                                           0.000000
    4.3 B2u                  14.025942    -0.027108    0.003719   -0.007755    0.115777    0.437896   -0.161523
                                           0.000000
    5.3 B2u                   8.740334    -0.053021    0.018866   -0.104133   -0.420740   -1.443166   -0.903765
                                           0.000000
    6.3 B2u                   4.634840     0.005002   -0.012074   -0.017762    0.197742    2.636780    4.916409
                                           0.000000
    7.3 B2u                   2.553374     0.261986   -0.057107    0.728212    1.575600   -0.382436   -6.345867
                                           0.000000
                              1.321166     0.433544   -0.146433    0.218826   -1.067913   -2.761881    2.974168
                                           0.000000
                              0.681285     0.324947   -0.067365   -0.493223   -1.310083    2.159756    1.416657
                                           0.000000
                              0.349458     0.092342   -0.068254   -0.838192    1.191147    0.676151   -3.396922
                                           0.000000
                              0.172773     0.008964    0.403103    0.398401    0.550516   -1.621517    2.170135
                                           0.000000
                              0.063300     0.001185    0.502668    0.664589   -0.718788    0.429164   -0.059081
                                           0.000000
                              0.033969     0.000104    0.261291    0.033011   -0.157441    0.400178   -0.603995
                                           1.000000
    8.3 B2u   1  2py          3.214499     1.000000
    9.3 B2u   1  2py          4.992590     1.000000
   10.3 B2u   1  4f1-         0.222627     1.000000
   11.3 B2u   1  4f3-         0.222627     1.000000
   12.3 B2u   1  4f1-         0.636150     1.000000
   13.3 B2u   1  4f3-         0.636150     1.000000
   14.3 B2u   1  4f1-         1.817778     1.000000
   15.3 B2u   1  4f3-         1.817778     1.000000
   16.3 B2u   1  4f1-         5.194245     1.000000
   17.3 B2u   1  4f3-         5.194245     1.000000
   18.3 B2u   1  4f1-         3.099663     1.000000
   19.3 B2u   1  4f3-         3.099663     1.000000
   20.3 B2u   1  6h1-         1.277114     1.000000
   21.3 B2u   1  6h3-         1.277114     1.000000
   22.3 B2u   1  6h5-         1.277114     1.000000
   23.3 B2u   1  6h1-         3.733326     1.000000
   24.3 B2u   1  6h3-         3.733326     1.000000
   25.3 B2u   1  6h5-         3.733326     1.000000
   26.3 B2u   1  6h1-         4.527979     1.000000
   27.3 B2u   1  6h3-         4.527979     1.000000
   28.3 B2u   1  6h5-         4.527979     1.000000
    1.4 B1g   1  3d2-        89.989649     0.000051   -0.000038    0.000128    0.000045    0.001864    0.000000
    2.4 B1g                  33.132961     0.004804   -0.004590    0.006652   -0.010394   -0.031157    0.000000
    3.4 B1g                  15.879656     0.029485   -0.027563    0.044635   -0.055051   -0.049783    0.000000
    4.4 B1g                   7.465803     0.086249   -0.082775    0.122559   -0.171457   -0.532622    0.000000
    5.4 B1g                   3.551993     0.179728   -0.173494    0.311147   -0.519922   -0.463738    0.000000
    6.4 B1g                   1.728185     0.261850   -0.236188    0.288813    0.099026    1.440373    0.000000
                              0.850498     0.291794   -0.149226   -0.142246    0.829332   -0.384059    0.000000
                              0.417673     0.259356    0.044145   -0.613737   -0.070908   -0.783705    0.000000
                              0.201523     0.174944    0.390500   -0.123916   -0.471171    0.107733    0.000000
                              0.100711     0.062278    0.203064   -0.020235   -0.878789    1.435333    0.000000
                              0.058959     0.027653    0.398002    0.733259    1.211747   -1.215094    1.000000
    7.4 B1g   1  3d2-         3.250980     1.000000
    8.4 B1g   1  3d2-         2.938037     1.000000
    9.4 B1g   1  5g2-         0.567011     1.000000
   10.4 B1g   1  5g4-         0.567011     1.000000
   11.4 B1g   1  5g2-         1.547265     1.000000
   12.4 B1g   1  5g4-         1.547265     1.000000
   13.4 B1g   1  5g2-         4.222190     1.000000
   14.4 B1g   1  5g4-         4.222190     1.000000
   15.4 B1g   1  5g2-         3.704309     1.000000
   16.4 B1g   1  5g4-         3.704309     1.000000
   17.4 B1g   1  7i2-         3.121626     1.000000
   18.4 B1g   1  7i6-         3.121626     1.000000
   19.4 B1g   1  7i4-         3.121626     1.000000
   20.4 B1g   1  7i2-         5.225579     1.000000
   21.4 B1g   1  7i6-         5.225579     1.000000
   22.4 B1g   1  7i4-         5.225579     1.000000
    1.5 B1u   1  2pz         96.215967     0.000069    0.000040   -0.000053   -0.001262   -0.004780    0.003196
                                           0.000000
    2.5 B1u                  49.579340    -0.000672   -0.000133    0.000023    0.006419    0.025312   -0.016740
                                           0.000000
    3.5 B1u                  25.638009     0.008199   -0.000955    0.004629   -0.021229   -0.094267    0.070507
                                           0.000000
    4.5 B1u                  14.025942    -0.027108    0.003719   -0.007755    0.115777    0.437896   -0.161523
                                           0.000000
    5.5 B1u                   8.740334    -0.053021    0.018866   -0.104133   -0.420740   -1.443166   -0.903765
                                           0.000000
    6.5 B1u                   4.634840     0.005002   -0.012074   -0.017762    0.197742    2.636780    4.916409
                                           0.000000
    7.5 B1u                   2.553374     0.261986   -0.057107    0.728212    1.575600   -0.382436   -6.345867
                                           0.000000
                              1.321166     0.433544   -0.146433    0.218826   -1.067913   -2.761881    2.974168
                                           0.000000
                              0.681285     0.324947   -0.067365   -0.493223   -1.310083    2.159756    1.416657
                                           0.000000
                              0.349458     0.092342   -0.068254   -0.838192    1.191147    0.676151   -3.396922
                                           0.000000
                              0.172773     0.008964    0.403103    0.398401    0.550516   -1.621517    2.170135
                                           0.000000
                              0.063300     0.001185    0.502668    0.664589   -0.718788    0.429164   -0.059081
                                           0.000000
                              0.033969     0.000104    0.261291    0.033011   -0.157441    0.400178   -0.603995
                                           1.000000
    8.5 B1u   1  2pz          3.214499     1.000000
    9.5 B1u   1  2pz          4.992590     1.000000
   10.5 B1u   1  4f0          0.222627     1.000000
   11.5 B1u   1  4f2+         0.222627     1.000000
   12.5 B1u   1  4f0          0.636150     1.000000
   13.5 B1u   1  4f2+         0.636150     1.000000
   14.5 B1u   1  4f0          1.817778     1.000000
   15.5 B1u   1  4f2+         1.817778     1.000000
   16.5 B1u   1  4f0          5.194245     1.000000
   17.5 B1u   1  4f2+         5.194245     1.000000
   18.5 B1u   1  4f0          3.099663     1.000000
   19.5 B1u   1  4f2+         3.099663     1.000000
   20.5 B1u   1  6h2+         1.277114     1.000000
   21.5 B1u   1  6h4+         1.277114     1.000000
   22.5 B1u   1  6h0          1.277114     1.000000
   23.5 B1u   1  6h2+         3.733326     1.000000
   24.5 B1u   1  6h4+         3.733326     1.000000
   25.5 B1u   1  6h0          3.733326     1.000000
   26.5 B1u   1  6h2+         4.527979     1.000000
   27.5 B1u   1  6h4+         4.527979     1.000000
   28.5 B1u   1  6h0          4.527979     1.000000
    1.6 B2g   1  3d1+        89.989649     0.000051   -0.000038    0.000128    0.000045    0.001864    0.000000
    2.6 B2g                  33.132961     0.004804   -0.004590    0.006652   -0.010394   -0.031157    0.000000
    3.6 B2g                  15.879656     0.029485   -0.027563    0.044635   -0.055051   -0.049783    0.000000
    4.6 B2g                   7.465803     0.086249   -0.082775    0.122559   -0.171457   -0.532622    0.000000
    5.6 B2g                   3.551993     0.179728   -0.173494    0.311147   -0.519922   -0.463738    0.000000
    6.6 B2g                   1.728185     0.261850   -0.236188    0.288813    0.099026    1.440373    0.000000
                              0.850498     0.291794   -0.149226   -0.142246    0.829332   -0.384059    0.000000
                              0.417673     0.259356    0.044145   -0.613737   -0.070908   -0.783705    0.000000
                              0.201523     0.174944    0.390500   -0.123916   -0.471171    0.107733    0.000000
                              0.100711     0.062278    0.203064   -0.020235   -0.878789    1.435333    0.000000
                              0.058959     0.027653    0.398002    0.733259    1.211747   -1.215094    1.000000
    7.6 B2g   1  3d1+         3.250980     1.000000
    8.6 B2g   1  3d1+         2.938037     1.000000
    9.6 B2g   1  5g1+         0.567011     1.000000
   10.6 B2g   1  5g3+         0.567011     1.000000
   11.6 B2g   1  5g1+         1.547265     1.000000
   12.6 B2g   1  5g3+         1.547265     1.000000
   13.6 B2g   1  5g1+         4.222190     1.000000
   14.6 B2g   1  5g3+         4.222190     1.000000
   15.6 B2g   1  5g1+         3.704309     1.000000
   16.6 B2g   1  5g3+         3.704309     1.000000
   17.6 B2g   1  7i5+         3.121626     1.000000
   18.6 B2g   1  7i3+         3.121626     1.000000
   19.6 B2g   1  7i1+         3.121626     1.000000
   20.6 B2g   1  7i5+         5.225579     1.000000
   21.6 B2g   1  7i3+         5.225579     1.000000
   22.6 B2g   1  7i1+         5.225579     1.000000
    1.7 B3g   1  3d1-        89.989649     0.000051   -0.000038    0.000128    0.000045    0.001864    0.000000
    2.7 B3g                  33.132961     0.004804   -0.004590    0.006652   -0.010394   -0.031157    0.000000
    3.7 B3g                  15.879656     0.029485   -0.027563    0.044635   -0.055051   -0.049783    0.000000
    4.7 B3g                   7.465803     0.086249   -0.082775    0.122559   -0.171457   -0.532622    0.000000
    5.7 B3g                   3.551993     0.179728   -0.173494    0.311147   -0.519922   -0.463738    0.000000
    6.7 B3g                   1.728185     0.261850   -0.236188    0.288813    0.099026    1.440373    0.000000
                              0.850498     0.291794   -0.149226   -0.142246    0.829332   -0.384059    0.000000
                              0.417673     0.259356    0.044145   -0.613737   -0.070908   -0.783705    0.000000
                              0.201523     0.174944    0.390500   -0.123916   -0.471171    0.107733    0.000000
                              0.100711     0.062278    0.203064   -0.020235   -0.878789    1.435333    0.000000
                              0.058959     0.027653    0.398002    0.733259    1.211747   -1.215094    1.000000
    7.7 B3g   1  3d1-         3.250980     1.000000
    8.7 B3g   1  3d1-         2.938037     1.000000
    9.7 B3g   1  5g1-         0.567011     1.000000
   10.7 B3g   1  5g3-         0.567011     1.000000
   11.7 B3g   1  5g1-         1.547265     1.000000
   12.7 B3g   1  5g3-         1.547265     1.000000
   13.7 B3g   1  5g1-         4.222190     1.000000
   14.7 B3g   1  5g3-         4.222190     1.000000
   15.7 B3g   1  5g1-         3.704309     1.000000
   16.7 B3g   1  5g3-         3.704309     1.000000
   17.7 B3g   1  7i5-         3.121626     1.000000
   18.7 B3g   1  7i3-         3.121626     1.000000
   19.7 B3g   1  7i1-         3.121626     1.000000
   20.7 B3g   1  7i5-         5.225579     1.000000
   21.7 B3g   1  7i3-         5.225579     1.000000
   22.7 B3g   1  7i1-         5.225579     1.000000
    1.8 Au    1  4f2-         0.222627     1.000000
    2.8 Au    1  4f2-         0.636150     1.000000
    3.8 Au    1  4f2-         1.817778     1.000000
    4.8 Au    1  4f2-         5.194245     1.000000
    5.8 Au    1  4f2-         3.099663     1.000000
    6.8 Au    1  6h4-         1.277114     1.000000
    7.8 Au    1  6h2-         1.277114     1.000000
    8.8 Au    1  6h4-         3.733326     1.000000
    9.8 Au    1  6h2-         3.733326     1.000000
   10.8 Au    1  6h4-         4.527979     1.000000
   11.8 Au    1  6h2-         4.527979     1.000000

 NUCLEAR CHARGE:                   13
 NUMBER OF PRIMITIVE AOS:         367
 NUMBER OF SYMMETRY AOS:          255
 NUMBER OF CONTRACTIONS:          206   (  45Ag  +  28B3u +  28B2u +  22B1g +  28B1u +  22B2g +  22B3g +  11Au  )
 NUMBER OF CORE ORBITALS:           4   (   1Ag  +   1B3u +   1B2u +   0B1g +   1B1u +   0B2g +   0B3g +   0Au  )
 NUMBER OF VALENCE ORBITALS:        6   (   3Ag  +   0B3u +   0B2u +   1B1g +   0B1u +   1B2g +   1B3g +   0Au  )


 NUCLEAR REPULSION ENERGY    0.00000000

 EXTRA SYMMETRY OF AOS IN SYMMETRY 1:   1 1 1 1 1 1 1 1 1 2   3 2 3 2 3 2 3 2 3 2   3 2 3 2 3 4 5 6 4 5   6 4 5 6 4 5 6 7 8 9
                                       10 7 8 910
 EXTRA SYMMETRY OF AOS IN SYMMETRY 2:   1 1 1 1 1 1 1 1 1 2   3 2 3 2 3 2 3 2 3 4   5 6 4 5 6 4 5 6
 EXTRA SYMMETRY OF AOS IN SYMMETRY 3:   1 1 1 1 1 1 1 1 1 2   3 2 3 2 3 2 3 2 3 4   5 6 4 5 6 4 5 6
 EXTRA SYMMETRY OF AOS IN SYMMETRY 4:   1 1 1 1 1 1 1 1 2 3   2 3 2 3 2 3 4 5 6 4   5 6
 EXTRA SYMMETRY OF AOS IN SYMMETRY 5:   1 1 1 1 1 1 1 1 1 2   3 2 3 2 3 2 3 2 3 4   5 6 4 5 6 4 5 6
 EXTRA SYMMETRY OF AOS IN SYMMETRY 6:   1 1 1 1 1 1 1 1 2 3   2 3 2 3 2 3 4 5 6 4   5 6
 EXTRA SYMMETRY OF AOS IN SYMMETRY 7:   1 1 1 1 1 1 1 1 2 3   2 3 2 3 2 3 4 5 6 4   5 6
 EXTRA SYMMETRY OF AOS IN SYMMETRY 8:   1 1 1 1 1 2 3 2 3 2   3

 Eigenvalues of metric

         1 0.881E-04 0.325E-03 0.325E-03 0.371E-03 0.371E-03 0.129E-02 0.537E-02 0.537E-02
         2 0.118E-03 0.182E-01 0.210E-01 0.210E-01 0.220E-01 0.220E-01 0.220E-01 0.483E-01
         3 0.118E-03 0.182E-01 0.210E-01 0.210E-01 0.220E-01 0.220E-01 0.220E-01 0.483E-01
         4 0.325E-03 0.371E-03 0.537E-02 0.537E-02 0.247E-01 0.218E+00 0.218E+00 0.218E+00
         5 0.118E-03 0.182E-01 0.210E-01 0.210E-01 0.220E-01 0.220E-01 0.220E-01 0.483E-01
         6 0.325E-03 0.371E-03 0.537E-02 0.537E-02 0.247E-01 0.218E+00 0.218E+00 0.218E+00
         7 0.325E-03 0.371E-03 0.537E-02 0.537E-02 0.247E-01 0.218E+00 0.218E+00 0.218E+00
         8 0.210E-01 0.220E-01 0.220E-01 0.224E+00 0.567E+00 0.797E+00 0.797E+00 0.144E+01


 Contracted 2-electron integrals neglected if value below      1.0D-12
 AO integral compression algorithm  1   Integral accuracy      1.0D-12

     178.258 MB (compressed) written to integral file ( 50.1%)


 NUMBER OF SORTED TWO-ELECTRON INTEGRALS:   29098917.     BUFFER LENGTH:  32768
 NUMBER OF SEGMENTS:   2  SEGMENT LENGTH:   15999969      RECORD LENGTH: 524288

 Memory used in sort:      16.56 MW

 SORT1 READ    44478058. AND WROTE    18923596. INTEGRALS IN     55 RECORDS. CPU TIME:     1.55 SEC, REAL TIME:     2.09 SEC
 SORT2 READ    18923596. AND WROTE    29098917. INTEGRALS IN    680 RECORDS. CPU TIME:     0.82 SEC, REAL TIME:     1.52 SEC

 FILE SIZES:   FILE 1:   198.3 MBYTE,  FILE 4:   230.7 MBYTE,   TOTAL:    429.1 MBYTE

 OPERATOR DM      FOR CENTER  0  COORDINATES:    0.000000    0.000000    0.000000
 OPERATOR EKIN    FOR CENTER  0  COORDINATES:    0.000000    0.000000    0.000000
 OPERATOR POT     FOR CENTER  0  COORDINATES:    0.000000    0.000000    0.000000


 **********************************************************************************************************************************
 DATASETS  * FILE   NREC   LENGTH (MB)   RECORD NAMES
              1      20      134.17       500      610      700      900      950      970     1000      129      960     1100   
                                          VAR    BASINP    GEOM    SYMINP    ZMAT    AOBASIS   BASIS     P2S    ABASIS      S 
                                         1400     1410     1420     1200     1210     1080     1600     1650     1300     1700   
                                         EKIN       V       ECP      H0       H01     AOSYM     SMH    MOLCAS    ERIS     OPER   

 PROGRAMS   *        TOTAL       INT
 CPU TIMES  *        13.86     13.72
 REAL TIME  *        22.27 SEC
 DISK USED  *       429.41 MB      
 **********************************************************************************************************************************


 PROGRAM * RHF-SCF (OPEN SHELL)       Authors: W. Meyer, H.-J. Werner


 NUMBER OF ELECTRONS:       8+    5-    SPACE SYMMETRY=6    SPIN SYMMETRY: Quartet 
 CONVERGENCE THRESHOLDS:    1.00E-05 (Density)    1.00E-07 (Energy)
 MAX. NUMBER OF ITERATIONS:       60
 INTERPOLATION TYPE:            DIIS
 INTERPOLATION STEPS:              2 (START)      1 (STEP)
 LEVEL SHIFTS:                 -0.60 (CLOSED) -0.30 (OPEN) 


 Singly occupied orbitals:      3.1       4.1       1.6
 
 Extra symmetries of mos in symmetry 1:   1   1

   Atom=V  basis=ECP10MDF_GUESS    lmin=0  lmax=2

 Orbital guess generated from atomic densities. Full valence occupancy:    4   1   1   1   1   1   1   0


 Molecular orbital dump at record        4202.2

 ITERATION    DDIFF          GRAD             ENERGY        2-EL.EN.            DIPOLE MOMENTS         DIIS   ORB.
    1      0.000D+00      0.000D+00       -70.70354971     94.134198    0.00000    0.00000    0.00000    0    start
    2      0.000D+00      0.189D-01       -70.86027056    100.744677    0.00000    0.00000    0.00000    1    diag,B
    3      0.914D-02      0.107D-01       -70.87669725    100.374895    0.00000    0.00000    0.00000    2    diag,B
    4      0.191D-02      0.422D-02       -70.88588983    100.563848    0.00000    0.00000    0.00000    3    diag,B
    5      0.211D-02      0.917D-03       -70.88691293    100.626820    0.00000    0.00000    0.00000    4    diag,B
    6      0.120D-02      0.295D-03       -70.88703411    100.582199    0.00000    0.00000    0.00000    5    diag,B
    7      0.142D-02      0.133D-03       -70.88706629    100.539064    0.00000    0.00000    0.00000    6    fixocc
    8      0.648D-03      0.489D-04       -70.88707102    100.530422    0.00000    0.00000    0.00000    7    diag,B
    9      0.692D-03      0.257D-04       -70.88707264    100.523419    0.00000    0.00000    0.00000    8    diag,B
   10      0.942D-03      0.488D-05       -70.88707267    100.523030    0.00000    0.00000    0.00000    9    orth
   11      0.177D-03      0.923D-06       -70.88707267    100.522963    0.00000    0.00000    0.00000    9    diag,B
   12      0.129D-04      0.378D-06       -70.88707267    100.522973    0.00000    0.00000    0.00000    9    diag,B
   13      0.258D-05      0.188D-06       -70.88707243    100.522682    0.00000    0.00000    0.00000    0    orth

 Final alpha occupancy:   4   1   1   0   1   1   0   0
 Final beta  occupancy:   2   1   1   0   1   0   0   0

 !RHF STATE 1.6 Energy                -70.887072433560
 Nuclear energy                         0.00000000
 One-electron energy                 -121.14841334
 Two-electron energy                   50.26134090
 Virial quotient                       -2.05222951
 !RHF STATE 1.6 Dipole moment           0.00000000     0.00000000     0.00000000
 Dipole moment /Debye                   0.00000000     0.00000000     0.00000000
 

 !RHF expec          <1.6|EKIN|1.6>    34.541493625065
 
 !RHF expec           <1.6|POT|1.6>   -12.768518817407

 ELECTRON ORBITALS
 =================


   Orb  Occ    Energy  Couls-En    Coefficients

                                   1 1s      1 1s      1 1s      1 1s      1 1s      1 1s      1 1s      1 1s      1 1s      1 3d0  
                                   1 3d2+    1 3d0     1 3d2+    1 3d0     1 3d2+    1 3d0     1 3d2+    1 3d0     1 3d2+    1 3d0  
                                   1 3d2+    1 3d0     1 3d2+    1 3d0     1 3d2+    1 5g0     1 5g4+    1 5g2+    1 5g0     1 5g4+ 
                                   1 5g2+    1 5g0     1 5g4+    1 5g2+    1 5g0     1 5g4+    1 5g2+    1 7i6+    1 7i4+    1 7i2+ 
                                   1 7i0     1 7i6+    1 7i4+    1 7i2+    1 7i0  

   1.1   2    -3.2343  -15.1576  0.999873 -0.000025  0.000055  0.000074  0.000021  0.000000 -0.000074  0.000049 -0.000027 -0.007371
                                -0.012768  0.001034  0.001790 -0.001193 -0.002066 -0.000455 -0.000788 -0.000221 -0.000383  0.000937
                                 0.001623  0.000064  0.000110 -0.000293 -0.000508  0.000357  0.000704  0.000532  0.000360  0.000710
                                 0.000537  0.000421  0.000829  0.000627 -0.000343 -0.000677 -0.000512  0.000001  0.000001  0.000001
                                 0.000001  0.000001  0.000001  0.000001  0.000001

   2.1   2    -0.2326   -4.2552 -0.000178  0.999554 -0.000362  0.000054 -0.000016  0.000002  0.000120 -0.000018  0.000008 -0.010870
                                -0.018827 -0.007893 -0.013672 -0.000090 -0.000157  0.000496  0.000859  0.000068  0.000119  0.000353
                                 0.000612  0.000379  0.000656 -0.000317 -0.000549 -0.000094 -0.000186 -0.000140  0.000113  0.000224
                                 0.000169 -0.000036 -0.000071 -0.000054  0.000057  0.000113  0.000085  0.000005  0.000004  0.000004
                                 0.000003 -0.000001 -0.000001 -0.000001 -0.000000

   3.1   +    -0.5361   -8.9535  0.014594  0.019137  0.003601 -0.000809  0.000118 -0.000045  0.000843  0.000195 -0.000142  0.496054
                                 0.859191 -0.042666 -0.073899 -0.001346 -0.002331  0.003488  0.006041 -0.001152 -0.001996  0.000897
                                 0.001553 -0.002495 -0.004322  0.004055  0.007023 -0.001448 -0.002856 -0.002159 -0.001172 -0.002311
                                -0.001747 -0.000499 -0.000983 -0.000743  0.000103  0.000204  0.000154 -0.000011 -0.000008 -0.000008
                                -0.000005 -0.000002 -0.000002 -0.000001 -0.000001

   4.1   +    -0.4805   -8.8121  0.000000 -0.000000  0.000000 -0.000000 -0.000000  0.000000  0.000000 -0.000000  0.000000  0.862518
                                -0.497975 -0.051137  0.029524 -0.003067  0.001771  0.003446 -0.001990 -0.001951  0.001127 -0.001435
                                 0.000829 -0.005763  0.003327  0.007793 -0.004499  0.001268 -0.001500  0.001134  0.000897 -0.001061
                                 0.000802  0.000355 -0.000420  0.000318 -0.000035  0.000042 -0.000032  0.000018 -0.000004 -0.000014
                                -0.000012 -0.000002  0.000000  0.000001  0.000001

                                   1 2px     1 2px     1 2px     1 2px     1 2px     1 2px     1 2px     1 2px     1 2px     1 4f1+ 
                                   1 4f3+    1 4f1+    1 4f3+    1 4f1+    1 4f3+    1 4f1+    1 4f3+    1 4f1+    1 4f3+    1 6h1+ 
                                   1 6h3+    1 6h5+    1 6h1+    1 6h3+    1 6h5+    1 6h1+    1 6h3+    1 6h5+ 

   1.2   2    -2.0297  -12.7234  1.001178  0.032927 -0.021188  0.003691  0.000834 -0.000571 -0.008264 -0.001163  0.000721  0.000274
                                 0.001060  0.000648  0.002510  0.000283  0.001095  0.000192  0.000742 -0.000087 -0.000335 -0.000017
                                -0.000055 -0.000122 -0.000046 -0.000149 -0.000333  0.000017  0.000057  0.000126

                                   1 2py     1 2py     1 2py     1 2py     1 2py     1 2py     1 2py     1 2py     1 2py     1 4f1- 
                                   1 4f3-    1 4f1-    1 4f3-    1 4f1-    1 4f3-    1 4f1-    1 4f3-    1 4f1-    1 4f3-    1 6h1- 
                                   1 6h3-    1 6h5-    1 6h1-    1 6h3-    1 6h5-    1 6h1-    1 6h3-    1 6h5- 

   1.3   2    -2.0380  -12.7385  1.000171  0.028993 -0.019556  0.002365  0.000626 -0.000509 -0.007371  0.001061 -0.000667 -0.000761
                                -0.000982 -0.004426 -0.005714 -0.004747 -0.006129 -0.001457 -0.001881  0.000293  0.000378 -0.000050
                                -0.000054 -0.000073 -0.000227 -0.000245 -0.000328  0.000091  0.000098  0.000131

                                   1 2pz     1 2pz     1 2pz     1 2pz     1 2pz     1 2pz     1 2pz     1 2pz     1 2pz     1 4f0  
                                   1 4f2+    1 4f0     1 4f2+    1 4f0     1 4f2+    1 4f0     1 4f2+    1 4f0     1 4f2+    1 6h2+ 
                                   1 6h4+    1 6h0     1 6h2+    1 6h4+    1 6h0     1 6h2+    1 6h4+    1 6h0  

   1.5   2    -2.0297  -12.7234  1.001178  0.032927 -0.021188  0.003691  0.000834 -0.000571 -0.008264 -0.001163  0.000721  0.000671
                                 0.000866  0.001588  0.002050  0.000692  0.000894  0.000469  0.000606 -0.000212 -0.000274 -0.000089
                                -0.000077 -0.000065 -0.000243 -0.000211 -0.000178  0.000092  0.000080  0.000068

                                   1 3d1+    1 3d1+    1 3d1+    1 3d1+    1 3d1+    1 3d1+    1 3d1+    1 3d1+    1 5g1+    1 5g3+ 
                                   1 5g1+    1 5g3+    1 5g1+    1 5g3+    1 5g1+    1 5g3+    1 7i5+    1 7i3+    1 7i1+    1 7i5+ 
                                   1 7i3+    1 7i1+ 

   1.6   +    -0.4805   -8.8121  0.995950 -0.059048 -0.003541  0.003979 -0.002253 -0.001657 -0.006655  0.008999  0.000802  0.002122
                                 0.000567  0.001500  0.000225  0.000595 -0.000022 -0.000059 -0.000021 -0.000015 -0.000005  0.000002
                                 0.000001  0.000000

 HOMO      4.1    -0.480461 =     -13.0740eV
 LUMO      2.3     0.027606 =       0.7512eV
 LUMO-HOMO         0.508067 =      13.8252eV


 **********************************************************************************************************************************
 DATASETS  * FILE   NREC   LENGTH (MB)   RECORD NAMES
              1      20      134.17       500      610      700      900      950      970     1000      129      960     1100   
                                          VAR    BASINP    GEOM    SYMINP    ZMAT    AOBASIS   BASIS     P2S    ABASIS      S 
                                         1400     1410     1420     1200     1210     1080     1600     1650     1300     1700   
                                         EKIN       V       ECP      H0       H01     AOSYM     SMH    MOLCAS    ERIS     OPER   

              2       4        2.96       700     1000      520     4202   
                                         GEOM     BASIS   MCVARS     RHF  

 PROGRAMS   *        TOTAL       RHF       INT
 CPU TIMES  *        15.15      1.28     13.72
 REAL TIME  *        23.96 SEC
 DISK USED  *       429.41 MB      
 **********************************************************************************************************************************


 PROGRAM * MULTI (Direct Multiconfiguration SCF)       Authors: P.J. Knowles, H.-J. Werner (1984)     S.T. Elbert (1988)


 Number of closed-shell orbitals:   5 (   2   1   1   0   1   0   0   0 )
 Number of active  orbitals:        5 (   2   0   0   1   0   1   1   0 )
 Number of external orbitals:     196 (  41  27  27  21  27  21  21  11 )

 State symmetry 1

 Number of electrons:     3    Spin symmetry=Quartet   Space symmetry=1
 Number of states:        1
 Number of CSFs:          1   (1 determinants, 10 intermediate states)

 State symmetry 2

 Number of electrons:     3    Spin symmetry=Quartet   Space symmetry=4
 Number of states:        3
 Number of CSFs:          3   (3 determinants, 10 intermediate states)

 State symmetry 3

 Number of electrons:     3    Spin symmetry=Quartet   Space symmetry=6
 Number of states:        3
 Number of CSFs:          3   (3 determinants, 10 intermediate states)

 State symmetry 4

 Number of electrons:     3    Spin symmetry=Quartet   Space symmetry=7
 Number of states:        3
 Number of CSFs:          3   (3 determinants, 10 intermediate states)

 Molecular orbitals read from record     4202.2  Type=RHF/CANONICAL (state 1.6)
 *** IN SYMMETRY 1 ORBITAL  1 SYMMETRY CONTAMINATION OF 0.368D-01 HAS BEEN REMOVED
 *** IN SYMMETRY 1 ORBITAL  2 SYMMETRY CONTAMINATION OF 0.542D-01 HAS BEEN REMOVED
 *** IN SYMMETRY 1 ORBITAL  3 SYMMETRY CONTAMINATION OF 0.388D+00 HAS BEEN REMOVED
 *** IN SYMMETRY 1 ORBITAL  4 SYMMETRY CONTAMINATION OF 0.369D+00 HAS BEEN REMOVED

 EXTRA SYMMETRY OF MOS IN SYMMETRY 1:   1 1 3 2 1 3 2 1 3 2   1 3 2 3 2 5 4 6 1 3   2 5 5 4 1 3 2 6 4 4   7 810 9 1 3 2 5 6 6
                                        7 810 9 1
 *** IN SYMMETRY 2 ORBITAL  1 SYMMETRY CONTAMINATION OF 0.755D-02 HAS BEEN REMOVED
 EXTRA SYMMETRY OF MOS IN SYMMETRY 2:   1 1 1 1 2 3 1 2 3 1   2 3 6 5 4 1 3 2 6 5   4 1 3 2 6 5 4 1
 *** IN SYMMETRY 3 ORBITAL  1 SYMMETRY CONTAMINATION OF 0.258D-01 HAS BEEN REMOVED
 EXTRA SYMMETRY OF MOS IN SYMMETRY 3:   1 1 1 1 3 2 1 3 2 1   3 2 6 4 5 1 3 2 6 4   5 1 3 2 6 5 4 1
 *** IN SYMMETRY 4 ORBITAL  1 SYMMETRY CONTAMINATION OF 0.861D-03 HAS BEEN REMOVED
 EXTRA SYMMETRY OF MOS IN SYMMETRY 4:   1 1 1 1 1 3 2 1 3 2   1 3 2 6 5 4 1 3 2 6   5 4
 *** IN SYMMETRY 5 ORBITAL  1 SYMMETRY CONTAMINATION OF 0.873D-02 HAS BEEN REMOVED
 EXTRA SYMMETRY OF MOS IN SYMMETRY 5:   1 1 1 1 2 3 1 2 3 1   2 3 4 5 6 1 3 2 4 5   6 1 3 2 4 5 6 1
 *** IN SYMMETRY 6 ORBITAL  1 SYMMETRY CONTAMINATION OF 0.546D-02 HAS BEEN REMOVED
 EXTRA SYMMETRY OF MOS IN SYMMETRY 6:   1 1 1 1 1 3 2 1 3 2   1 3 2 4 5 6 1 3 2 4   5 6
 *** IN SYMMETRY 7 ORBITAL  1 SYMMETRY CONTAMINATION OF 0.942D-03 HAS BEEN REMOVED
 EXTRA SYMMETRY OF MOS IN SYMMETRY 7:   1 1 1 1 1 2 3 1 2 3   1 2 3 4 6 5 1 2 3 4   6 5
 EXTRA SYMMETRY OF MOS IN SYMMETRY 8:   1 1 1 2 3 1 2 3 1 2   3

 Wavefunction dump at record             5202.2

 Convergence thresholds  0.10E-01 (gradient)  0.10E-05 (energy)  0.10E-02 (step length)

 Weight factors for state symmetry  1:    0.10000
 Weight factors for state symmetry  2:    0.10000   0.10000   0.10000
 Weight factors for state symmetry  3:    0.10000   0.10000   0.10000
 Weight factors for state symmetry  4:    0.10000   0.10000   0.10000

 Number of orbital rotations:      312   (     4 Core/Active    163 Core/Virtual   0 Active/Active    145 Active/Virtual)
 Total number of variables:        340


 ITER. MIC  NCI  NEG     ENERGY(VAR)     ENERGY(PROJ)   ENERGY CHANGE     GRAD(0)  GRAD(ORB)   GRAD(CI)     STEP       TIME

   1   53   16    0     -70.60330049     -70.89454374   -0.29124325    0.48962198 0.00000000 0.00000000  0.90D+00      0.39
   2   25   20    0     -70.87149001     -70.87674208   -0.00525206    0.12930109 0.00000000 0.00000000  0.78D-01      0.77
   3   24   20    0     -70.87682265     -70.87682625   -0.00000360    0.00244418 0.00000000 0.00000000  0.22D-02      1.15
   4   38   32    0     -70.87682625     -70.87682625   -0.00000000    0.00000192 0.00000000 0.00000000  0.19D-05      1.54

 ** WVFN ****  CONVERGENCE REACHED, FINAL GRADIENT:  0.16D-11



 Results for state 1.1
 =====================

 !MCSCF STATE 1.1 Energy              -70.896118192404
 Nuclear energy                         0.00000000
 Kinetic energy                        34.51286327
 One electron energy                 -121.13645201
 Two electron energy                   50.24033382
 Virial ratio                           3.05419404

 !MCSCF STATE 1.1 Dipole moment         0.00000000     0.00000000     0.00000000
 Dipole moment /Debye                   0.00000000     0.00000000     0.00000000



 Results for state 1.4
 =====================

 !MCSCF STATE 1.4 Energy              -70.896118192404
 Nuclear energy                         0.00000000
 Kinetic energy                        34.51286327
 One electron energy                 -121.13645201
 Two electron energy                   50.24033382
 Virial ratio                           3.05419404

 !MCSCF STATE 1.4 Dipole moment         0.00000000     0.00000000     0.00000000
 Dipole moment /Debye                   0.00000000     0.00000000     0.00000000

 Results for state 2.4
 =====================

 !MCSCF STATE 2.4 Energy              -70.896118192404
 Nuclear energy                         0.00000000
 Kinetic energy                        34.51286327
 One electron energy                 -121.13645201
 Two electron energy                   50.24033382
 Virial ratio                           3.05419404

 !MCSCF STATE 2.4 Dipole moment         0.00000000     0.00000000     0.00000000
 Dipole moment /Debye                   0.00000000     0.00000000     0.00000000

 Results for state 3.4
 =====================

 !MCSCF STATE 3.4 Energy              -70.831811726701
 Nuclear energy                         0.00000000
 Kinetic energy                        34.51286327
 One electron energy                 -121.13645201
 Two electron energy                   50.30464029
 Virial ratio                           3.05233078

 !MCSCF STATE 3.4 Dipole moment         0.00000000     0.00000000     0.00000000
 Dipole moment /Debye                   0.00000000     0.00000000     0.00000000



 Results for state 1.6
 =====================

 !MCSCF STATE 1.6 Energy              -70.896118192404
 Nuclear energy                         0.00000000
 Kinetic energy                        34.51286327
 One electron energy                 -121.13645201
 Two electron energy                   50.24033382
 Virial ratio                           3.05419404

 !MCSCF STATE 1.6 Dipole moment         0.00000000     0.00000000     0.00000000
 Dipole moment /Debye                   0.00000000     0.00000000     0.00000000

 Results for state 2.6
 =====================

 !MCSCF STATE 2.6 Energy              -70.896118192404
 Nuclear energy                         0.00000000
 Kinetic energy                        34.51286327
 One electron energy                 -121.13645201
 Two electron energy                   50.24033382
 Virial ratio                           3.05419404

 !MCSCF STATE 2.6 Dipole moment         0.00000000     0.00000000     0.00000000
 Dipole moment /Debye                   0.00000000     0.00000000     0.00000000

 Results for state 3.6
 =====================

 !MCSCF STATE 3.6 Energy              -70.831811726701
 Nuclear energy                         0.00000000
 Kinetic energy                        34.51286327
 One electron energy                 -121.13645201
 Two electron energy                   50.30464029
 Virial ratio                           3.05233078

 !MCSCF STATE 3.6 Dipole moment         0.00000000     0.00000000     0.00000000
 Dipole moment /Debye                   0.00000000     0.00000000     0.00000000



 Results for state 1.7
 =====================

 !MCSCF STATE 1.7 Energy              -70.896118192404
 Nuclear energy                         0.00000000
 Kinetic energy                        34.51286327
 One electron energy                 -121.13645201
 Two electron energy                   50.24033382
 Virial ratio                           3.05419404

 !MCSCF STATE 1.7 Dipole moment         0.00000000     0.00000000     0.00000000
 Dipole moment /Debye                   0.00000000     0.00000000     0.00000000

 Results for state 2.7
 =====================

 !MCSCF STATE 2.7 Energy              -70.896118192404
 Nuclear energy                         0.00000000
 Kinetic energy                        34.51286327
 One electron energy                 -121.13645201
 Two electron energy                   50.24033382
 Virial ratio                           3.05419404

 !MCSCF STATE 2.7 Dipole moment         0.00000000     0.00000000     0.00000000
 Dipole moment /Debye                   0.00000000     0.00000000     0.00000000

 Results for state 3.7
 =====================

 !MCSCF STATE 3.7 Energy              -70.831811726701
 Nuclear energy                         0.00000000
 Kinetic energy                        34.51286327
 One electron energy                 -121.13645201
 Two electron energy                   50.30464029
 Virial ratio                           3.05233078

 !MCSCF STATE 3.7 Dipole moment         0.00000000     0.00000000     0.00000000
 Dipole moment /Debye                   0.00000000     0.00000000     0.00000000

 State-averaged charge density matrix saved on record  5202.2 (density set 1)

 !MCSCF expec        <1.1|EKIN|1.1>    34.512863271085
 !MCSCF expec        <1.4|EKIN|1.4>    34.512863271091
 !MCSCF expec        <2.4|EKIN|2.4>    34.512863271084
 !MCSCF expec        <3.4|EKIN|3.4>    34.512863271091
 !MCSCF expec        <1.6|EKIN|1.6>    34.512863271091
 !MCSCF expec        <2.6|EKIN|2.6>    34.512863271089
 !MCSCF expec        <3.6|EKIN|3.6>    34.512863271088
 !MCSCF expec        <1.7|EKIN|1.7>    34.512863271091
 !MCSCF expec        <2.7|EKIN|2.7>    34.512863271089
 !MCSCF expec        <3.7|EKIN|3.7>    34.512863271087

 !MCSCF expec         <1.1|POT|1.1>   -12.765848553616
 !MCSCF expec         <1.4|POT|1.4>   -12.765848553617
 !MCSCF expec         <2.4|POT|2.4>   -12.765848553616
 !MCSCF expec         <3.4|POT|3.4>   -12.765848553617
 !MCSCF expec         <1.6|POT|1.6>   -12.765848553617
 !MCSCF expec         <2.6|POT|2.6>   -12.765848553616
 !MCSCF expec         <3.6|POT|3.6>   -12.765848553616
 !MCSCF expec         <1.7|POT|1.7>   -12.765848553617
 !MCSCF expec         <2.7|POT|2.7>   -12.765848553616
 !MCSCF expec         <3.7|POT|3.7>   -12.765848553616


 NATURAL ORBITALS (state averaged)
 =================================

   Orb     Occ        Energy       Coefficients

                                   1 1s      1 1s      1 1s      1 1s      1 1s      1 1s      1 1s      1 1s      1 1s      1 3d0  
                                   1 3d2+    1 3d0     1 3d2+    1 3d0     1 3d2+    1 3d0     1 3d2+    1 3d0     1 3d2+    1 3d0  
                                   1 3d2+    1 3d0     1 3d2+    1 3d0     1 3d2+    1 5g0     1 5g4+    1 5g2+    1 5g0     1 5g4+ 
                                   1 5g2+    1 5g0     1 5g4+    1 5g2+    1 5g0     1 5g4+    1 5g2+    1 7i6+    1 7i4+    1 7i2+ 
                                   1 7i0     1 7i6+    1 7i4+    1 7i2+    1 7i0  

   1.1  2.00000    -3.236079     0.999953  0.000036 -0.000017  0.000001  0.000013 -0.000002 -0.000041  0.000105 -0.000060  0.000000
                                 0.000000  0.000000  0.000000  0.000000  0.000000  0.000000  0.000000  0.000000  0.000000  0.000000
                                 0.000000  0.000000  0.000000  0.000000  0.000000  0.000000  0.000000  0.000000  0.000000  0.000000
                                 0.000000  0.000000  0.000000  0.000000  0.000000  0.000000  0.000000  0.000000  0.000000  0.000000
                                 0.000000  0.000000  0.000000  0.000000  0.000000

   2.1  2.00000    -0.232605     0.000015  1.000046 -0.000008  0.000008  0.000001 -0.000002 -0.000052 -0.000013  0.000011  0.000000
                                 0.000000  0.000000  0.000000  0.000000  0.000000  0.000000  0.000000  0.000000  0.000000  0.000000
                                 0.000000  0.000000  0.000000  0.000000  0.000000  0.000000  0.000000  0.000000  0.000000  0.000000
                                 0.000000  0.000000  0.000000  0.000000  0.000000  0.000000  0.000000  0.000000  0.000000  0.000000
                                 0.000000  0.000000  0.000000  0.000000  0.000000

   3.1  0.60000     0.024687     0.000000  0.000000  0.000000  0.000000  0.000000  0.000000  0.000000  0.000000  0.000000  0.000000
                                 0.995231  0.000000 -0.065279  0.000000 -0.003151  0.000000  0.004635  0.000000 -0.002294  0.000000
                                -0.000996  0.000000 -0.006369  0.000000  0.008871  0.000000  0.000000  0.000000  0.000000  0.000000
                                 0.000000  0.000000  0.000000  0.000000  0.000000  0.000000  0.000000  0.000000  0.000000  0.000000
                                 0.000000  0.000000  0.000000  0.000000  0.000000

   4.1  0.60000     0.024687     0.000000  0.000000  0.000000  0.000000  0.000000  0.000000  0.000000  0.000000  0.000000  0.995231
                                 0.000000 -0.065279  0.000000 -0.003151  0.000000  0.004635  0.000000 -0.002294  0.000000 -0.000996
                                 0.000000 -0.006369  0.000000  0.008871  0.000000  0.000000  0.000000  0.000000  0.000000  0.000000
                                 0.000000  0.000000  0.000000  0.000000  0.000000  0.000000  0.000000  0.000000  0.000000  0.000000
                                 0.000000  0.000000  0.000000  0.000000  0.000000

                                   1 2px     1 2px     1 2px     1 2px     1 2px     1 2px     1 2px     1 2px     1 2px     1 4f1+ 
                                   1 4f3+    1 4f1+    1 4f3+    1 4f1+    1 4f3+    1 4f1+    1 4f3+    1 4f1+    1 4f3+    1 6h1+ 
                                   1 6h3+    1 6h5+    1 6h1+    1 6h3+    1 6h5+    1 6h1+    1 6h3+    1 6h5+ 

   1.2  2.00000    -2.033749     1.000892  0.031376 -0.020466  0.003243  0.000759 -0.000547 -0.007905 -0.000449  0.000274  0.000000
                                 0.000000  0.000000  0.000000  0.000000  0.000000  0.000000  0.000000  0.000000  0.000000  0.000000
                                 0.000000  0.000000  0.000000  0.000000  0.000000  0.000000  0.000000  0.000000

                                   1 2py     1 2py     1 2py     1 2py     1 2py     1 2py     1 2py     1 2py     1 2py     1 4f1- 
                                   1 4f3-    1 4f1-    1 4f3-    1 4f1-    1 4f3-    1 4f1-    1 4f3-    1 4f1-    1 4f3-    1 6h1- 
                                   1 6h3-    1 6h5-    1 6h1-    1 6h3-    1 6h5-    1 6h1-    1 6h3-    1 6h5- 

   1.3  2.00000    -2.033749     1.000892  0.031376 -0.020466  0.003243  0.000759 -0.000547 -0.007905 -0.000449  0.000274  0.000000
                                 0.000000  0.000000  0.000000  0.000000  0.000000  0.000000  0.000000  0.000000  0.000000  0.000000
                                 0.000000  0.000000  0.000000  0.000000  0.000000  0.000000  0.000000  0.000000

                                   1 3d2-    1 3d2-    1 3d2-    1 3d2-    1 3d2-    1 3d2-    1 3d2-    1 3d2-    1 5g2-    1 5g4- 
                                   1 5g2-    1 5g4-    1 5g2-    1 5g4-    1 5g2-    1 5g4-    1 7i2-    1 7i6-    1 7i4-    1 7i2- 
                                   1 7i6-    1 7i4- 

   1.4  0.60000     0.024687     0.995231 -0.065279 -0.003151  0.004635 -0.002294 -0.000996 -0.006369  0.008871  0.000000  0.000000
                                 0.000000  0.000000  0.000000  0.000000  0.000000  0.000000  0.000000  0.000000  0.000000  0.000000
                                 0.000000  0.000000

                                   1 2pz     1 2pz     1 2pz     1 2pz     1 2pz     1 2pz     1 2pz     1 2pz     1 2pz     1 4f0  
                                   1 4f2+    1 4f0     1 4f2+    1 4f0     1 4f2+    1 4f0     1 4f2+    1 4f0     1 4f2+    1 6h2+ 
                                   1 6h4+    1 6h0     1 6h2+    1 6h4+    1 6h0     1 6h2+    1 6h4+    1 6h0  

   1.5  2.00000    -2.033749     1.000892  0.031376 -0.020466  0.003243  0.000759 -0.000547 -0.007905 -0.000449  0.000274  0.000000
                                 0.000000  0.000000  0.000000  0.000000  0.000000  0.000000  0.000000  0.000000  0.000000  0.000000
                                 0.000000  0.000000  0.000000  0.000000  0.000000  0.000000  0.000000  0.000000

                                   1 3d1+    1 3d1+    1 3d1+    1 3d1+    1 3d1+    1 3d1+    1 3d1+    1 3d1+    1 5g1+    1 5g3+ 
                                   1 5g1+    1 5g3+    1 5g1+    1 5g3+    1 5g1+    1 5g3+    1 7i5+    1 7i3+    1 7i1+    1 7i5+ 
                                   1 7i3+    1 7i1+ 

   1.6  0.60000     0.024687     0.995231 -0.065279 -0.003151  0.004635 -0.002294 -0.000996 -0.006369  0.008871  0.000000  0.000000
                                 0.000000  0.000000  0.000000  0.000000  0.000000  0.000000  0.000000  0.000000  0.000000  0.000000
                                 0.000000  0.000000

                                   1 3d1-    1 3d1-    1 3d1-    1 3d1-    1 3d1-    1 3d1-    1 3d1-    1 3d1-    1 5g1-    1 5g3- 
                                   1 5g1-    1 5g3-    1 5g1-    1 5g3-    1 5g1-    1 5g3-    1 7i5-    1 7i3-    1 7i1-    1 7i5- 
                                   1 7i3-    1 7i1- 

   1.7  0.60000     0.024687     0.995231 -0.065279 -0.003151  0.004635 -0.002294 -0.000996 -0.006369  0.008871  0.000000  0.000000
                                 0.000000  0.000000  0.000000  0.000000  0.000000  0.000000  0.000000  0.000000  0.000000  0.000000
                                 0.000000  0.000000
 

 EXTRA SYMMETRY OF MOS IN SYMMETRY 1:   1 1 3 2 1 2 3 1 2 3   1 3 2 2 3 5 4 6 1 2   3 5 4 6 1 2 3 5 4 6   810 9 7 1 2 3 5 4 6
                                       10 8 9 7 1
 EXTRA SYMMETRY OF MOS IN SYMMETRY 2:   1 1 1 1 3 2 1 2 3 1   2 3 5 6 4 1 2 3 5 4   6 1 2 3 5 6 4 1
 EXTRA SYMMETRY OF MOS IN SYMMETRY 3:   1 1 1 1 3 2 1 2 3 1   2 3 5 6 4 1 2 3 5 4   6 1 2 3 5 6 4 1
 EXTRA SYMMETRY OF MOS IN SYMMETRY 4:   1 1 1 1 1 3 2 1 3 2   1 3 2 6 4 5 1 3 2 6   4 5
 EXTRA SYMMETRY OF MOS IN SYMMETRY 5:   1 1 1 1 3 2 1 3 2 1   2 3 6 4 5 1 2 3 6 5   4 1 3 2 6 4 5 1
 EXTRA SYMMETRY OF MOS IN SYMMETRY 6:   1 1 1 1 1 2 3 1 2 3   1 2 3 6 5 4 1 2 3 5   6 4
 EXTRA SYMMETRY OF MOS IN SYMMETRY 7:   1 1 1 1 1 2 3 1 2 3   1 2 3 6 5 4 1 2 3 5   6 4
 EXTRA SYMMETRY OF MOS IN SYMMETRY 8:   1 1 1 3 2 1 3 2 1 3   2

 Natural orbital dump (state averaged) at molpro section  5202.2    (Orbital set 2)


 CI vector for state symmetry 1
 ==============================

 00 a a a          1.0000000

 TOTAL ENERGIES                       -70.89611819

 CI vector for state symmetry 2
 ==============================

 a0 0 a a         -0.0008371   0.9999996   0.0000000
 0a 0 a a          0.4472134   0.0003744   0.8944272
 aa a 0 0          0.8944269   0.0007487  -0.4472136

 TOTAL ENERGIES                       -70.89611819   -70.89611819   -70.83181173

 CI vector for state symmetry 3
 ==============================

 a0 a 0 a         -0.0117782   0.6323459   0.7745967
 0a a 0 a          0.7171844  -0.5344592   0.4472136
 aa 0 a 0          0.6967839   0.5607960  -0.4472136

 TOTAL ENERGIES                       -70.89611819   -70.89611819   -70.83181173

 CI vector for state symmetry 4
 ==============================

 a0 a a 0          0.0049472   0.6324362   0.7745967
 aa 0 0 a          0.7113696   0.5421746  -0.4472136
 0a a a 0         -0.7028007   0.5532370  -0.4472136

 TOTAL ENERGIES                       -70.89611819   -70.89611819   -70.83181173



 **********************************************************************************************************************************
 DATASETS  * FILE   NREC   LENGTH (MB)   RECORD NAMES
              1      21      137.89       500      610      700      900      950      970     1000      129      960     1100   
                                          VAR    BASINP    GEOM    SYMINP    ZMAT    AOBASIS   BASIS     P2S    ABASIS      S 
                                         1400     1410     1420     1200     1210     1080     1600     1650     1300     1700   
                                         EKIN       V       ECP      H0       H01     AOSYM     SMH    MOLCAS    ERIS     OPER   
                                         1380   
                                         JKOP   

              2       5        5.67       700     1000      520     4202     5202   
                                         GEOM     BASIS   MCVARS     RHF     MCSCF   

 PROGRAMS   *        TOTAL     MULTI       RHF       INT
 CPU TIMES  *        17.08      1.93      1.28     13.72
 REAL TIME  *        27.68 SEC
 DISK USED  *       429.41 MB      
 **********************************************************************************************************************************


 PROGRAM * RHF-SCF (OPEN SHELL)       Authors: W. Meyer, H.-J. Werner


 NUMBER OF ELECTRONS:       8+    5-    SPACE SYMMETRY=1    SPIN SYMMETRY: Quartet 
 CONVERGENCE THRESHOLDS:    1.00E-05 (Density)    1.00E-07 (Energy)
 MAX. NUMBER OF ITERATIONS:        0
 INTERPOLATION TYPE:            DIIS
 INTERPOLATION STEPS:              2 (START)      1 (STEP)
 LEVEL SHIFTS:                 -0.60 (CLOSED) -0.30 (OPEN) 


 Singly occupied orbitals:      1.4       1.6       1.7
 Molecular orbitals read from record     5202.2  Type=MCSCF/NATURAL (state averaged)

 Molecular orbital dump at record        2101.2

 ITERATION    DDIFF          GRAD             ENERGY        2-EL.EN.            DIPOLE MOMENTS         DIIS   ORB.
    1      0.000D+00      0.000D+00       -70.89611819    100.480668    0.00000    0.00000    0.00000    0    start

 Final alpha occupancy:   2   1   1   1   1   1   1   0
 Final beta  occupancy:   2   1   1   0   1   0   0   0

 !RHF STATE 1.1 Energy                -70.896118192404
 Nuclear energy                         0.00000000
 One-electron energy                 -121.13645201
 Two-electron energy                   50.24033382
 Virial quotient                       -2.05419404
 !RHF STATE 1.1 Dipole moment           0.00000000     0.00000000     0.00000000
 Dipole moment /Debye                   0.00000000     0.00000000     0.00000000
 

 !RHF expec          <1.1|EKIN|1.1>    34.512863271085
 
 !RHF expec           <1.1|POT|1.1>   -12.765848553616

 ELECTRON ORBITALS
 =================


   Orb  Occ    Energy  Couls-En    Coefficients

                                   1 1s      1 1s      1 1s      1 1s      1 1s      1 1s      1 1s      1 1s      1 1s      1 3d0  
                                   1 3d2+    1 3d0     1 3d2+    1 3d0     1 3d2+    1 3d0     1 3d2+    1 3d0     1 3d2+    1 3d0  
                                   1 3d2+    1 3d0     1 3d2+    1 3d0     1 3d2+    1 5g0     1 5g4+    1 5g2+    1 5g0     1 5g4+ 
                                   1 5g2+    1 5g0     1 5g4+    1 5g2+    1 5g0     1 5g4+    1 5g2+    1 7i6+    1 7i4+    1 7i2+ 
                                   1 7i0     1 7i6+    1 7i4+    1 7i2+    1 7i0  

   1.1   2    -3.2361  -15.1602  0.999953  0.000036 -0.000017  0.000001  0.000013 -0.000002 -0.000041  0.000105 -0.000060  0.000000
                                 0.000000  0.000000  0.000000  0.000000  0.000000  0.000000  0.000000  0.000000  0.000000  0.000000
                                 0.000000  0.000000  0.000000  0.000000  0.000000  0.000000  0.000000  0.000000  0.000000  0.000000
                                 0.000000  0.000000  0.000000  0.000000  0.000000  0.000000  0.000000  0.000000  0.000000  0.000000
                                 0.000000  0.000000  0.000000  0.000000  0.000000

   2.1   2    -0.2326   -4.2556  0.000015  1.000046 -0.000008  0.000008  0.000001 -0.000002 -0.000052 -0.000013  0.000011  0.000000
                                 0.000000  0.000000  0.000000  0.000000  0.000000  0.000000  0.000000  0.000000  0.000000  0.000000
                                 0.000000  0.000000  0.000000  0.000000  0.000000  0.000000  0.000000  0.000000  0.000000  0.000000
                                 0.000000  0.000000  0.000000  0.000000  0.000000  0.000000  0.000000  0.000000  0.000000  0.000000
                                 0.000000  0.000000  0.000000  0.000000  0.000000

                                   1 2px     1 2px     1 2px     1 2px     1 2px     1 2px     1 2px     1 2px     1 2px     1 4f1+ 
                                   1 4f3+    1 4f1+    1 4f3+    1 4f1+    1 4f3+    1 4f1+    1 4f3+    1 4f1+    1 4f3+    1 6h1+ 
                                   1 6h3+    1 6h5+    1 6h1+    1 6h3+    1 6h5+    1 6h1+    1 6h3+    1 6h5+ 

   1.2   2    -2.0337  -12.7307  1.000892  0.031376 -0.020466  0.003243  0.000759 -0.000547 -0.007905 -0.000449  0.000274  0.000000
                                 0.000000  0.000000  0.000000  0.000000  0.000000  0.000000  0.000000  0.000000  0.000000  0.000000
                                 0.000000  0.000000  0.000000  0.000000  0.000000  0.000000  0.000000  0.000000

                                   1 2py     1 2py     1 2py     1 2py     1 2py     1 2py     1 2py     1 2py     1 2py     1 4f1- 
                                   1 4f3-    1 4f1-    1 4f3-    1 4f1-    1 4f3-    1 4f1-    1 4f3-    1 4f1-    1 4f3-    1 6h1- 
                                   1 6h3-    1 6h5-    1 6h1-    1 6h3-    1 6h5-    1 6h1-    1 6h3-    1 6h5- 

   1.3   2    -2.0337  -12.7307  1.000892  0.031376 -0.020466  0.003243  0.000759 -0.000547 -0.007905 -0.000449  0.000274  0.000000
                                 0.000000  0.000000  0.000000  0.000000  0.000000  0.000000  0.000000  0.000000  0.000000  0.000000
                                 0.000000  0.000000  0.000000  0.000000  0.000000  0.000000  0.000000  0.000000

                                   1 3d2-    1 3d2-    1 3d2-    1 3d2-    1 3d2-    1 3d2-    1 3d2-    1 3d2-    1 5g2-    1 5g4- 
                                   1 5g2-    1 5g4-    1 5g2-    1 5g4-    1 5g2-    1 5g4-    1 7i2-    1 7i6-    1 7i4-    1 7i2- 
                                   1 7i6-    1 7i4- 

   1.4   +     0.0247   -8.3288  0.995231 -0.065279 -0.003151  0.004635 -0.002294 -0.000996 -0.006369  0.008871  0.000000  0.000000
                                 0.000000  0.000000  0.000000  0.000000  0.000000  0.000000  0.000000  0.000000  0.000000  0.000000
                                 0.000000  0.000000

                                   1 2pz     1 2pz     1 2pz     1 2pz     1 2pz     1 2pz     1 2pz     1 2pz     1 2pz     1 4f0  
                                   1 4f2+    1 4f0     1 4f2+    1 4f0     1 4f2+    1 4f0     1 4f2+    1 4f0     1 4f2+    1 6h2+ 
                                   1 6h4+    1 6h0     1 6h2+    1 6h4+    1 6h0     1 6h2+    1 6h4+    1 6h0  

   1.5   2    -2.0337  -12.7307  1.000892  0.031376 -0.020466  0.003243  0.000759 -0.000547 -0.007905 -0.000449  0.000274  0.000000
                                 0.000000  0.000000  0.000000  0.000000  0.000000  0.000000  0.000000  0.000000  0.000000  0.000000
                                 0.000000  0.000000  0.000000  0.000000  0.000000  0.000000  0.000000  0.000000

                                   1 3d1+    1 3d1+    1 3d1+    1 3d1+    1 3d1+    1 3d1+    1 3d1+    1 3d1+    1 5g1+    1 5g3+ 
                                   1 5g1+    1 5g3+    1 5g1+    1 5g3+    1 5g1+    1 5g3+    1 7i5+    1 7i3+    1 7i1+    1 7i5+ 
                                   1 7i3+    1 7i1+ 

   1.6   +     0.0247   -8.3288  0.995231 -0.065279 -0.003151  0.004635 -0.002294 -0.000996 -0.006369  0.008871  0.000000  0.000000
                                 0.000000  0.000000  0.000000  0.000000  0.000000  0.000000  0.000000  0.000000  0.000000  0.000000
                                 0.000000  0.000000

                                   1 3d1-    1 3d1-    1 3d1-    1 3d1-    1 3d1-    1 3d1-    1 3d1-    1 3d1-    1 5g1-    1 5g3- 
                                   1 5g1-    1 5g3-    1 5g1-    1 5g3-    1 5g1-    1 5g3-    1 7i5-    1 7i3-    1 7i1-    1 7i5- 
                                   1 7i3-    1 7i1- 

   1.7   +     0.0247   -8.3288  0.995231 -0.065279 -0.003151  0.004635 -0.002294 -0.000996 -0.006369  0.008871  0.000000  0.000000
                                 0.000000  0.000000  0.000000  0.000000  0.000000  0.000000  0.000000  0.000000  0.000000  0.000000
                                 0.000000  0.000000

 HOMO      1.4     0.024687 =       0.6718eV
 LUMO      3.1     0.024687 =       0.6718eV
 LUMO-HOMO        -0.000000 =      -0.0000eV


 **********************************************************************************************************************************
 DATASETS  * FILE   NREC   LENGTH (MB)   RECORD NAMES
              1      21      137.89       500      610      700      900      950      970     1000      129      960     1100   
                                          VAR    BASINP    GEOM    SYMINP    ZMAT    AOBASIS   BASIS     P2S    ABASIS      S 
                                         1400     1410     1420     1200     1210     1080     1600     1650     1300     1700   
                                         EKIN       V       ECP      H0       H01     AOSYM     SMH    MOLCAS    ERIS     OPER   
                                         1380   
                                         JKOP   

              2       6        8.62       700     1000      520     4202     5202     2101   
                                         GEOM     BASIS   MCVARS     RHF     MCSCF     RHF  

 PROGRAMS   *        TOTAL       RHF     MULTI       RHF       INT
 CPU TIMES  *        17.19      0.10      1.93      1.28     13.72
 REAL TIME  *        27.91 SEC
 DISK USED  *       429.41 MB      
 **********************************************************************************************************************************
 SETTING SCF(I)         =       -70.89611819  AU                              
 SETTING _CC_NORM_MAX   =         2.00000000                                  


 PROGRAM * CCSD (Unrestricted open-shell coupled cluster)     Authors: C. Hampel, H.-J. Werner, 1991, M. Deegan, P.J. Knowles, 1992


 Convergence thresholds:  THRVAR = 1.00D-08  THRDEN = 1.00D-06

 CCSD(T)     terms to be evaluated (factor= 1.000)


 Number of closed-shell orbitals:   5 (   2   1   1   0   1   0   0   0 )
 Number of active  orbitals:        3 (   0   0   0   1   0   1   1   0 )
 Number of external orbitals:     198 (  43  27  27  21  27  21  21  11 )

 Memory could be reduced to 15.67 Mwords without degradation in triples

 Number of N-1 electron functions:              13
 Number of N-2 electron functions:              78
 Number of singly external CSFs:               400
 Number of doubly external CSFs:            300664
 Total number of CSFs:                      301064

 Molecular orbitals read from record     2101.2  Type=RHF/CANONICAL (state 1.1)

 Integral transformation finished. Total CPU:   0.54 sec, npass=  1  Memory used:   3.22 MW

 Starting RMP2 calculation

 ITER.      SQ.NORM     CORR.ENERGY   TOTAL ENERGY   ENERGY CHANGE        DEN1      VAR(S)    VAR(P)  DIIS     TIME
   1      1.09954339    -0.49676487   -71.39288306    -0.49676487    -0.00170912  0.38D-04  0.12D-02  1  1     0.56
   2      1.10296615    -0.49861193   -71.39473012    -0.00184706    -0.00004336  0.21D-05  0.43D-04  2  2     0.58
   3      1.10369879    -0.49885497   -71.39497316    -0.00024304    -0.00000084  0.49D-07  0.65D-06  3  3     0.60
   4      1.10376867    -0.49887405   -71.39499224    -0.00001908    -0.00000002  0.32D-09  0.22D-07  4  4     0.63
   5      1.10376206    -0.49887208   -71.39499027     0.00000197    -0.00000000  0.90D-11  0.34D-09  5  5     0.67
   6      1.10376100    -0.49887188   -71.39499007     0.00000020    -0.00000000  0.74D-12  0.39D-11  6  6     0.69

 Norm of t1 vector:      0.04878250      S-energy:    -0.00766996      T1 diagnostic:  0.00405911
 Norm of t2 vector:      0.31840425      P-energy:    -0.49120192
                                         Alpha-Beta:  -0.35886140
                                         Alpha-Alpha: -0.08895519
                                         Beta-Beta:   -0.04338534

 Spin contamination <S**2-Sz**2-Sz>     0.00721435
  Reference energy                    -70.896118192404
  RHF-RMP2 correlation energy          -0.498871875806
 !RHF-RMP2 energy                     -71.394990068210

 Starting UCCSD calculation

 ITER.      SQ.NORM     CORR.ENERGY   TOTAL ENERGY   ENERGY CHANGE        DEN1      VAR(S)    VAR(P)  DIIS     TIME
   1      1.10672274    -0.49952335   -71.39564154    -0.49952335    -0.00855527  0.23D-02  0.30D-02  1  1     1.63
   2      1.12241716    -0.50804572   -71.40416391    -0.00852237    -0.00113173  0.44D-03  0.68D-03  2  2     2.57
   3      1.13305335    -0.51052088   -71.40663907    -0.00247516    -0.00020739  0.12D-03  0.12D-03  3  3     3.49
   4      1.14053162    -0.51185703   -71.40797523    -0.00133616    -0.00001721  0.73D-05  0.88D-05  4  4     4.43
   5      1.14238025    -0.51209404   -71.40821223    -0.00023701    -0.00000268  0.32D-06  0.16D-05  5  5     5.36
   6      1.14268285    -0.51212185   -71.40824004    -0.00002780    -0.00000085  0.23D-07  0.58D-06  6  6     6.26
   7      1.14274471    -0.51212833   -71.40824652    -0.00000649    -0.00000026  0.27D-07  0.16D-06  6  2     7.22
   8      1.14269290    -0.51212256   -71.40824075     0.00000578    -0.00000005  0.71D-08  0.29D-07  6  1     8.16
   9      1.14270115    -0.51212591   -71.40824410    -0.00000335    -0.00000001  0.11D-08  0.59D-08  6  3     9.12
  10      1.14270193    -0.51212558   -71.40824377     0.00000033    -0.00000000  0.11D-09  0.90D-09  6  4    10.08

 Norm of t1 vector:      0.11545443      S-energy:    -0.00699944      T1 diagnostic:  0.02001188
                                                                       D1 diagnostic:  0.06844179
 Norm of t2 vector:      0.35968348      P-energy:    -0.50512614
                                         Alpha-Beta:  -0.37805735
                                         Alpha-Alpha: -0.08632872
                                         Beta-Beta:   -0.04074007

 Singles amplitudes (print threshold =  0.500E-01):

         I         SYM. A    A   T(IA) [Alpha-Alpha]

         2         1         3     -0.07624439
         2         1         6      0.06098467

 Doubles amplitudes (print threshold =  0.500E-01):

         I         J         SYM. A    SYM. B    A         B      T(IJ, AB) [Alpha-Beta]

         2         2         2         2         1         1     -0.07947275
         2         2         2         2         1         2     -0.05347778
         2         2         2         2         2         1     -0.05744049
         2         2         3         3         1         1     -0.07947275
         2         2         3         3         1         2     -0.05347778
         2         2         3         3         2         1     -0.05744049
         2         2         5         5         1         1     -0.07947274
         2         2         5         5         1         2     -0.05347778
         2         2         5         5         2         1     -0.05744049

 Spin contamination <S**2-Sz**2-Sz>     0.00585998

 Memory could be reduced to 16.67 Mwords without degradation in triples
 

  Correlated core orbitals:             1.1       1.2       1.3       1.5
  Orbital energies:                    -3.3479   -2.1702   -2.1702   -2.1702
 
  UCCSD core-core energy               -0.242839035414
  UCCSD core-valence energy            -0.197543332077
  UCCSD valence correlation energy     -0.071743212339
 

 RESULTS
 =======

  Reference energy                    -70.896118192404
  UCCSD singles energy                 -0.006999439000
  UCCSD pair energy                    -0.505126140830
  UCCSD correlation energy             -0.512125579830
  Triples (T) contribution             -0.017667887793
  Total correlation energy             -0.529793467623
 
  RHF-UCCSD energy                    -71.408243772234
  RHF-UCCSD[T] energy                 -71.426076014532
  RHF-UCCSD-T energy                  -71.425889544346
 !RHF-UCCSD(T) energy                 -71.425911660027

 Program statistics:

 Available memory in ccsd:               511999308
 Min. memory needed in ccsd:                995844
 Max. memory used in ccsd:                 1348091
 Max. memory used in cckext:               1055058 (10 integral passes)
 Max. memory used in cckint:               3218350 ( 1 integral passes)



 **********************************************************************************************************************************
 DATASETS  * FILE   NREC   LENGTH (MB)   RECORD NAMES
              1      21      137.89       500      610      700      900      950      970     1000      129      960     1100   
                                          VAR    BASINP    GEOM    SYMINP    ZMAT    AOBASIS   BASIS     P2S    ABASIS      S 
                                         1400     1410     1420     1200     1210     1080     1600     1650     1300     1700   
                                         EKIN       V       ECP      H0       H01     AOSYM     SMH    MOLCAS    ERIS     OPER   
                                         1380   
                                         JKOP   

              2       6        8.62       700     1000      520     4202     5202     2101   
                                         GEOM     BASIS   MCVARS     RHF     MCSCF     RHF  

 PROGRAMS   *        TOTAL  UCCSD(T)       RHF     MULTI       RHF       INT
 CPU TIMES  *        43.81     26.62      0.10      1.93      1.28     13.72
 REAL TIME  *        59.33 SEC
 DISK USED  *       429.41 MB      
 **********************************************************************************************************************************
 SETTING POSTHF(I)      =       -71.42591166  AU                              
                                                                                                                                                                                                                                                                

        SCF            POSTHF        EKIN           POT
    -70.89611819   -71.42591166   34.51286327   -12.76584855
                                                  

 UCCSD(T)/USERDEF energy=    -71.425911660027

        UCCSD(T)        RHF-SCF         MULTI           RHF-SCF 
    -71.42591166    -70.89611819    -70.83181173    -70.88707243
 **********************************************************************************************************************************
 Variable memory released
