----- GAMESS execution script 'rungms' -----
This job is running on host c437-073.stampede2.tacc.utexas.edu
under operating system Linux at Fri Sep 28 23:29:33 CDT 2018
Available scratch disk space (Kbyte units) at beginning of the job is
Filesystem               1K-blocks  Used Available Use% Mounted on
/dev/mapper/rootvg01-tmp 111414116 41800 111372316   1% /tmp
GAMESS temporary binary files will be written to /tmp
GAMESS supplementary output files will be written to /work/04843/aannabe/stampede2/docs/totals/S/5Z
Copying input file S.inp to your run's scratch directory...

 Distributed Data Interface kickoff program.
 Initiating 1 compute processes on 1 nodes to run the following command:
 /work/04843/aannabe/stampede2/codes/gamess-mcb/gamess/gamess.00.x S 

          ******************************************************
          *         GAMESS VERSION =  1 MAY 2013 (R1)          *
          *             FROM IOWA STATE UNIVERSITY             *
          * M.W.SCHMIDT, K.K.BALDRIDGE, J.A.BOATZ, S.T.ELBERT, *
          *   M.S.GORDON, J.H.JENSEN, S.KOSEKI, N.MATSUNAGA,   *
          *          K.A.NGUYEN, S.J.SU, T.L.WINDUS,           *
          *       TOGETHER WITH M.DUPUIS, J.A.MONTGOMERY       *
          *         J.COMPUT.CHEM.  14, 1347-1363(1993)        *
          **************** 64 BIT INTEL VERSION ****************

  SINCE 1993, STUDENTS AND POSTDOCS WORKING AT IOWA STATE UNIVERSITY
  AND ALSO IN THEIR VARIOUS JOBS AFTER LEAVING ISU HAVE MADE IMPORTANT
  CONTRIBUTIONS TO THE CODE:
     IVANA ADAMOVIC, CHRISTINE AIKENS, YURI ALEXEEV, POOJA ARORA,
     ANDREY ASADCHEV, ROB BELL, PRADIPTA BANDYOPADHYAY, JONATHAN BENTZ,
     BRETT BODE, GALINA CHABAN, WEI CHEN, CHEOL HO CHOI, PAUL DAY,
     ALBERT DEFUSCO, TIM DUDLEY, DMITRI FEDOROV, GRAHAM FLETCHER,
     MARK FREITAG, KURT GLAESEMANN, DAN KEMP, GRANT MERRILL,
     NORIYUKI MINEZAWA, JONATHAN MULLIN, TAKESHI NAGATA,
     SEAN NEDD, HEATHER NETZLOFF, BOSILJKA NJEGIC, RYAN OLSON, MIKE PAK,
     JIM SHOEMAKER, LYUDMILA SLIPCHENKO, SAROM SOK, JIE SONG,
     TETSUYA TAKETSUGU, SIMON WEBB, SOOHAENG YOO, FEDERICO ZAHARIEV

  ADDITIONAL CODE HAS BEEN PROVIDED BY COLLABORATORS IN OTHER GROUPS:
     IOWA STATE UNIVERSITY:
          JOE IVANIC, LAIMUTIS BYTAUTAS, KLAUS RUEDENBERG
     UNIVERSITY OF TOKYO: KIMIHIKO HIRAO, TAKAHITO NAKAJIMA,
          TAKAO TSUNEDA, MUNEAKI KAMIYA, SUSUMU YANAGISAWA,
          KIYOSHI YAGI, MAHITO CHIBA, SEIKEN TOKURA, NAOAKI KAWAKAMI
     UNIVERSITY OF AARHUS: FRANK JENSEN
     UNIVERSITY OF IOWA: VISVALDAS KAIRYS, HUI LI
     NATIONAL INST. OF STANDARDS AND TECHNOLOGY: WALT STEVENS, DAVID GARMER
     UNIVERSITY OF PISA: BENEDETTA MENNUCCI, JACOPO TOMASI
     UNIVERSITY OF MEMPHIS: HENRY KURTZ, PRAKASHAN KORAMBATH
     UNIVERSITY OF ALBERTA: TOBY ZENG, MARIUSZ KLOBUKOWSKI
     UNIVERSITY OF NEW ENGLAND: MARK SPACKMAN
     MIE UNIVERSITY: HIROAKI UMEDA
     MICHIGAN STATE UNIVERSITY:
          KAROL KOWALSKI, MARTA WLOCH, JEFFREY GOUR, JESSE LUTZ,
          WEI LI, PIOTR PIECUCH
     UNIVERSITY OF SILESIA: MONIKA MUSIAL, STANISLAW KUCHARSKI
     FACULTES UNIVERSITAIRES NOTRE-DAME DE LA PAIX:
          OLIVIER QUINET, BENOIT CHAMPAGNE
     UNIVERSITY OF CALIFORNIA - SANTA BARBARA: BERNARD KIRTMAN
     INSTITUTE FOR MOLECULAR SCIENCE:
          KAZUYA ISHIMURA, MICHIO KATOUDA, AND SHIGERU NAGASE
     UNIVERSITY OF NOTRE DAME: DAN CHIPMAN
     KYUSHU UNIVERSITY:
          HARUYUKI NAKANO,
          FENG LONG GU, JACEK KORCHOWIEC, MARCIN MAKOWSKI, AND YURIKO AOKI,
          HIROTOSHI MORI AND EISAKU MIYOSHI
     PENNSYLVANIA STATE UNIVERSITY:
          TZVETELIN IORDANOV, CHET SWALINA, JONATHAN SKONE,
          SHARON HAMMES-SCHIFFER
     WASEDA UNIVERSITY:
          MASATO KOBAYASHI, TOMOKO AKAMA, TSUGUKI TOUMA,
          TAKESHI YOSHIKAWA, YASUHIRO IKABATA, HIROMI NAKAI
     NANJING UNIVERSITY: SHUHUA LI
     UNIVERSITY OF NEBRASKA:
          PEIFENG SU, DEJUN SI, NANDUN THELLAMUREGE, YALI WANG, HUI LI
     UNIVERSITY OF ZURICH:
          ROBERTO PEVERATI, KIM BALDRIDGE
     N. COPERNICUS UNIVERSITY AND JACKSON STATE UNIVERSITY:
          MARIA BARYSZ

 EXECUTION OF GAMESS BEGUN Fri Sep 28 23:29:34 2018

            ECHO OF THE FIRST FEW INPUT CARDS -
 INPUT CARD> $CONTRL                                                                        
 INPUT CARD>     SCFTYP=ROHF                                                                
 INPUT CARD>     MULT=3                                                                     
 INPUT CARD>     ICHARG=0                                                                   
 INPUT CARD>     RUNTYP=ENERGY                                                              
 INPUT CARD>     MAXIT=150                                                                  
 INPUT CARD>     ECP=READ                                                                   
 INPUT CARD>     ISPHER=1                                                                   
 INPUT CARD> $END                                                                           
 INPUT CARD>                                                                                
 INPUT CARD> $SYSTEM                                                                        
 INPUT CARD>     KDIAG=3                                                                    
 INPUT CARD> $END                                                                           
 INPUT CARD>                                                                                
 INPUT CARD> $GUESS                                                                         
 INPUT CARD>    GUESS=HUCKEL                                                                
 INPUT CARD> $END                                                                           
 INPUT CARD>                                                                                
 INPUT CARD>                                                                                
 INPUT CARD> $DATA                                                                          
 INPUT CARD>                                                                                
 INPUT CARD>C1                                                                              
 INPUT CARD>S 16    0. 0. 0.                                                                
 INPUT CARD>S  10                                                                           
 INPUT CARD>  1 14.052570  0.002102                                                         
 INPUT CARD>  2  7.864913 -0.011042                                                         
 INPUT CARD>  3  4.401818  0.086618                                                         
 INPUT CARD>  4  2.463600 -0.271004                                                         
 INPUT CARD>  5  1.378823 -0.151274                                                         
 INPUT CARD>  6  0.771696  0.136044                                                         
 INPUT CARD>  7  0.431901  0.394360                                                         
 INPUT CARD>  8  0.241726  0.432098                                                         
 INPUT CARD>  9  0.135289  0.230974                                                         
 INPUT CARD> 10  0.075718  0.051205                                                         
 INPUT CARD>S   1                                                                           
 INPUT CARD>  1  1.063029  1.000000                                                         
 INPUT CARD>S   1                                                                           
 INPUT CARD>  1  0.493066  1.000000                                                         
 INPUT CARD>S   1                                                                           
 INPUT CARD>  1  0.228700  1.000000                                                         
 INPUT CARD>S   1                                                                           
 INPUT CARD>  1  0.106078  1.000000                                                         
 INPUT CARD>P  10                                                                           
 INPUT CARD>  1  6.808844 -0.003573                                                         
 INPUT CARD>  2  3.941560  0.001903                                                         
 INPUT CARD>  3  2.281723 -0.065016                                                         
 INPUT CARD>  4  1.320863  0.042305                                                         
 INPUT CARD>  5  0.764632  0.158772                                                         
 INPUT CARD>  6  0.442637  0.278172                                                         
 INPUT CARD>  7  0.256237  0.293821                                                         
    1000000 WORDS OF MEMORY AVAILABLE


     RUN TITLE
     ---------
                                                                                 

 THE POINT GROUP OF THE MOLECULE IS C1      
 THE ORDER OF THE PRINCIPAL AXIS IS     0

 ATOM      ATOMIC                      COORDINATES (BOHR)
           CHARGE         X                   Y                   Z
 S          16.0     0.0000000000        0.0000000000        0.0000000000

          INTERNUCLEAR DISTANCES (ANGS.)
          ------------------------------

                1 S     

   1 S       0.0000000  

  * ... LESS THAN  3.000


     ATOMIC BASIS SET
     ----------------
 THE CONTRACTED PRIMITIVE FUNCTIONS HAVE BEEN UNNORMALIZED
 THE CONTRACTED BASIS FUNCTIONS ARE NOW NORMALIZED TO UNITY

  SHELL TYPE  PRIMITIVE        EXPONENT          CONTRACTION COEFFICIENT(S)

 S         

      1   S       1            14.0525700    0.002102001300
      1   S       2             7.8649130   -0.011042006827
      1   S       3             4.4018180    0.086618053553
      1   S       4             2.4636000   -0.271004167553
      1   S       5             1.3788230   -0.151274093528
      1   S       6             0.7716960    0.136044084112
      1   S       7             0.4319010    0.394360243820
      1   S       8             0.2417260    0.432098267152
      1   S       9             0.1352890    0.230974142804
      1   S      10             0.0757180    0.051205031658

      2   S      11             1.0630290    1.000000000000

      3   S      12             0.4930660    1.000000000000

      4   S      13             0.2287000    1.000000000000

      5   S      14             0.1060780    1.000000000000

      6   P      15             6.8088440   -0.003572996456
      6   P      16             3.9415600    0.001902998113
      6   P      17             2.2817230   -0.065015935516
      6   P      18             1.3208630    0.042304958041
      6   P      19             0.7646320    0.158771842528
      6   P      20             0.4426370    0.278171724106
      6   P      21             0.2562370    0.293820708585
      6   P      22             0.1483330    0.248014754016
      6   P      23             0.0858680    0.114904886036
      6   P      24             0.0497080    0.032933967336

      7   P      25             2.3406190    1.000000000000

      8   P      26             1.0919010    1.000000000000

      9   P      27             0.5093730    1.000000000000

     10   P      28             0.2376230    1.000000000000

     11   D      29             2.9700370    1.000000000000

     12   D      30             1.1999400    1.000000000000

     13   D      31             0.4847940    1.000000000000

     14   D      32             0.1958640    1.000000000000

     15   F      33             1.2476010    1.000000000000

     16   F      34             0.5664370    1.000000000000

     17   F      35             0.2571740    1.000000000000

     18   G      36             1.0843190    1.000000000000

     19   G      37             0.4615400    1.000000000000

 TOTAL NUMBER OF BASIS SET SHELLS             =   19
 NUMBER OF CARTESIAN GAUSSIAN BASIS FUNCTIONS =  104
 NOTE: THIS RUN WILL RESTRICT THE MO VARIATION SPACE TO SPHERICAL HARMONICS.
 THE NUMBER OF ORBITALS KEPT IN THE VARIATIONAL SPACE WILL BE PRINTED LATER.
 NUMBER OF ELECTRONS                          =   16
 CHARGE OF MOLECULE                           =    0
 SPIN MULTIPLICITY                            =    3
 NUMBER OF OCCUPIED ORBITALS (ALPHA)          =    9
 NUMBER OF OCCUPIED ORBITALS (BETA )          =    7
 TOTAL NUMBER OF ATOMS                        =    1
 THE NUCLEAR REPULSION ENERGY IS        0.0000000000
 NOTE THIS RUN IS USING CORE POTENTIALS, AND THE NUMBER OF ELECTRONS,
 OCCUPIED ORBITALS, AND NUCLEAR REPULSION ENERGY WILL BE ADJUSTED BELOW
 AFTER REMOVAL OF THE CORE CHARGES.

 THIS MOLECULE IS RECOGNIZED AS BEING LINEAR,
 ORBITAL LZ DEGENERACY TOLERANCE ETOLLZ= 1.00E-06

     $CONTRL OPTIONS
     ---------------
 SCFTYP=ROHF         RUNTYP=ENERGY       EXETYP=RUN     
 MPLEVL=       0     CITYP =NONE         CCTYP =NONE         VBTYP =NONE    
 DFTTYP=NONE         TDDFT =NONE    
 MULT  =       3     ICHARG=       0     NZVAR =       0     COORD =UNIQUE  
 PP    =READ         RELWFN=NONE         LOCAL =NONE         NUMGRD=       F
 ISPHER=       1     NOSYM =       0     MAXIT =     150     UNITS =ANGS    
 PLTORB=       F     MOLPLT=       F     AIMPAC=       F     FRIEND=        
 NPRINT=       7     IREST =       0     GEOM  =INPUT   
 NORMF =       0     NORMP =       0     ITOL  =      20     ICUT  =       9
 INTTYP=BEST         GRDTYP=BEST         QMTTOL= 1.0E-06

     $SYSTEM OPTIONS
     ---------------
  REPLICATED MEMORY=     1000000 WORDS (ON EVERY NODE).
 DISTRIBUTED MEMDDI=           0 MILLION WORDS IN AGGREGATE,
 MEMDDI DISTRIBUTED OVER   1 PROCESSORS IS           0 WORDS/PROCESSOR.
 TOTAL MEMORY REQUESTED ON EACH PROCESSOR=     1000000 WORDS.
 TIMLIM=      525600.00 MINUTES, OR     365.0 DAYS.
 PARALL= F  BALTYP=  DLB     KDIAG=    3  COREFL= F
 MXSEQ2=     300 MXSEQ3=     150

          --------------
          ECP POTENTIALS
          --------------

 PARAMETERS FOR "S-CCECP " ON ATOM    1 WITH ZCORE  10 AND LMAX  2 ARE
 FOR L= 2      COEFF    N           ZETA
    1        6.00000    1        6.15114
    2       36.90686    3       11.56157
    3      -19.81953    2        5.39096
 FOR L= 0      COEFF    N           ZETA
    1       15.92575    2       16.11769
    2       38.51590    2        3.60863
 FOR L= 1      COEFF    N           ZETA
    1        8.06222    2        6.22896
    2       18.73753    2        2.97807

 THE ECP RUN REMOVES   10 CORE ELECTRONS, AND THE SAME NUMBER OF PROTONS.
 NUMBER OF ELECTRONS KEPT IN THE CALCULATION IS =    6
 NUMBER OF OCCUPIED ORBITALS (ALPHA) KEPT IS    =    4
 NUMBER OF OCCUPIED ORBITALS (BETA ) KEPT IS    =    2
 THE ADJUSTED NUCLEAR REPULSION ENERGY=        0.0000000000
          ECP ANGULAR INTS.........     0.06 SECONDS

          ----------------
          PROPERTIES INPUT
          ----------------

     MOMENTS            FIELD           POTENTIAL          DENSITY
 IEMOM =       1   IEFLD =       0   IEPOT =       0   IEDEN =       0
 WHERE =COMASS     WHERE =NUCLEI     WHERE =NUCLEI     WHERE =NUCLEI  
 OUTPUT=BOTH       OUTPUT=BOTH       OUTPUT=BOTH       OUTPUT=BOTH    
 IEMINT=       0   IEFINT=       0                     IEDINT=       0
                                                       MORB  =       0
          EXTRAPOLATION IN EFFECT
          SOSCF IN EFFECT
 ORBITAL PRINTING OPTION: NPREO=     1   104     2     1

     -------------------------------
     INTEGRAL TRANSFORMATION OPTIONS
     -------------------------------
     NWORD  =            0
     CUTOFF = 1.0E-09     MPTRAN =       0
     DIRTRF =       F     AOINTS =DUP     

          ----------------------
          INTEGRAL INPUT OPTIONS
          ----------------------
 NOPK  =       1 NORDER=       0 SCHWRZ=       F

     ------------------------------------------
     THE POINT GROUP IS C1 , NAXIS= 0, ORDER= 1
     ------------------------------------------

 -- VARIATIONAL SPACE WILL BE RESTRICTED TO PURE SPHERICAL HARMONICS ONLY --
 AFTER EXCLUDING CONTAMINANT COMBINATIONS FROM THE CARTESIAN GAUSSIAN BASIS
 SET, THE NUMBER OF SPHERICAL HARMONICS KEPT IN THE VARIATION SPACE IS   79

     DIMENSIONS OF THE SYMMETRY SUBSPACES ARE
 A   =   79

 ..... DONE SETTING UP THE RUN .....
 STEP CPU TIME =     0.20 TOTAL CPU TIME =        0.2 (    0.0 MIN)
 TOTAL WALL CLOCK TIME=        0.5 SECONDS, CPU UTILIZATION IS  42.00%

          ********************
          1 ELECTRON INTEGRALS
          ********************
 TIME TO DO ORDINARY INTEGRALS=      0.00
 TIME TO DO      ECP INTEGRALS=      0.01
 ...... END OF ONE-ELECTRON INTEGRALS ......
 STEP CPU TIME =     0.01 TOTAL CPU TIME =        0.2 (    0.0 MIN)
 TOTAL WALL CLOCK TIME=        1.1 SECONDS, CPU UTILIZATION IS  20.00%

          -------------
          GUESS OPTIONS
          -------------
          GUESS =HUCKEL            NORB  =       0          NORDER=       0
          MIX   =       F          PRTMO =       F          PUNMO =       F
          TOLZ  = 1.0E-08          TOLE  = 1.0E-05
          SYMDEN=       F          PURIFY=       F

 INITIAL GUESS ORBITALS GENERATED BY HUCKEL   ROUTINE.
 HUCKEL GUESS REQUIRES     78296 WORDS.

 STATISTICS FOR GENERATION OF SYMMETRY ORBITAL -Q- MATRIX
 NUMBER OF CARTESIAN ATOMIC ORBITALS=        104
 NUMBER OF SPHERICAL CONTAMINANTS DROPPED=    25
 NUMBER OF LINEARLY DEPENDENT MOS DROPPED=     0
 TOTAL NUMBER OF MOS IN VARIATION SPACE=      79

 SYMMETRIES FOR INITIAL GUESS ORBITALS FOLLOW.  ALPHA SET(S).
     4 ORBITALS ARE OCCUPIED (    0 CORE ORBITALS).
     1=A        2=A        3=A        4=A        5=A        6=A        7=A   
     8=A        9=A       10=A       11=A       12=A       13=A       14=A   

 SYMMETRIES FOR INITIAL GUESS ORBITALS FOLLOW.   BETA SET(S).
     2 ORBITALS ARE OCCUPIED (    0 CORE ORBITALS).
     1=A        2=A        3=A        4=A        5=A        6=A        7=A   
     8=A        9=A       10=A       11=A       12=A   
 ...... END OF INITIAL ORBITAL SELECTION ......
 STEP CPU TIME =     0.04 TOTAL CPU TIME =        0.3 (    0.0 MIN)
 TOTAL WALL CLOCK TIME=        1.2 SECONDS, CPU UTILIZATION IS  21.31%

                    ----------------------
                    AO INTEGRAL TECHNOLOGY
                    ----------------------
     S,P,L SHELL ROTATED AXIS INTEGRALS, REPROGRAMMED BY
        KAZUYA ISHIMURA (IMS) AND JOSE SIERRA (SYNSTAR).
     S,P,D,L SHELL ROTATED AXIS INTEGRALS PROGRAMMED BY
        KAZUYA ISHIMURA (INSTITUTE FOR MOLECULAR SCIENCE).
     S,P,D,F,G SHELL TO TOTAL QUARTET ANGULAR MOMENTUM SUM 5,
        ERIC PROGRAM BY GRAHAM FLETCHER (ELORET AND NASA ADVANCED
        SUPERCOMPUTING DIVISION, AMES RESEARCH CENTER).
     S,P,D,F,G,L SHELL GENERAL RYS QUADRATURE PROGRAMMED BY
        MICHEL DUPUIS (PACIFIC NORTHWEST NATIONAL LABORATORY).

          --------------------
          2 ELECTRON INTEGRALS
          --------------------

 THE -PK- OPTION IS OFF, THE INTEGRALS ARE NOT IN SUPERMATRIX FORM.
 STORING   15000 INTEGRALS/RECORD ON DISK, USING 12 BYTES/INTEGRAL.
 TWO ELECTRON INTEGRAL EVALUATION REQUIRES  139915 WORDS OF MEMORY.
 II,JST,KST,LST =  1  1  1  1 NREC =         1 INTLOC =    1
 II,JST,KST,LST =  2  1  1  1 NREC =         1 INTLOC =    2
 II,JST,KST,LST =  3  1  1  1 NREC =         1 INTLOC =    7
 II,JST,KST,LST =  4  1  1  1 NREC =         1 INTLOC =   22
 II,JST,KST,LST =  5  1  1  1 NREC =         1 INTLOC =   56
 II,JST,KST,LST =  6  1  1  1 NREC =         1 INTLOC =  121
 II,JST,KST,LST =  7  1  1  1 NREC =         1 INTLOC =  220
 II,JST,KST,LST =  8  1  1  1 NREC =         1 INTLOC =  496
 II,JST,KST,LST =  9  1  1  1 NREC =         1 INTLOC = 1057
 II,JST,KST,LST = 10  1  1  1 NREC =         1 INTLOC = 2074
 II,JST,KST,LST = 11  1  1  1 NREC =         1 INTLOC = 3781
 II,JST,KST,LST = 12  1  1  1 NREC =         1 INTLOC = 9301
 II,JST,KST,LST = 13  1  1  1 NREC =         2 INTLOC = 5254
 II,JST,KST,LST = 14  1  1  1 NREC =         3 INTLOC = 9160
 II,JST,KST,LST = 15  1  1  1 NREC =         5 INTLOC = 9547
 II,JST,KST,LST = 16  1  1  1 NREC =        10 INTLOC =13688
 II,JST,KST,LST = 17  1  1  1 NREC =        20 INTLOC =  974
 II,JST,KST,LST = 18  1  1  1 NREC =        34 INTLOC = 9469
 II,JST,KST,LST = 19  1  1  1 NREC =        70 INTLOC = 1606
 TOTAL NUMBER OF NONZERO TWO-ELECTRON INTEGRALS =             1915935
        128 INTEGRAL RECORDS WERE STORED ON DISK FILE  8.
  ...... END OF TWO-ELECTRON INTEGRALS .....
 STEP CPU TIME =     2.11 TOTAL CPU TIME =        2.4 (    0.0 MIN)
 TOTAL WALL CLOCK TIME=        3.4 SECONDS, CPU UTILIZATION IS  68.90%

          ---------------------------
                 ROHF SCF CALCULATION
          ---------------------------

     NUCLEAR ENERGY =         0.0000000000
     MAXIT =150     NPUNCH=  2     MULT=  3
     EXTRAP=T  DAMP=F  SHIFT=F  RSTRCT=F  DIIS=F  SOSCF=T
     DENSITY MATRIX CONV=  1.00E-05
     ROHF CANONICALIZATION PARAMETERS
             C-C     O-O     V-V
     ALPHA -0.5000  0.5000  1.5000
     BETA   1.5000  0.5000 -0.5000
     SOSCF WILL OPTIMIZE     304 ORBITAL ROTATION ANGLES. SOGTOL= 2.500E-01
     MEMORY REQUIRED FOR UHF/ROHF ITERS=    130574 WORDS.

 ITER EX      TOTAL ENERGY        E CHANGE  DENSITY CHANGE    ORB. GRAD 
   1  0       -9.9141749534    -9.9141749534   0.428749538   0.000000000
          ---------------START SECOND ORDER SCF---------------
   2  1       -9.9205054155    -0.0063304620   0.162024172   0.004531903
   3  2       -9.9205914753    -0.0000860599   0.044039326   0.000945472
   4  3       -9.9205987645    -0.0000072892   0.004878202   0.000478063
   5  4       -9.9205990404    -0.0000002759   0.000811636   0.000027245
   6  5       -9.9205990433    -0.0000000029   0.000043599   0.000004167
   7  6       -9.9205990433    -0.0000000000   0.000005977   0.000000265
   8  7       -9.9205990433    -0.0000000000   0.000001191   0.000000068

          -----------------
          DENSITY CONVERGED
          -----------------
     TIME TO FORM FOCK OPERATORS=       0.8 SECONDS (       0.1 SEC/ITER)
     TIME TO SOLVE SCF EQUATIONS=       0.0 SECONDS (       0.0 SEC/ITER)

 FINAL ROHF ENERGY IS       -9.9205990433 AFTER   8 ITERATIONS

          --------------------
          SPIN SZ   =    1.000
          S-SQUARED =    2.000
          --------------------

 LZ VALUE ANALYSIS FOR THE MOS
 ----------------------------------------
 MO     1 (    1) HAS LZ(WEIGHT)= 0.00(100.0%) 
 MO     2 (    2) HAS LZ(WEIGHT)= 0.00(100.0%) 
 MO     3 (    3) HAS LZ(WEIGHT)= 0.00(100.0%) 
 MO     4 (    3) HAS LZ(WEIGHT)= 0.00(100.0%) 
 MO     5 (    4) HAS LZ(WEIGHT)= 0.00(100.0%) 
 MO     6 (    5) HAS LZ(WEIGHT)= 0.00(100.0%) 
 MO     7 (    5) HAS LZ(WEIGHT)= 0.00(100.0%) 
 MO     8 (    6) HAS LZ(WEIGHT)= 0.00(100.0%) 
 MO     9 (    6) HAS LZ(WEIGHT)= 0.00(100.0%) 
 MO    10 (    7) HAS LZ(WEIGHT)= 0.00(100.0%) 
 MO    11 (    8) HAS LZ(WEIGHT)= 0.00(100.0%) 
 MO    12 (    8) HAS LZ(WEIGHT)= 0.00(100.0%) 
 MO    13 (    9) HAS LZ(WEIGHT)= 0.00(100.0%) 
 MO    14 (   10) HAS LZ(WEIGHT)= 0.00(100.0%) 
 MO    15 (   10) HAS LZ(WEIGHT)= 0.00(100.0%) 
 MO    16 (   11) HAS LZ(WEIGHT)= 0.00(100.0%) 
 MO    17 (   11) HAS LZ(WEIGHT)= 0.00(100.0%) 
 MO    18 (   12) HAS LZ(WEIGHT)= 0.00(100.0%) 
 MO    19 (   12) HAS LZ(WEIGHT)= 0.00(100.0%) 
 MO    20 (   13) HAS LZ(WEIGHT)= 0.00(100.0%) 
 MO    21 (   14) HAS LZ(WEIGHT)= 0.00(100.0%) 
 MO    22 (   14) HAS LZ(WEIGHT)= 0.00(100.0%) 
 MO    23 (   15) HAS LZ(WEIGHT)= 0.00(100.0%) 
 MO    24 (   15) HAS LZ(WEIGHT)= 0.00(100.0%) 
 MO    25 (   16) HAS LZ(WEIGHT)= 0.00(100.0%) 
 MO    26 (   17) HAS LZ(WEIGHT)= 0.00(100.0%) 
 MO    27 (   17) HAS LZ(WEIGHT)= 0.00(100.0%) 
 MO    28 (   18) HAS LZ(WEIGHT)= 0.00(100.0%) 
 MO    29 (   19) HAS LZ(WEIGHT)= 0.00(100.0%) 
 MO    30 (   20) HAS LZ(WEIGHT)= 0.00(100.0%) 
 MO    31 (   20) HAS LZ(WEIGHT)= 0.00(100.0%) 
 MO    32 (   21) HAS LZ(WEIGHT)= 0.00(100.0%) 
 MO    33 (   21) HAS LZ(WEIGHT)= 0.00(100.0%) 
 MO    34 (   22) HAS LZ(WEIGHT)= 0.00(100.0%) 
 MO    35 (   22) HAS LZ(WEIGHT)= 0.00(100.0%) 
 MO    36 (   23) HAS LZ(WEIGHT)= 0.00(100.0%) 
 MO    37 (   23) HAS LZ(WEIGHT)= 0.00(100.0%) 
 MO    38 (   24) HAS LZ(WEIGHT)= 0.00(100.0%) 
 MO    39 (   25) HAS LZ(WEIGHT)= 0.00(100.0%) 
 MO    40 (   25) HAS LZ(WEIGHT)= 0.00(100.0%) 
 MO    41 (   26) HAS LZ(WEIGHT)= 0.00(100.0%) 
 MO    42 (   26) HAS LZ(WEIGHT)= 0.00(100.0%) 
 MO    43 (   27) HAS LZ(WEIGHT)= 0.00(100.0%) 
 MO    44 (   27) HAS LZ(WEIGHT)= 0.00(100.0%) 
 MO    45 (   28) HAS LZ(WEIGHT)= 0.00(100.0%) 
 MO    46 (   29) HAS LZ(WEIGHT)= 0.00(100.0%) 
 MO    47 (   29) HAS LZ(WEIGHT)= 0.00(100.0%) 
 MO    48 (   30) HAS LZ(WEIGHT)= 0.00(100.0%) 
 MO    49 (   30) HAS LZ(WEIGHT)= 0.00(100.0%) 
 MO    50 (   31) HAS LZ(WEIGHT)= 0.00(100.0%) 
 MO    51 (   32) HAS LZ(WEIGHT)= 0.00(100.0%) 
 MO    52 (   32) HAS LZ(WEIGHT)= 0.00(100.0%) 
 MO    53 (   33) HAS LZ(WEIGHT)= 0.00(100.0%) 
 MO    54 (   34) HAS LZ(WEIGHT)= 0.00(100.0%) 
 MO    55 (   35) HAS LZ(WEIGHT)= 0.00(100.0%) 
 MO    56 (   35) HAS LZ(WEIGHT)= 0.00(100.0%) 
 MO    57 (   36) HAS LZ(WEIGHT)= 0.00(100.0%) 
 MO    58 (   36) HAS LZ(WEIGHT)= 0.00(100.0%) 
 MO    59 (   37) HAS LZ(WEIGHT)= 0.00(100.0%) 
 MO    60 (   37) HAS LZ(WEIGHT)= 0.00(100.0%) 
 MO    61 (   38) HAS LZ(WEIGHT)= 0.00(100.0%) 
 MO    62 (   39) HAS LZ(WEIGHT)= 0.00(100.0%) 
 MO    63 (   39) HAS LZ(WEIGHT)= 0.00(100.0%) 
 MO    64 (   40) HAS LZ(WEIGHT)= 0.00(100.0%) 
 MO    65 (   40) HAS LZ(WEIGHT)= 0.00(100.0%) 
 MO    66 (   41) HAS LZ(WEIGHT)= 0.00(100.0%) 
 MO    67 (   41) HAS LZ(WEIGHT)= 0.00(100.0%) 
 MO    68 (   42) HAS LZ(WEIGHT)= 0.00(100.0%) 
 MO    69 (   42) HAS LZ(WEIGHT)= 0.00(100.0%) 
 MO    70 (   43) HAS LZ(WEIGHT)= 0.00(100.0%) 
 MO    71 (   44) HAS LZ(WEIGHT)= 0.00(100.0%) 
 MO    72 (   44) HAS LZ(WEIGHT)= 0.00(100.0%) 
 MO    73 (   45) HAS LZ(WEIGHT)= 0.00(100.0%) 
 MO    74 (   45) HAS LZ(WEIGHT)= 0.00(100.0%) 
 MO    75 (   46) HAS LZ(WEIGHT)= 0.00(100.0%) 
 MO    76 (   47) HAS LZ(WEIGHT)= 0.00(100.0%) 
 MO    77 (   47) HAS LZ(WEIGHT)= 0.00(100.0%) 
 MO    78 (   48) HAS LZ(WEIGHT)= 0.00(100.0%) 
 MO    79 (   49) HAS LZ(WEIGHT)= 0.00(100.0%) 

          ------------
          EIGENVECTORS
          ------------

                      1          2          3          4          5
                   -0.6659    -0.3432    -0.2250    -0.2250     0.2222
                     A          A          A          A          A   
    1  S  1  S    0.999852   0.000000   0.000000   0.000000  -1.272142
    2  S  1  S   -0.000172   0.000000   0.000000   0.000000  -0.701990
    3  S  1  S    0.000332   0.000000   0.000000   0.000000   1.809625
    4  S  1  S    0.000020   0.000000   0.000000   0.000000  -2.642338
    5  S  1  S   -0.000088   0.000000   0.000000   0.000000   3.025620
    6  S  1  X    0.000000   1.117130   0.000000   0.000000   0.000000
    7  S  1  Y    0.000000   0.000000   0.884887   0.000000   0.000000
    8  S  1  Z    0.000000   0.000000   0.000000   0.884887   0.000000
    9  S  1  X    0.000000   0.009259   0.000000   0.000000   0.000000
   10  S  1  Y    0.000000   0.000000  -0.009018   0.000000   0.000000
   11  S  1  Z    0.000000   0.000000   0.000000  -0.009018   0.000000
   12  S  1  X    0.000000  -0.013814   0.000000   0.000000   0.000000
   13  S  1  Y    0.000000   0.000000   0.012737   0.000000   0.000000
   14  S  1  Z    0.000000   0.000000   0.000000   0.012737   0.000000
   15  S  1  X    0.000000  -0.047176   0.000000   0.000000   0.000000
   16  S  1  Y    0.000000   0.000000   0.048920   0.000000   0.000000
   17  S  1  Z    0.000000   0.000000   0.000000   0.048920   0.000000
   18  S  1  X    0.000000  -0.071190   0.000000   0.000000   0.000000
   19  S  1  Y    0.000000   0.000000   0.067408   0.000000   0.000000
   20  S  1  Z    0.000000   0.000000   0.000000   0.067408   0.000000
   21  S  1 XX    0.000427   0.000000   0.000000   0.000000   0.002274
   22  S  1 YY   -0.000213   0.000000   0.000000   0.000000  -0.001137
   23  S  1 ZZ   -0.000213   0.000000   0.000000   0.000000  -0.001137
   24  S  1 XY    0.000000   0.000000   0.000000   0.000000   0.000000
   25  S  1 XZ    0.000000   0.000000   0.000000   0.000000   0.000000
   26  S  1 YZ    0.000000   0.000000   0.000000   0.000000   0.000000
   27  S  1 XX    0.001006   0.000000   0.000000   0.000000  -0.001173
   28  S  1 YY   -0.000503   0.000000   0.000000   0.000000   0.000586
   29  S  1 ZZ   -0.000503   0.000000   0.000000   0.000000   0.000586
   30  S  1 XY    0.000000   0.000000   0.000000   0.000000   0.000000
   31  S  1 XZ    0.000000   0.000000   0.000000   0.000000   0.000000
   32  S  1 YZ    0.000000   0.000000   0.000000   0.000000   0.000000
   33  S  1 XX   -0.000831   0.000000   0.000000   0.000000   0.032989
   34  S  1 YY    0.000415   0.000000   0.000000   0.000000  -0.016494
   35  S  1 ZZ    0.000415   0.000000   0.000000   0.000000  -0.016494
   36  S  1 XY    0.000000   0.000000   0.000000   0.000000   0.000000
   37  S  1 XZ    0.000000   0.000000   0.000000   0.000000   0.000000
   38  S  1 YZ    0.000000   0.000000   0.000000   0.000000   0.000000
   39  S  1 XX    0.006728   0.000000   0.000000   0.000000  -0.066833
   40  S  1 YY   -0.003364   0.000000   0.000000   0.000000   0.033416
   41  S  1 ZZ   -0.003364   0.000000   0.000000   0.000000   0.033416
   42  S  1 XY    0.000000   0.000000   0.000000   0.000000   0.000000
   43  S  1 XZ    0.000000   0.000000   0.000000   0.000000   0.000000
   44  S  1 YZ    0.000000   0.000000   0.000000   0.000000   0.000000
   45  S  1 XXX   0.000000  -0.001438   0.000000   0.000000   0.000000
   46  S  1 YYY   0.000000   0.000000   0.001602   0.000000   0.000000
   47  S  1 ZZZ   0.000000   0.000000   0.000000   0.001602   0.000000
   48  S  1 XXY   0.000000   0.000000  -0.002866   0.000000   0.000000
   49  S  1 XXZ   0.000000   0.000000   0.000000  -0.002866   0.000000
   50  S  1 YYX   0.000000   0.000965   0.000000   0.000000   0.000000
   51  S  1 YYZ   0.000000   0.000000   0.000000   0.000716   0.000000
   52  S  1 ZZX   0.000000   0.000965   0.000000   0.000000   0.000000
   53  S  1 ZZY   0.000000   0.000000   0.000716   0.000000   0.000000
   54  S  1 XYZ   0.000000   0.000000   0.000000   0.000000   0.000000
   55  S  1 XXX   0.000000  -0.003705   0.000000   0.000000   0.000000
   56  S  1 YYY   0.000000   0.000000   0.004560   0.000000   0.000000
   57  S  1 ZZZ   0.000000   0.000000   0.000000   0.004560   0.000000
   58  S  1 XXY   0.000000   0.000000  -0.008158   0.000000   0.000000
   59  S  1 XXZ   0.000000   0.000000   0.000000  -0.008158   0.000000
   60  S  1 YYX   0.000000   0.002485   0.000000   0.000000   0.000000
   61  S  1 YYZ   0.000000   0.000000   0.000000   0.002039   0.000000
   62  S  1 ZZX   0.000000   0.002485   0.000000   0.000000   0.000000
   63  S  1 ZZY   0.000000   0.000000   0.002039   0.000000   0.000000
   64  S  1 XYZ   0.000000   0.000000   0.000000   0.000000   0.000000
   65  S  1 XXX   0.000000  -0.006394   0.000000   0.000000   0.000000
   66  S  1 YYY   0.000000   0.000000   0.006230   0.000000   0.000000
   67  S  1 ZZZ   0.000000   0.000000   0.000000   0.006230   0.000000
   68  S  1 XXY   0.000000   0.000000  -0.011144   0.000000   0.000000
   69  S  1 XXZ   0.000000   0.000000   0.000000  -0.011144   0.000000
   70  S  1 YYX   0.000000   0.004289   0.000000   0.000000   0.000000
   71  S  1 YYZ   0.000000   0.000000   0.000000   0.002786   0.000000
   72  S  1 ZZX   0.000000   0.004289   0.000000   0.000000   0.000000
   73  S  1 ZZY   0.000000   0.000000   0.002786   0.000000   0.000000
   74  S  1 XYZ   0.000000   0.000000   0.000000   0.000000   0.000000
   75  S  1XXXX   0.000008   0.000000   0.000000   0.000000  -0.000302
   76  S  1YYYY   0.000003   0.000000   0.000000   0.000000  -0.000113
   77  S  1ZZZZ   0.000003   0.000000   0.000000   0.000000  -0.000113
   78  S  1XXXY   0.000000   0.000000   0.000000   0.000000   0.000000
   79  S  1XXXZ   0.000000   0.000000   0.000000   0.000000   0.000000
   80  S  1YYYX   0.000000   0.000000   0.000000   0.000000   0.000000
   81  S  1YYYZ   0.000000   0.000000   0.000000   0.000000   0.000000
   82  S  1ZZZX   0.000000   0.000000   0.000000   0.000000   0.000000
   83  S  1ZZZY   0.000000   0.000000   0.000000   0.000000   0.000000
   84  S  1XXYY  -0.000007   0.000000   0.000000   0.000000   0.000266
   85  S  1XXZZ  -0.000007   0.000000   0.000000   0.000000   0.000266
   86  S  1YYZZ   0.000002   0.000000   0.000000   0.000000  -0.000066
   87  S  1XXYZ   0.000000   0.000000   0.000000   0.000000   0.000000
   88  S  1YYXZ   0.000000   0.000000   0.000000   0.000000   0.000000
   89  S  1ZZXY   0.000000   0.000000   0.000000   0.000000   0.000000
   90  S  1XXXX  -0.000031   0.000000   0.000000   0.000000   0.000786
   91  S  1YYYY  -0.000012   0.000000   0.000000   0.000000   0.000295
   92  S  1ZZZZ  -0.000012   0.000000   0.000000   0.000000   0.000295
   93  S  1XXXY   0.000000   0.000000   0.000000   0.000000   0.000000
   94  S  1XXXZ   0.000000   0.000000   0.000000   0.000000   0.000000
   95  S  1YYYX   0.000000   0.000000   0.000000   0.000000   0.000000
   96  S  1YYYZ   0.000000   0.000000   0.000000   0.000000   0.000000
   97  S  1ZZZX   0.000000   0.000000   0.000000   0.000000   0.000000
   98  S  1ZZZY   0.000000   0.000000   0.000000   0.000000   0.000000
   99  S  1XXYY   0.000027   0.000000   0.000000   0.000000  -0.000690
  100  S  1XXZZ   0.000027   0.000000   0.000000   0.000000  -0.000690
  101  S  1YYZZ  -0.000007   0.000000   0.000000   0.000000   0.000173
  102  S  1XXYZ   0.000000   0.000000   0.000000   0.000000   0.000000
  103  S  1YYXZ   0.000000   0.000000   0.000000   0.000000   0.000000
  104  S  1ZZXY   0.000000   0.000000   0.000000   0.000000   0.000000

                      6          7          8          9         10
                    0.2644     0.2644     0.2997     0.2997     0.3005
                     A          A          A          A          A   
    1  S  1  S    0.000000   0.000000   0.000000   0.000000   0.000000
    2  S  1  S    0.000000   0.000000   0.000000   0.000000   0.000000
    3  S  1  S    0.000000   0.000000   0.000000   0.000000   0.000000
    4  S  1  S    0.000000   0.000000   0.000000   0.000000   0.000000
    5  S  1  S    0.000000   0.000000   0.000000   0.000000   0.000000
    6  S  1  X    0.000000   0.000000   0.000000   0.000000   6.168051
    7  S  1  Y    0.000000   6.093655   0.000000   0.000000   0.000000
    8  S  1  Z    6.093655   0.000000   0.000000   0.000000   0.000000
    9  S  1  X    0.000000   0.000000   0.000000   0.000000   0.504766
   10  S  1  Y    0.000000   0.495527   0.000000   0.000000   0.000000
   11  S  1  Z    0.495527   0.000000   0.000000   0.000000   0.000000
   12  S  1  X    0.000000   0.000000   0.000000   0.000000  -0.986771
   13  S  1  Y    0.000000  -0.958489   0.000000   0.000000   0.000000
   14  S  1  Z   -0.958489   0.000000   0.000000   0.000000   0.000000
   15  S  1  X    0.000000   0.000000   0.000000   0.000000  -1.685485
   16  S  1  Y    0.000000  -1.725647   0.000000   0.000000   0.000000
   17  S  1  Z   -1.725647   0.000000   0.000000   0.000000   0.000000
   18  S  1  X    0.000000   0.000000   0.000000   0.000000  -4.323469
   19  S  1  Y    0.000000  -4.180392   0.000000   0.000000   0.000000
   20  S  1  Z   -4.180392   0.000000   0.000000   0.000000   0.000000
   21  S  1 XX    0.000000   0.000000   0.000000   0.000000   0.000000
   22  S  1 YY    0.000000   0.000000   0.021373   0.000000   0.000000
   23  S  1 ZZ    0.000000   0.000000  -0.021373   0.000000   0.000000
   24  S  1 XY    0.000000   0.000000   0.000000   0.000000   0.000000
   25  S  1 XZ    0.000000   0.000000   0.000000   0.000000   0.000000
   26  S  1 YZ    0.000000   0.000000   0.000000   0.024680   0.000000
   27  S  1 XX    0.000000   0.000000   0.000000   0.000000   0.000000
   28  S  1 YY    0.000000   0.000000   0.129201   0.000000   0.000000
   29  S  1 ZZ    0.000000   0.000000  -0.129201   0.000000   0.000000
   30  S  1 XY    0.000000   0.000000   0.000000   0.000000   0.000000
   31  S  1 XZ    0.000000   0.000000   0.000000   0.000000   0.000000
   32  S  1 YZ    0.000000   0.000000   0.000000   0.149189   0.000000
   33  S  1 XX    0.000000   0.000000   0.000000   0.000000   0.000000
   34  S  1 YY    0.000000   0.000000   0.055910   0.000000   0.000000
   35  S  1 ZZ    0.000000   0.000000  -0.055910   0.000000   0.000000
   36  S  1 XY    0.000000   0.000000   0.000000   0.000000   0.000000
   37  S  1 XZ    0.000000   0.000000   0.000000   0.000000   0.000000
   38  S  1 YZ    0.000000   0.000000   0.000000   0.064559   0.000000
   39  S  1 XX    0.000000   0.000000   0.000000   0.000000   0.000000
   40  S  1 YY    0.000000   0.000000   0.771758   0.000000   0.000000
   41  S  1 ZZ    0.000000   0.000000  -0.771758   0.000000   0.000000
   42  S  1 XY    0.000000   0.000000   0.000000   0.000000   0.000000
   43  S  1 XZ    0.000000   0.000000   0.000000   0.000000   0.000000
   44  S  1 YZ    0.000000   0.000000   0.000000   0.891150   0.000000
   45  S  1 XXX   0.000000   0.000000   0.000000   0.000000   0.000777
   46  S  1 YYY   0.000000  -0.000378   0.000000   0.000000   0.000000
   47  S  1 ZZZ  -0.000378   0.000000   0.000000   0.000000   0.000000
   48  S  1 XXY   0.000000   0.000677   0.000000   0.000000   0.000000
   49  S  1 XXZ   0.000677   0.000000   0.000000   0.000000   0.000000
   50  S  1 YYX   0.000000   0.000000   0.000000   0.000000  -0.000521
   51  S  1 YYZ  -0.000169   0.000000   0.000000   0.000000   0.000000
   52  S  1 ZZX   0.000000   0.000000   0.000000   0.000000  -0.000521
   53  S  1 ZZY   0.000000  -0.000169   0.000000   0.000000   0.000000
   54  S  1 XYZ   0.000000   0.000000   0.000000   0.000000   0.000000
   55  S  1 XXX   0.000000   0.000000   0.000000   0.000000   0.014444
   56  S  1 YYY   0.000000  -0.007293   0.000000   0.000000   0.000000
   57  S  1 ZZZ  -0.007293   0.000000   0.000000   0.000000   0.000000
   58  S  1 XXY   0.000000   0.013047   0.000000   0.000000   0.000000
   59  S  1 XXZ   0.013047   0.000000   0.000000   0.000000   0.000000
   60  S  1 YYX   0.000000   0.000000   0.000000   0.000000  -0.009689
   61  S  1 YYZ  -0.003262   0.000000   0.000000   0.000000   0.000000
   62  S  1 ZZX   0.000000   0.000000   0.000000   0.000000  -0.009689
   63  S  1 ZZY   0.000000  -0.003262   0.000000   0.000000   0.000000
   64  S  1 XYZ   0.000000   0.000000   0.000000   0.000000   0.000000
   65  S  1 XXX   0.000000   0.000000   0.000000   0.000000  -0.010504
   66  S  1 YYY   0.000000   0.006507   0.000000   0.000000   0.000000
   67  S  1 ZZZ   0.006507   0.000000   0.000000   0.000000   0.000000
   68  S  1 XXY   0.000000  -0.011641   0.000000   0.000000   0.000000
   69  S  1 XXZ  -0.011641   0.000000   0.000000   0.000000   0.000000
   70  S  1 YYX   0.000000   0.000000   0.000000   0.000000   0.007047
   71  S  1 YYZ   0.002910   0.000000   0.000000   0.000000   0.000000
   72  S  1 ZZX   0.000000   0.000000   0.000000   0.000000   0.007047
   73  S  1 ZZY   0.000000   0.002910   0.000000   0.000000   0.000000
   74  S  1 XYZ   0.000000   0.000000   0.000000   0.000000   0.000000
   75  S  1XXXX   0.000000   0.000000   0.000000   0.000000   0.000000
   76  S  1YYYY   0.000000   0.000000   0.000336   0.000000   0.000000
   77  S  1ZZZZ   0.000000   0.000000  -0.000336   0.000000   0.000000
   78  S  1XXXY   0.000000   0.000000   0.000000   0.000000   0.000000
   79  S  1XXXZ   0.000000   0.000000   0.000000   0.000000   0.000000
   80  S  1YYYX   0.000000   0.000000   0.000000   0.000000   0.000000
   81  S  1YYYZ   0.000000   0.000000   0.000000   0.000254   0.000000
   82  S  1ZZZX   0.000000   0.000000   0.000000   0.000000   0.000000
   83  S  1ZZZY   0.000000   0.000000   0.000000   0.000254   0.000000
   84  S  1XXYY   0.000000   0.000000  -0.000590   0.000000   0.000000
   85  S  1XXZZ   0.000000   0.000000   0.000590   0.000000   0.000000
   86  S  1YYZZ   0.000000   0.000000   0.000000   0.000000   0.000000
   87  S  1XXYZ   0.000000   0.000000   0.000000  -0.000681   0.000000
   88  S  1YYXZ   0.000000   0.000000   0.000000   0.000000   0.000000
   89  S  1ZZXY   0.000000   0.000000   0.000000   0.000000   0.000000
   90  S  1XXXX   0.000000   0.000000   0.000000   0.000000   0.000000
   91  S  1YYYY   0.000000   0.000000   0.006683   0.000000   0.000000
   92  S  1ZZZZ   0.000000   0.000000  -0.006683   0.000000   0.000000
   93  S  1XXXY   0.000000   0.000000   0.000000   0.000000   0.000000
   94  S  1XXXZ   0.000000   0.000000   0.000000   0.000000   0.000000
   95  S  1YYYX   0.000000   0.000000   0.000000   0.000000   0.000000
   96  S  1YYYZ   0.000000   0.000000   0.000000   0.005052   0.000000
   97  S  1ZZZX   0.000000   0.000000   0.000000   0.000000   0.000000
   98  S  1ZZZY   0.000000   0.000000   0.000000   0.005052   0.000000
   99  S  1XXYY   0.000000   0.000000  -0.011739   0.000000   0.000000
  100  S  1XXZZ   0.000000   0.000000   0.011739   0.000000   0.000000
  101  S  1YYZZ   0.000000   0.000000   0.000000   0.000000   0.000000
  102  S  1XXYZ   0.000000   0.000000   0.000000  -0.013555   0.000000
  103  S  1YYXZ   0.000000   0.000000   0.000000   0.000000   0.000000
  104  S  1ZZXY   0.000000   0.000000   0.000000   0.000000   0.000000

                     11         12         13         14         15
                    0.3565     0.3565     0.3695     0.8887     0.8887
                     A          A          A          A          A   
    1  S  1  S    0.000000   0.000000  -0.052370   0.000000   0.000000
    2  S  1  S    0.000000   0.000000  -0.050623   0.000000   0.000000
    3  S  1  S    0.000000   0.000000   0.159843   0.000000   0.000000
    4  S  1  S    0.000000   0.000000  -0.208011   0.000000   0.000000
    5  S  1  S    0.000000   0.000000   0.158472   0.000000   0.000000
    6  S  1  X    0.000000   0.000000   0.000000   0.000000   0.000000
    7  S  1  Y    0.000000   0.000000   0.000000   0.000000   0.000000
    8  S  1  Z    0.000000   0.000000   0.000000   0.000000   0.000000
    9  S  1  X    0.000000   0.000000   0.000000   0.000000   0.000000
   10  S  1  Y    0.000000   0.000000   0.000000   0.000000   0.000000
   11  S  1  Z    0.000000   0.000000   0.000000   0.000000   0.000000
   12  S  1  X    0.000000   0.000000   0.000000   0.000000   0.000000
   13  S  1  Y    0.000000   0.000000   0.000000   0.000000   0.000000
   14  S  1  Z    0.000000   0.000000   0.000000   0.000000   0.000000
   15  S  1  X    0.000000   0.000000   0.000000   0.000000   0.000000
   16  S  1  Y    0.000000   0.000000   0.000000   0.000000   0.000000
   17  S  1  Z    0.000000   0.000000   0.000000   0.000000   0.000000
   18  S  1  X    0.000000   0.000000   0.000000   0.000000   0.000000
   19  S  1  Y    0.000000   0.000000   0.000000   0.000000   0.000000
   20  S  1  Z    0.000000   0.000000   0.000000   0.000000   0.000000
   21  S  1 XX    0.000000   0.000000   0.019820   0.000000   0.000000
   22  S  1 YY    0.000000   0.000000  -0.009910   0.000000   0.000000
   23  S  1 ZZ    0.000000   0.000000  -0.009910   0.000000   0.000000
   24  S  1 XY    0.020681   0.000000   0.000000   0.000000   0.000000
   25  S  1 XZ    0.000000   0.020681   0.000000   0.000000   0.000000
   26  S  1 YZ    0.000000   0.000000   0.000000   0.000000   0.000000
   27  S  1 XX    0.000000   0.000000   0.151889   0.000000   0.000000
   28  S  1 YY    0.000000   0.000000  -0.075945   0.000000   0.000000
   29  S  1 ZZ    0.000000   0.000000  -0.075945   0.000000   0.000000
   30  S  1 XY    0.151622   0.000000   0.000000   0.000000   0.000000
   31  S  1 XZ    0.000000   0.151622   0.000000   0.000000   0.000000
   32  S  1 YZ    0.000000   0.000000   0.000000   0.000000   0.000000
   33  S  1 XX    0.000000   0.000000   0.002653   0.000000   0.000000
   34  S  1 YY    0.000000   0.000000  -0.001326   0.000000   0.000000
   35  S  1 ZZ    0.000000   0.000000  -0.001326   0.000000   0.000000
   36  S  1 XY    0.013266   0.000000   0.000000   0.000000   0.000000
   37  S  1 XZ    0.000000   0.013266   0.000000   0.000000   0.000000
   38  S  1 YZ    0.000000   0.000000   0.000000   0.000000   0.000000
   39  S  1 XX    0.000000   0.000000   0.939830   0.000000   0.000000
   40  S  1 YY    0.000000   0.000000  -0.469915   0.000000   0.000000
   41  S  1 ZZ    0.000000   0.000000  -0.469915   0.000000   0.000000
   42  S  1 XY    0.932337   0.000000   0.000000   0.000000   0.000000
   43  S  1 XZ    0.000000   0.932337   0.000000   0.000000   0.000000
   44  S  1 YZ    0.000000   0.000000   0.000000   0.000000   0.000000
   45  S  1 XXX   0.000000   0.000000   0.000000   0.000000   0.000000
   46  S  1 YYY   0.000000   0.000000   0.000000   0.000000  -0.086500
   47  S  1 ZZZ   0.000000   0.000000   0.000000  -0.086500   0.000000
   48  S  1 XXY   0.000000   0.000000   0.000000   0.000000   0.000000
   49  S  1 XXZ   0.000000   0.000000   0.000000   0.000000   0.000000
   50  S  1 YYX   0.000000   0.000000   0.000000   0.000000   0.000000
   51  S  1 YYZ   0.000000   0.000000   0.000000   0.116052   0.000000
   52  S  1 ZZX   0.000000   0.000000   0.000000   0.000000   0.000000
   53  S  1 ZZY   0.000000   0.000000   0.000000   0.000000   0.116052
   54  S  1 XYZ   0.000000   0.000000   0.000000   0.000000   0.000000
   55  S  1 XXX   0.000000   0.000000   0.000000   0.000000   0.000000
   56  S  1 YYY   0.000000   0.000000   0.000000   0.000000   0.245281
   57  S  1 ZZZ   0.000000   0.000000   0.000000   0.245281   0.000000
   58  S  1 XXY   0.000000   0.000000   0.000000   0.000000   0.000000
   59  S  1 XXZ   0.000000   0.000000   0.000000   0.000000   0.000000
   60  S  1 YYX   0.000000   0.000000   0.000000   0.000000   0.000000
   61  S  1 YYZ   0.000000   0.000000   0.000000  -0.329079   0.000000
   62  S  1 ZZX   0.000000   0.000000   0.000000   0.000000   0.000000
   63  S  1 ZZY   0.000000   0.000000   0.000000   0.000000  -0.329079
   64  S  1 XYZ   0.000000   0.000000   0.000000   0.000000   0.000000
   65  S  1 XXX   0.000000   0.000000   0.000000   0.000000   0.000000
   66  S  1 YYY   0.000000   0.000000   0.000000   0.000000  -0.931180
   67  S  1 ZZZ   0.000000   0.000000   0.000000  -0.931180   0.000000
   68  S  1 XXY   0.000000   0.000000   0.000000   0.000000   0.000000
   69  S  1 XXZ   0.000000   0.000000   0.000000   0.000000   0.000000
   70  S  1 YYX   0.000000   0.000000   0.000000   0.000000   0.000000
   71  S  1 YYZ   0.000000   0.000000   0.000000   1.249309   0.000000
   72  S  1 ZZX   0.000000   0.000000   0.000000   0.000000   0.000000
   73  S  1 ZZY   0.000000   0.000000   0.000000   0.000000   1.249309
   74  S  1 XYZ   0.000000   0.000000   0.000000   0.000000   0.000000
   75  S  1XXXX   0.000000   0.000000  -0.000492   0.000000   0.000000
   76  S  1YYYY   0.000000   0.000000  -0.000184   0.000000   0.000000
   77  S  1ZZZZ   0.000000   0.000000  -0.000184   0.000000   0.000000
   78  S  1XXXY  -0.000620   0.000000   0.000000   0.000000   0.000000
   79  S  1XXXZ   0.000000  -0.000620   0.000000   0.000000   0.000000
   80  S  1YYYX   0.000465   0.000000   0.000000   0.000000   0.000000
   81  S  1YYYZ   0.000000   0.000000   0.000000   0.000000   0.000000
   82  S  1ZZZX   0.000000   0.000465   0.000000   0.000000   0.000000
   83  S  1ZZZY   0.000000   0.000000   0.000000   0.000000   0.000000
   84  S  1XXYY   0.000000   0.000000   0.000432   0.000000   0.000000
   85  S  1XXZZ   0.000000   0.000000   0.000432   0.000000   0.000000
   86  S  1YYZZ   0.000000   0.000000  -0.000108   0.000000   0.000000
   87  S  1XXYZ   0.000000   0.000000   0.000000   0.000000   0.000000
   88  S  1YYXZ   0.000000   0.000208   0.000000   0.000000   0.000000
   89  S  1ZZXY   0.000208   0.000000   0.000000   0.000000   0.000000
   90  S  1XXXX   0.000000   0.000000  -0.017813   0.000000   0.000000
   91  S  1YYYY   0.000000   0.000000  -0.006680   0.000000   0.000000
   92  S  1ZZZZ   0.000000   0.000000  -0.006680   0.000000   0.000000
   93  S  1XXXY  -0.019652   0.000000   0.000000   0.000000   0.000000
   94  S  1XXXZ   0.000000  -0.019652   0.000000   0.000000   0.000000
   95  S  1YYYX   0.014739   0.000000   0.000000   0.000000   0.000000
   96  S  1YYYZ   0.000000   0.000000   0.000000   0.000000   0.000000
   97  S  1ZZZX   0.000000   0.014739   0.000000   0.000000   0.000000
   98  S  1ZZZY   0.000000   0.000000   0.000000   0.000000   0.000000
   99  S  1XXYY   0.000000   0.000000   0.015646   0.000000   0.000000
  100  S  1XXZZ   0.000000   0.000000   0.015646   0.000000   0.000000
  101  S  1YYZZ   0.000000   0.000000  -0.003911   0.000000   0.000000
  102  S  1XXYZ   0.000000   0.000000   0.000000   0.000000   0.000000
  103  S  1YYXZ   0.000000   0.006591   0.000000   0.000000   0.000000
  104  S  1ZZXY   0.006591   0.000000   0.000000   0.000000   0.000000

                     16         17         18         19         20
                    0.9137     0.9137     0.9277     0.9277     0.9320
                     A          A          A          A          A   
    1  S  1  S    0.000000   0.000000   0.000000   0.000000   0.000000
    2  S  1  S    0.000000   0.000000   0.000000   0.000000   0.000000
    3  S  1  S    0.000000   0.000000   0.000000   0.000000   0.000000
    4  S  1  S    0.000000   0.000000   0.000000   0.000000   0.000000
    5  S  1  S    0.000000   0.000000   0.000000   0.000000   0.000000
    6  S  1  X    0.000000   0.000000   0.000000   0.000000   0.175064
    7  S  1  Y    0.000000   0.000000   0.000000   0.199581   0.000000
    8  S  1  Z    0.000000   0.000000   0.199581   0.000000   0.000000
    9  S  1  X    0.000000   0.000000   0.000000   0.000000   0.013310
   10  S  1  Y    0.000000   0.000000   0.000000   0.014597   0.000000
   11  S  1  Z    0.000000   0.000000   0.014597   0.000000   0.000000
   12  S  1  X    0.000000   0.000000   0.000000   0.000000  -0.038069
   13  S  1  Y    0.000000   0.000000   0.000000  -0.040839   0.000000
   14  S  1  Z    0.000000   0.000000  -0.040839   0.000000   0.000000
   15  S  1  X    0.000000   0.000000   0.000000   0.000000   0.050044
   16  S  1  Y    0.000000   0.000000   0.000000   0.047841   0.000000
   17  S  1  Z    0.000000   0.000000   0.047841   0.000000   0.000000
   18  S  1  X    0.000000   0.000000   0.000000   0.000000  -0.195464
   19  S  1  Y    0.000000   0.000000   0.000000  -0.211015   0.000000
   20  S  1  Z    0.000000   0.000000  -0.211015   0.000000   0.000000
   21  S  1 XX    0.000000   0.000000   0.000000   0.000000   0.000000
   22  S  1 YY    0.000000   0.000000   0.000000   0.000000   0.000000
   23  S  1 ZZ    0.000000   0.000000   0.000000   0.000000   0.000000
   24  S  1 XY    0.000000   0.000000   0.000000   0.000000   0.000000
   25  S  1 XZ    0.000000   0.000000   0.000000   0.000000   0.000000
   26  S  1 YZ    0.000000   0.000000   0.000000   0.000000   0.000000
   27  S  1 XX    0.000000   0.000000   0.000000   0.000000   0.000000
   28  S  1 YY    0.000000   0.000000   0.000000   0.000000   0.000000
   29  S  1 ZZ    0.000000   0.000000   0.000000   0.000000   0.000000
   30  S  1 XY    0.000000   0.000000   0.000000   0.000000   0.000000
   31  S  1 XZ    0.000000   0.000000   0.000000   0.000000   0.000000
   32  S  1 YZ    0.000000   0.000000   0.000000   0.000000   0.000000
   33  S  1 XX    0.000000   0.000000   0.000000   0.000000   0.000000
   34  S  1 YY    0.000000   0.000000   0.000000   0.000000   0.000000
   35  S  1 ZZ    0.000000   0.000000   0.000000   0.000000   0.000000
   36  S  1 XY    0.000000   0.000000   0.000000   0.000000   0.000000
   37  S  1 XZ    0.000000   0.000000   0.000000   0.000000   0.000000
   38  S  1 YZ    0.000000   0.000000   0.000000   0.000000   0.000000
   39  S  1 XX    0.000000   0.000000   0.000000   0.000000   0.000000
   40  S  1 YY    0.000000   0.000000   0.000000   0.000000   0.000000
   41  S  1 ZZ    0.000000   0.000000   0.000000   0.000000   0.000000
   42  S  1 XY    0.000000   0.000000   0.000000   0.000000   0.000000
   43  S  1 XZ    0.000000   0.000000   0.000000   0.000000   0.000000
   44  S  1 YZ    0.000000   0.000000   0.000000   0.000000   0.000000
   45  S  1 XXX   0.000000   0.000000   0.000000   0.000000   0.112065
   46  S  1 YYY   0.000000   0.000000   0.000000  -0.068450   0.000000
   47  S  1 ZZZ   0.000000   0.000000  -0.068450   0.000000   0.000000
   48  S  1 XXY   0.000000   0.000000   0.000000   0.122448   0.000000
   49  S  1 XXZ   0.000000   0.000000   0.122448   0.000000   0.000000
   50  S  1 YYX  -0.096288   0.000000   0.000000   0.000000  -0.075176
   51  S  1 YYZ   0.000000   0.000000  -0.030612   0.000000   0.000000
   52  S  1 ZZX   0.096288   0.000000   0.000000   0.000000  -0.075176
   53  S  1 ZZY   0.000000   0.000000   0.000000  -0.030612   0.000000
   54  S  1 XYZ   0.000000   0.111184   0.000000   0.000000   0.000000
   55  S  1 XXX   0.000000   0.000000   0.000000   0.000000  -0.332267
   56  S  1 YYY   0.000000   0.000000   0.000000   0.202208   0.000000
   57  S  1 ZZZ   0.000000   0.000000   0.202208   0.000000   0.000000
   58  S  1 XXY   0.000000   0.000000   0.000000  -0.361720   0.000000
   59  S  1 XXZ   0.000000   0.000000  -0.361720   0.000000   0.000000
   60  S  1 YYX   0.279786   0.000000   0.000000   0.000000   0.222892
   61  S  1 YYZ   0.000000   0.000000   0.090430   0.000000   0.000000
   62  S  1 ZZX  -0.279786   0.000000   0.000000   0.000000   0.222892
   63  S  1 ZZY   0.000000   0.000000   0.000000   0.090430   0.000000
   64  S  1 XYZ   0.000000  -0.323069   0.000000   0.000000   0.000000
   65  S  1 XXX   0.000000   0.000000   0.000000   0.000000   1.189933
   66  S  1 YYY   0.000000   0.000000   0.000000  -0.727880   0.000000
   67  S  1 ZZZ   0.000000   0.000000  -0.727880   0.000000   0.000000
   68  S  1 XXY   0.000000   0.000000   0.000000   1.302072   0.000000
   69  S  1 XXZ   0.000000   0.000000   1.302072   0.000000   0.000000
   70  S  1 YYX  -1.026477   0.000000   0.000000   0.000000  -0.798232
   71  S  1 YYZ   0.000000   0.000000  -0.325518   0.000000   0.000000
   72  S  1 ZZX   1.026477   0.000000   0.000000   0.000000  -0.798232
   73  S  1 ZZY   0.000000   0.000000   0.000000  -0.325518   0.000000
   74  S  1 XYZ   0.000000   1.185273   0.000000   0.000000   0.000000
   75  S  1XXXX   0.000000   0.000000   0.000000   0.000000   0.000000
   76  S  1YYYY   0.000000   0.000000   0.000000   0.000000   0.000000
   77  S  1ZZZZ   0.000000   0.000000   0.000000   0.000000   0.000000
   78  S  1XXXY   0.000000   0.000000   0.000000   0.000000   0.000000
   79  S  1XXXZ   0.000000   0.000000   0.000000   0.000000   0.000000
   80  S  1YYYX   0.000000   0.000000   0.000000   0.000000   0.000000
   81  S  1YYYZ   0.000000   0.000000   0.000000   0.000000   0.000000
   82  S  1ZZZX   0.000000   0.000000   0.000000   0.000000   0.000000
   83  S  1ZZZY   0.000000   0.000000   0.000000   0.000000   0.000000
   84  S  1XXYY   0.000000   0.000000   0.000000   0.000000   0.000000
   85  S  1XXZZ   0.000000   0.000000   0.000000   0.000000   0.000000
   86  S  1YYZZ   0.000000   0.000000   0.000000   0.000000   0.000000
   87  S  1XXYZ   0.000000   0.000000   0.000000   0.000000   0.000000
   88  S  1YYXZ   0.000000   0.000000   0.000000   0.000000   0.000000
   89  S  1ZZXY   0.000000   0.000000   0.000000   0.000000   0.000000
   90  S  1XXXX   0.000000   0.000000   0.000000   0.000000   0.000000
   91  S  1YYYY   0.000000   0.000000   0.000000   0.000000   0.000000
   92  S  1ZZZZ   0.000000   0.000000   0.000000   0.000000   0.000000
   93  S  1XXXY   0.000000   0.000000   0.000000   0.000000   0.000000
   94  S  1XXXZ   0.000000   0.000000   0.000000   0.000000   0.000000
   95  S  1YYYX   0.000000   0.000000   0.000000   0.000000   0.000000
   96  S  1YYYZ   0.000000   0.000000   0.000000   0.000000   0.000000
   97  S  1ZZZX   0.000000   0.000000   0.000000   0.000000   0.000000
   98  S  1ZZZY   0.000000   0.000000   0.000000   0.000000   0.000000
   99  S  1XXYY   0.000000   0.000000   0.000000   0.000000   0.000000
  100  S  1XXZZ   0.000000   0.000000   0.000000   0.000000   0.000000
  101  S  1YYZZ   0.000000   0.000000   0.000000   0.000000   0.000000
  102  S  1XXYZ   0.000000   0.000000   0.000000   0.000000   0.000000
  103  S  1YYXZ   0.000000   0.000000   0.000000   0.000000   0.000000
  104  S  1ZZXY   0.000000   0.000000   0.000000   0.000000   0.000000

                     21         22         23         24         25
                    1.0808     1.0808     1.1330     1.1330     1.1469
                     A          A          A          A          A   
    1  S  1  S    0.000000   0.000000   0.000000   0.000000   0.252548
    2  S  1  S    0.000000   0.000000   0.000000   0.000000   0.435349
    3  S  1  S    0.000000   0.000000   0.000000   0.000000  -1.192530
    4  S  1  S    0.000000   0.000000   0.000000   0.000000   0.997603
    5  S  1  S    0.000000   0.000000   0.000000   0.000000  -0.513304
    6  S  1  X    0.000000   0.000000   0.000000   0.000000   0.000000
    7  S  1  Y    0.000000   0.000000   0.000000   0.000000   0.000000
    8  S  1  Z    0.000000   0.000000   0.000000   0.000000   0.000000
    9  S  1  X    0.000000   0.000000   0.000000   0.000000   0.000000
   10  S  1  Y    0.000000   0.000000   0.000000   0.000000   0.000000
   11  S  1  Z    0.000000   0.000000   0.000000   0.000000   0.000000
   12  S  1  X    0.000000   0.000000   0.000000   0.000000   0.000000
   13  S  1  Y    0.000000   0.000000   0.000000   0.000000   0.000000
   14  S  1  Z    0.000000   0.000000   0.000000   0.000000   0.000000
   15  S  1  X    0.000000   0.000000   0.000000   0.000000   0.000000
   16  S  1  Y    0.000000   0.000000   0.000000   0.000000   0.000000
   17  S  1  Z    0.000000   0.000000   0.000000   0.000000   0.000000
   18  S  1  X    0.000000   0.000000   0.000000   0.000000   0.000000
   19  S  1  Y    0.000000   0.000000   0.000000   0.000000   0.000000
   20  S  1  Z    0.000000   0.000000   0.000000   0.000000   0.000000
   21  S  1 XX    0.000000   0.000000   0.000000   0.000000   0.138720
   22  S  1 YY    0.000000   0.118238   0.000000   0.000000  -0.069360
   23  S  1 ZZ    0.000000  -0.118238   0.000000   0.000000  -0.069360
   24  S  1 XY    0.000000   0.000000   0.139649   0.000000   0.000000
   25  S  1 XZ    0.000000   0.000000   0.000000   0.139649   0.000000
   26  S  1 YZ    0.136529   0.000000   0.000000   0.000000   0.000000
   27  S  1 XX    0.000000   0.000000   0.000000   0.000000  -0.000407
   28  S  1 YY    0.000000  -0.002413   0.000000   0.000000   0.000203
   29  S  1 ZZ    0.000000   0.002413   0.000000   0.000000   0.000203
   30  S  1 XY    0.000000   0.000000  -0.003796   0.000000   0.000000
   31  S  1 XZ    0.000000   0.000000   0.000000  -0.003796   0.000000
   32  S  1 YZ   -0.002786   0.000000   0.000000   0.000000   0.000000
   33  S  1 XX    0.000000   0.000000   0.000000   0.000000   1.312096
   34  S  1 YY    0.000000   1.144273   0.000000   0.000000  -0.656048
   35  S  1 ZZ    0.000000  -1.144273   0.000000   0.000000  -0.656048
   36  S  1 XY    0.000000   0.000000   1.328394   0.000000   0.000000
   37  S  1 XZ    0.000000   0.000000   0.000000   1.328394   0.000000
   38  S  1 YZ    1.321293   0.000000   0.000000   0.000000   0.000000
   39  S  1 XX    0.000000   0.000000   0.000000   0.000000  -1.062318
   40  S  1 YY    0.000000  -0.966233   0.000000   0.000000   0.531159
   41  S  1 ZZ    0.000000   0.966233   0.000000   0.000000   0.531159
   42  S  1 XY    0.000000   0.000000  -1.084884   0.000000   0.000000
   43  S  1 XZ    0.000000   0.000000   0.000000  -1.084884   0.000000
   44  S  1 YZ   -1.115709   0.000000   0.000000   0.000000   0.000000
   45  S  1 XXX   0.000000   0.000000   0.000000   0.000000   0.000000
   46  S  1 YYY   0.000000   0.000000   0.000000   0.000000   0.000000
   47  S  1 ZZZ   0.000000   0.000000   0.000000   0.000000   0.000000
   48  S  1 XXY   0.000000   0.000000   0.000000   0.000000   0.000000
   49  S  1 XXZ   0.000000   0.000000   0.000000   0.000000   0.000000
   50  S  1 YYX   0.000000   0.000000   0.000000   0.000000   0.000000
   51  S  1 YYZ   0.000000   0.000000   0.000000   0.000000   0.000000
   52  S  1 ZZX   0.000000   0.000000   0.000000   0.000000   0.000000
   53  S  1 ZZY   0.000000   0.000000   0.000000   0.000000   0.000000
   54  S  1 XYZ   0.000000   0.000000   0.000000   0.000000   0.000000
   55  S  1 XXX   0.000000   0.000000   0.000000   0.000000   0.000000
   56  S  1 YYY   0.000000   0.000000   0.000000   0.000000   0.000000
   57  S  1 ZZZ   0.000000   0.000000   0.000000   0.000000   0.000000
   58  S  1 XXY   0.000000   0.000000   0.000000   0.000000   0.000000
   59  S  1 XXZ   0.000000   0.000000   0.000000   0.000000   0.000000
   60  S  1 YYX   0.000000   0.000000   0.000000   0.000000   0.000000
   61  S  1 YYZ   0.000000   0.000000   0.000000   0.000000   0.000000
   62  S  1 ZZX   0.000000   0.000000   0.000000   0.000000   0.000000
   63  S  1 ZZY   0.000000   0.000000   0.000000   0.000000   0.000000
   64  S  1 XYZ   0.000000   0.000000   0.000000   0.000000   0.000000
   65  S  1 XXX   0.000000   0.000000   0.000000   0.000000   0.000000
   66  S  1 YYY   0.000000   0.000000   0.000000   0.000000   0.000000
   67  S  1 ZZZ   0.000000   0.000000   0.000000   0.000000   0.000000
   68  S  1 XXY   0.000000   0.000000   0.000000   0.000000   0.000000
   69  S  1 XXZ   0.000000   0.000000   0.000000   0.000000   0.000000
   70  S  1 YYX   0.000000   0.000000   0.000000   0.000000   0.000000
   71  S  1 YYZ   0.000000   0.000000   0.000000   0.000000   0.000000
   72  S  1 ZZX   0.000000   0.000000   0.000000   0.000000   0.000000
   73  S  1 ZZY   0.000000   0.000000   0.000000   0.000000   0.000000
   74  S  1 XYZ   0.000000   0.000000   0.000000   0.000000   0.000000
   75  S  1XXXX   0.000000   0.000000   0.000000   0.000000  -0.008072
   76  S  1YYYY   0.000000   0.003034   0.000000   0.000000  -0.003027
   77  S  1ZZZZ   0.000000  -0.003034   0.000000   0.000000  -0.003027
   78  S  1XXXY   0.000000   0.000000  -0.008944   0.000000   0.000000
   79  S  1XXXZ   0.000000   0.000000   0.000000  -0.008944   0.000000
   80  S  1YYYX   0.000000   0.000000   0.006708   0.000000   0.000000
   81  S  1YYYZ   0.002294   0.000000   0.000000   0.000000   0.000000
   82  S  1ZZZX   0.000000   0.000000   0.000000   0.006708   0.000000
   83  S  1ZZZY   0.002294   0.000000   0.000000   0.000000   0.000000
   84  S  1XXYY   0.000000  -0.005330   0.000000   0.000000   0.007090
   85  S  1XXZZ   0.000000   0.005330   0.000000   0.000000   0.007090
   86  S  1YYZZ   0.000000   0.000000   0.000000   0.000000  -0.001772
   87  S  1XXYZ  -0.006154   0.000000   0.000000   0.000000   0.000000
   88  S  1YYXZ   0.000000   0.000000   0.000000   0.003000   0.000000
   89  S  1ZZXY   0.000000   0.000000   0.003000   0.000000   0.000000
   90  S  1XXXX   0.000000   0.000000   0.000000   0.000000  -0.006846
   91  S  1YYYY   0.000000   0.002087   0.000000   0.000000  -0.002567
   92  S  1ZZZZ   0.000000  -0.002087   0.000000   0.000000  -0.002567
   93  S  1XXXY   0.000000   0.000000  -0.007395   0.000000   0.000000
   94  S  1XXXZ   0.000000   0.000000   0.000000  -0.007395   0.000000
   95  S  1YYYX   0.000000   0.000000   0.005546   0.000000   0.000000
   96  S  1YYYZ   0.001578   0.000000   0.000000   0.000000   0.000000
   97  S  1ZZZX   0.000000   0.000000   0.000000   0.005546   0.000000
   98  S  1ZZZY   0.001578   0.000000   0.000000   0.000000   0.000000
   99  S  1XXYY   0.000000  -0.003666   0.000000   0.000000   0.006013
  100  S  1XXZZ   0.000000   0.003666   0.000000   0.000000   0.006013
  101  S  1YYZZ   0.000000   0.000000   0.000000   0.000000  -0.001503
  102  S  1XXYZ  -0.004234   0.000000   0.000000   0.000000   0.000000
  103  S  1YYXZ   0.000000   0.000000   0.000000   0.002480   0.000000
  104  S  1ZZXY   0.000000   0.000000   0.002480   0.000000   0.000000

                     26         27         28         29         30
                    1.2265     1.2265     1.2491     1.2895     2.1429
                     A          A          A          A          A   
    1  S  1  S    0.000000   0.000000  -1.060598   0.000000   0.000000
    2  S  1  S    0.000000   0.000000  -2.548095   0.000000   0.000000
    3  S  1  S    0.000000   0.000000   7.381011   0.000000   0.000000
    4  S  1  S    0.000000   0.000000  -6.433408   0.000000   0.000000
    5  S  1  S    0.000000   0.000000   2.812469   0.000000   0.000000
    6  S  1  X    0.000000   0.000000   0.000000  -4.326674   0.000000
    7  S  1  Y    0.000000  -4.467805   0.000000   0.000000   0.000000
    8  S  1  Z   -4.467805   0.000000   0.000000   0.000000   0.000000
    9  S  1  X    0.000000   0.000000   0.000000  -0.358743   0.000000
   10  S  1  Y    0.000000  -0.363799   0.000000   0.000000   0.000000
   11  S  1  Z   -0.363799   0.000000   0.000000   0.000000   0.000000
   12  S  1  X    0.000000   0.000000   0.000000   1.075238   0.000000
   13  S  1  Y    0.000000   1.073062   0.000000   0.000000   0.000000
   14  S  1  Z    1.073062   0.000000   0.000000   0.000000   0.000000
   15  S  1  X    0.000000   0.000000   0.000000  -1.535275   0.000000
   16  S  1  Y    0.000000  -1.464100   0.000000   0.000000   0.000000
   17  S  1  Z   -1.464100   0.000000   0.000000   0.000000   0.000000
   18  S  1  X    0.000000   0.000000   0.000000   5.248143   0.000000
   19  S  1  Y    0.000000   5.338879   0.000000   0.000000   0.000000
   20  S  1  Z    5.338879   0.000000   0.000000   0.000000   0.000000
   21  S  1 XX    0.000000   0.000000   0.021928   0.000000   0.000000
   22  S  1 YY    0.000000   0.000000  -0.010964   0.000000   0.000000
   23  S  1 ZZ    0.000000   0.000000  -0.010964   0.000000   0.000000
   24  S  1 XY    0.000000   0.000000   0.000000   0.000000   0.000000
   25  S  1 XZ    0.000000   0.000000   0.000000   0.000000   0.000000
   26  S  1 YZ    0.000000   0.000000   0.000000   0.000000   0.000000
   27  S  1 XX    0.000000   0.000000  -0.031530   0.000000   0.000000
   28  S  1 YY    0.000000   0.000000   0.015765   0.000000   0.000000
   29  S  1 ZZ    0.000000   0.000000   0.015765   0.000000   0.000000
   30  S  1 XY    0.000000   0.000000   0.000000   0.000000   0.000000
   31  S  1 XZ    0.000000   0.000000   0.000000   0.000000   0.000000
   32  S  1 YZ    0.000000   0.000000   0.000000   0.000000   0.000000
   33  S  1 XX    0.000000   0.000000   0.220680   0.000000   0.000000
   34  S  1 YY    0.000000   0.000000  -0.110340   0.000000   0.000000
   35  S  1 ZZ    0.000000   0.000000  -0.110340   0.000000   0.000000
   36  S  1 XY    0.000000   0.000000   0.000000   0.000000   0.000000
   37  S  1 XZ    0.000000   0.000000   0.000000   0.000000   0.000000
   38  S  1 YZ    0.000000   0.000000   0.000000   0.000000   0.000000
   39  S  1 XX    0.000000   0.000000  -0.180235   0.000000   0.000000
   40  S  1 YY    0.000000   0.000000   0.090117   0.000000   0.000000
   41  S  1 ZZ    0.000000   0.000000   0.090117   0.000000   0.000000
   42  S  1 XY    0.000000   0.000000   0.000000   0.000000   0.000000
   43  S  1 XZ    0.000000   0.000000   0.000000   0.000000   0.000000
   44  S  1 YZ    0.000000   0.000000   0.000000   0.000000   0.000000
   45  S  1 XXX   0.000000   0.000000   0.000000   0.012799   0.000000
   46  S  1 YYY   0.000000  -0.007094   0.000000   0.000000   0.000000
   47  S  1 ZZZ  -0.007094   0.000000   0.000000   0.000000   0.000000
   48  S  1 XXY   0.000000   0.012691   0.000000   0.000000   0.000000
   49  S  1 XXZ   0.012691   0.000000   0.000000   0.000000   0.000000
   50  S  1 YYX   0.000000   0.000000   0.000000  -0.008586   0.000000
   51  S  1 YYZ  -0.003173   0.000000   0.000000   0.000000   0.000000
   52  S  1 ZZX   0.000000   0.000000   0.000000  -0.008586   0.000000
   53  S  1 ZZY   0.000000  -0.003173   0.000000   0.000000   0.000000
   54  S  1 XYZ   0.000000   0.000000   0.000000   0.000000   0.000000
   55  S  1 XXX   0.000000   0.000000   0.000000  -0.004140   0.000000
   56  S  1 YYY   0.000000   0.004339   0.000000   0.000000   0.000000
   57  S  1 ZZZ   0.004339   0.000000   0.000000   0.000000   0.000000
   58  S  1 XXY   0.000000  -0.007761   0.000000   0.000000   0.000000
   59  S  1 XXZ  -0.007761   0.000000   0.000000   0.000000   0.000000
   60  S  1 YYX   0.000000   0.000000   0.000000   0.002777   0.000000
   61  S  1 YYZ   0.001940   0.000000   0.000000   0.000000   0.000000
   62  S  1 ZZX   0.000000   0.000000   0.000000   0.002777   0.000000
   63  S  1 ZZY   0.000000   0.001940   0.000000   0.000000   0.000000
   64  S  1 XYZ   0.000000   0.000000   0.000000   0.000000   0.000000
   65  S  1 XXX   0.000000   0.000000   0.000000   0.036522   0.000000
   66  S  1 YYY   0.000000  -0.024419   0.000000   0.000000   0.000000
   67  S  1 ZZZ  -0.024419   0.000000   0.000000   0.000000   0.000000
   68  S  1 XXY   0.000000   0.043682   0.000000   0.000000   0.000000
   69  S  1 XXZ   0.043682   0.000000   0.000000   0.000000   0.000000
   70  S  1 YYX   0.000000   0.000000   0.000000  -0.024500   0.000000
   71  S  1 YYZ  -0.010921   0.000000   0.000000   0.000000   0.000000
   72  S  1 ZZX   0.000000   0.000000   0.000000  -0.024500   0.000000
   73  S  1 ZZY   0.000000  -0.010921   0.000000   0.000000   0.000000
   74  S  1 XYZ   0.000000   0.000000   0.000000   0.000000   0.000000
   75  S  1XXXX   0.000000   0.000000  -0.000908   0.000000   0.000000
   76  S  1YYYY   0.000000   0.000000  -0.000341   0.000000   0.127865
   77  S  1ZZZZ   0.000000   0.000000  -0.000341   0.000000   0.127865
   78  S  1XXXY   0.000000   0.000000   0.000000   0.000000   0.000000
   79  S  1XXXZ   0.000000   0.000000   0.000000   0.000000   0.000000
   80  S  1YYYX   0.000000   0.000000   0.000000   0.000000   0.000000
   81  S  1YYYZ   0.000000   0.000000   0.000000   0.000000   0.000000
   82  S  1ZZZX   0.000000   0.000000   0.000000   0.000000   0.000000
   83  S  1ZZZY   0.000000   0.000000   0.000000   0.000000   0.000000
   84  S  1XXYY   0.000000   0.000000   0.000798   0.000000   0.000000
   85  S  1XXZZ   0.000000   0.000000   0.000798   0.000000   0.000000
   86  S  1YYZZ   0.000000   0.000000  -0.000199   0.000000  -0.224610
   87  S  1XXYZ   0.000000   0.000000   0.000000   0.000000   0.000000
   88  S  1YYXZ   0.000000   0.000000   0.000000   0.000000   0.000000
   89  S  1ZZXY   0.000000   0.000000   0.000000   0.000000   0.000000
   90  S  1XXXX   0.000000   0.000000  -0.001670   0.000000   0.000000
   91  S  1YYYY   0.000000   0.000000  -0.000626   0.000000  -0.811164
   92  S  1ZZZZ   0.000000   0.000000  -0.000626   0.000000  -0.811164
   93  S  1XXXY   0.000000   0.000000   0.000000   0.000000   0.000000
   94  S  1XXXZ   0.000000   0.000000   0.000000   0.000000   0.000000
   95  S  1YYYX   0.000000   0.000000   0.000000   0.000000   0.000000
   96  S  1YYYZ   0.000000   0.000000   0.000000   0.000000   0.000000
   97  S  1ZZZX   0.000000   0.000000   0.000000   0.000000   0.000000
   98  S  1ZZZY   0.000000   0.000000   0.000000   0.000000   0.000000
   99  S  1XXYY   0.000000   0.000000   0.001467   0.000000   0.000000
  100  S  1XXZZ   0.000000   0.000000   0.001467   0.000000   0.000000
  101  S  1YYZZ   0.000000   0.000000  -0.000367   0.000000   1.424907
  102  S  1XXYZ   0.000000   0.000000   0.000000   0.000000   0.000000
  103  S  1YYXZ   0.000000   0.000000   0.000000   0.000000   0.000000
  104  S  1ZZXY   0.000000   0.000000   0.000000   0.000000   0.000000

                     31         32         33         34         35
                    2.1429     2.1686     2.1686     2.1864     2.1864
                     A          A          A          A          A   
    1  S  1  S    0.000000   0.000000   0.000000   0.000000   0.000000
    2  S  1  S    0.000000   0.000000   0.000000   0.000000   0.000000
    3  S  1  S    0.000000   0.000000   0.000000   0.000000   0.000000
    4  S  1  S    0.000000   0.000000   0.000000   0.000000   0.000000
    5  S  1  S    0.000000   0.000000   0.000000   0.000000   0.000000
    6  S  1  X    0.000000   0.000000   0.000000   0.000000   0.000000
    7  S  1  Y    0.000000   0.000000   0.000000   0.000000   0.000000
    8  S  1  Z    0.000000   0.000000   0.000000   0.000000   0.000000
    9  S  1  X    0.000000   0.000000   0.000000   0.000000   0.000000
   10  S  1  Y    0.000000   0.000000   0.000000   0.000000   0.000000
   11  S  1  Z    0.000000   0.000000   0.000000   0.000000   0.000000
   12  S  1  X    0.000000   0.000000   0.000000   0.000000   0.000000
   13  S  1  Y    0.000000   0.000000   0.000000   0.000000   0.000000
   14  S  1  Z    0.000000   0.000000   0.000000   0.000000   0.000000
   15  S  1  X    0.000000   0.000000   0.000000   0.000000   0.000000
   16  S  1  Y    0.000000   0.000000   0.000000   0.000000   0.000000
   17  S  1  Z    0.000000   0.000000   0.000000   0.000000   0.000000
   18  S  1  X    0.000000   0.000000   0.000000   0.000000   0.000000
   19  S  1  Y    0.000000   0.000000   0.000000   0.000000   0.000000
   20  S  1  Z    0.000000   0.000000   0.000000   0.000000   0.000000
   21  S  1 XX    0.000000   0.000000   0.000000   0.000000   0.000000
   22  S  1 YY    0.000000   0.000000   0.000000   0.000000   0.001191
   23  S  1 ZZ    0.000000   0.000000   0.000000   0.000000  -0.001191
   24  S  1 XY    0.000000   0.000000   0.000000   0.000000   0.000000
   25  S  1 XZ    0.000000   0.000000   0.000000   0.000000   0.000000
   26  S  1 YZ    0.000000   0.000000   0.000000   0.001376   0.000000
   27  S  1 XX    0.000000   0.000000   0.000000   0.000000   0.000000
   28  S  1 YY    0.000000   0.000000   0.000000   0.000000   0.016309
   29  S  1 ZZ    0.000000   0.000000   0.000000   0.000000  -0.016309
   30  S  1 XY    0.000000   0.000000   0.000000   0.000000   0.000000
   31  S  1 XZ    0.000000   0.000000   0.000000   0.000000   0.000000
   32  S  1 YZ    0.000000   0.000000   0.000000   0.018832   0.000000
   33  S  1 XX    0.000000   0.000000   0.000000   0.000000   0.000000
   34  S  1 YY    0.000000   0.000000   0.000000   0.000000  -0.008623
   35  S  1 ZZ    0.000000   0.000000   0.000000   0.000000   0.008623
   36  S  1 XY    0.000000   0.000000   0.000000   0.000000   0.000000
   37  S  1 XZ    0.000000   0.000000   0.000000   0.000000   0.000000
   38  S  1 YZ    0.000000   0.000000   0.000000  -0.009957   0.000000
   39  S  1 XX    0.000000   0.000000   0.000000   0.000000   0.000000
   40  S  1 YY    0.000000   0.000000   0.000000   0.000000   0.009876
   41  S  1 ZZ    0.000000   0.000000   0.000000   0.000000  -0.009876
   42  S  1 XY    0.000000   0.000000   0.000000   0.000000   0.000000
   43  S  1 XZ    0.000000   0.000000   0.000000   0.000000   0.000000
   44  S  1 YZ    0.000000   0.000000   0.000000   0.011404   0.000000
   45  S  1 XXX   0.000000   0.000000   0.000000   0.000000   0.000000
   46  S  1 YYY   0.000000   0.000000   0.000000   0.000000   0.000000
   47  S  1 ZZZ   0.000000   0.000000   0.000000   0.000000   0.000000
   48  S  1 XXY   0.000000   0.000000   0.000000   0.000000   0.000000
   49  S  1 XXZ   0.000000   0.000000   0.000000   0.000000   0.000000
   50  S  1 YYX   0.000000   0.000000   0.000000   0.000000   0.000000
   51  S  1 YYZ   0.000000   0.000000   0.000000   0.000000   0.000000
   52  S  1 ZZX   0.000000   0.000000   0.000000   0.000000   0.000000
   53  S  1 ZZY   0.000000   0.000000   0.000000   0.000000   0.000000
   54  S  1 XYZ   0.000000   0.000000   0.000000   0.000000   0.000000
   55  S  1 XXX   0.000000   0.000000   0.000000   0.000000   0.000000
   56  S  1 YYY   0.000000   0.000000   0.000000   0.000000   0.000000
   57  S  1 ZZZ   0.000000   0.000000   0.000000   0.000000   0.000000
   58  S  1 XXY   0.000000   0.000000   0.000000   0.000000   0.000000
   59  S  1 XXZ   0.000000   0.000000   0.000000   0.000000   0.000000
   60  S  1 YYX   0.000000   0.000000   0.000000   0.000000   0.000000
   61  S  1 YYZ   0.000000   0.000000   0.000000   0.000000   0.000000
   62  S  1 ZZX   0.000000   0.000000   0.000000   0.000000   0.000000
   63  S  1 ZZY   0.000000   0.000000   0.000000   0.000000   0.000000
   64  S  1 XYZ   0.000000   0.000000   0.000000   0.000000   0.000000
   65  S  1 XXX   0.000000   0.000000   0.000000   0.000000   0.000000
   66  S  1 YYY   0.000000   0.000000   0.000000   0.000000   0.000000
   67  S  1 ZZZ   0.000000   0.000000   0.000000   0.000000   0.000000
   68  S  1 XXY   0.000000   0.000000   0.000000   0.000000   0.000000
   69  S  1 XXZ   0.000000   0.000000   0.000000   0.000000   0.000000
   70  S  1 YYX   0.000000   0.000000   0.000000   0.000000   0.000000
   71  S  1 YYZ   0.000000   0.000000   0.000000   0.000000   0.000000
   72  S  1 ZZX   0.000000   0.000000   0.000000   0.000000   0.000000
   73  S  1 ZZY   0.000000   0.000000   0.000000   0.000000   0.000000
   74  S  1 XYZ   0.000000   0.000000   0.000000   0.000000   0.000000
   75  S  1XXXX   0.000000   0.000000   0.000000   0.000000   0.000000
   76  S  1YYYY   0.000000   0.000000   0.000000   0.000000   0.098452
   77  S  1ZZZZ   0.000000   0.000000   0.000000   0.000000  -0.098452
   78  S  1XXXY   0.000000   0.000000   0.000000   0.000000   0.000000
   79  S  1XXXZ   0.000000   0.000000   0.000000   0.000000   0.000000
   80  S  1YYYX   0.000000   0.000000   0.138167   0.000000   0.000000
   81  S  1YYYZ  -0.193313   0.000000   0.000000   0.074423   0.000000
   82  S  1ZZZX   0.000000   0.138167   0.000000   0.000000   0.000000
   83  S  1ZZZY   0.193313   0.000000   0.000000   0.074423   0.000000
   84  S  1XXYY   0.000000   0.000000   0.000000   0.000000  -0.172943
   85  S  1XXZZ   0.000000   0.000000   0.000000   0.000000   0.172943
   86  S  1YYZZ   0.000000   0.000000   0.000000   0.000000   0.000000
   87  S  1XXYZ   0.000000   0.000000   0.000000  -0.199698   0.000000
   88  S  1YYXZ   0.000000  -0.185370   0.000000   0.000000   0.000000
   89  S  1ZZXY   0.000000   0.000000  -0.185370   0.000000   0.000000
   90  S  1XXXX   0.000000   0.000000   0.000000   0.000000  -0.000000
   91  S  1YYYY   0.000000   0.000000   0.000000   0.000000  -0.614001
   92  S  1ZZZZ   0.000000   0.000000   0.000000   0.000000   0.614001
   93  S  1XXXY   0.000000   0.000000   0.000000   0.000000   0.000000
   94  S  1XXXZ   0.000000   0.000000   0.000000   0.000000   0.000000
   95  S  1YYYX   0.000000   0.000000  -0.867915   0.000000   0.000000
   96  S  1YYYZ   1.226364   0.000000   0.000000  -0.464141   0.000000
   97  S  1ZZZX   0.000000  -0.867915   0.000000   0.000000   0.000000
   98  S  1ZZZY  -1.226364   0.000000   0.000000  -0.464141   0.000000
   99  S  1XXYY   0.000000   0.000000   0.000000   0.000000   1.078566
  100  S  1XXZZ   0.000000   0.000000   0.000000   0.000000  -1.078566
  101  S  1YYZZ   0.000000   0.000000   0.000000   0.000000   0.000000
  102  S  1XXYZ   0.000000   0.000000   0.000000   1.245421   0.000000
  103  S  1YYXZ   0.000000   1.164430   0.000000   0.000000   0.000000
  104  S  1ZZXY   0.000000   0.000000   1.164430   0.000000   0.000000

                     36         37         38         39         40
                    2.1969     2.1969     2.2004     2.3677     2.3677
                     A          A          A          A          A   
    1  S  1  S    0.000000   0.000000  -0.005307   0.000000   0.000000
    2  S  1  S    0.000000   0.000000  -0.005810   0.000000   0.000000
    3  S  1  S    0.000000   0.000000   0.012662   0.000000   0.000000
[...]
   57  S  1 ZZZ   0.000000   0.000000   0.000000   0.000000   0.000000
   58  S  1 XXY   0.000000   0.000000   0.000000   0.000000   0.000000
   59  S  1 XXZ   0.000000   0.000000   0.000000   0.000000   0.000000
   60  S  1 YYX   0.000000   0.000000   0.000000   0.000000   0.000000
   61  S  1 YYZ   0.000000   0.000000   0.000000   0.000000   0.000000
   62  S  1 ZZX   0.000000   0.000000   0.000000   0.000000   0.000000
   63  S  1 ZZY   0.000000   0.000000   0.000000   0.000000   0.000000
   64  S  1 XYZ   0.000000   0.000000   0.000000   0.000000   0.000000
   65  S  1 XXX   0.000000   0.000000   0.000000   0.000000   0.000000
   66  S  1 YYY   0.000000   0.000000   0.000000   0.000000   0.000000
   67  S  1 ZZZ   0.000000   0.000000   0.000000   0.000000   0.000000
   68  S  1 XXY   0.000000   0.000000   0.000000   0.000000   0.000000
   69  S  1 XXZ   0.000000   0.000000   0.000000   0.000000   0.000000
   70  S  1 YYX   0.000000   0.000000   0.000000   0.000000   0.000000
   71  S  1 YYZ   0.000000   0.000000   0.000000   0.000000   0.000000
   72  S  1 ZZX   0.000000   0.000000   0.000000   0.000000   0.000000
   73  S  1 ZZY   0.000000   0.000000   0.000000   0.000000   0.000000
   74  S  1 XYZ   0.000000   0.000000   0.000000   0.000000   0.000000
   75  S  1XXXX   0.000000   0.000000   0.000000   0.000000   0.007835
   76  S  1YYYY   0.002905   0.000000   0.000000   0.000000   0.002938
   77  S  1ZZZZ  -0.002905   0.000000   0.000000   0.000000   0.002938
   78  S  1XXXY   0.000000   0.000000   0.000000   0.008606   0.000000
   79  S  1XXXZ   0.000000   0.000000   0.008606   0.000000   0.000000
   80  S  1YYYX   0.000000   0.000000   0.000000  -0.006454   0.000000
   81  S  1YYYZ   0.000000  -0.002196   0.000000   0.000000   0.000000
   82  S  1ZZZX   0.000000   0.000000  -0.006454   0.000000   0.000000
   83  S  1ZZZY   0.000000  -0.002196   0.000000   0.000000   0.000000
   84  S  1XXYY  -0.005103   0.000000   0.000000   0.000000  -0.006881
   85  S  1XXZZ   0.005103   0.000000   0.000000   0.000000  -0.006881
   86  S  1YYZZ   0.000000   0.000000   0.000000   0.000000   0.001720
   87  S  1XXYZ   0.000000   0.005892   0.000000   0.000000   0.000000
   88  S  1YYXZ   0.000000   0.000000  -0.002886   0.000000   0.000000
   89  S  1ZZXY   0.000000   0.000000   0.000000  -0.002886   0.000000
   90  S  1XXXX   0.000000   0.000000   0.000000   0.000000  -0.004475
   91  S  1YYYY  -0.001654   0.000000   0.000000   0.000000  -0.001678
   92  S  1ZZZZ   0.001654   0.000000   0.000000   0.000000  -0.001678
   93  S  1XXXY   0.000000   0.000000   0.000000  -0.004912   0.000000
   94  S  1XXXZ   0.000000   0.000000  -0.004912   0.000000   0.000000
   95  S  1YYYX   0.000000   0.000000   0.000000   0.003684   0.000000
   96  S  1YYYZ   0.000000   0.001250   0.000000   0.000000   0.000000
   97  S  1ZZZX   0.000000   0.000000   0.003684   0.000000   0.000000
   98  S  1ZZZY   0.000000   0.001250   0.000000   0.000000   0.000000
   99  S  1XXYY   0.002905   0.000000   0.000000   0.000000   0.003931
  100  S  1XXZZ  -0.002905   0.000000   0.000000   0.000000   0.003931
  101  S  1YYZZ   0.000000   0.000000   0.000000   0.000000  -0.000983
  102  S  1XXYZ   0.000000  -0.003355   0.000000   0.000000   0.000000
  103  S  1YYXZ   0.000000   0.000000   0.001647   0.000000   0.000000
  104  S  1ZZXY   0.000000   0.000000   0.000000   0.001647   0.000000

                     76         77         78         79
                   11.7257    11.7257    11.7608    16.6823
                     A          A          A          A   
    1  S  1  S    0.000000   0.000000   0.000000  15.868919
    2  S  1  S    0.000000   0.000000   0.000000   7.084842
    3  S  1  S    0.000000   0.000000   0.000000 -11.939354
    4  S  1  S    0.000000   0.000000   0.000000  -6.438960
    5  S  1  S    0.000000   0.000000   0.000000  -3.726326
    6  S  1  X    0.000000   0.000000  -1.185106   0.000000
    7  S  1  Y   -1.186978   0.000000   0.000000   0.000000
    8  S  1  Z    0.000000  -1.186978   0.000000   0.000000
    9  S  1  X    0.000000   0.000000  -2.667469   0.000000
   10  S  1  Y   -2.667035   0.000000   0.000000   0.000000
   11  S  1  Z    0.000000  -2.667035   0.000000   0.000000
   12  S  1  X    0.000000   0.000000   3.889617   0.000000
   13  S  1  Y    3.887529   0.000000   0.000000   0.000000
   14  S  1  Z    0.000000   3.887529   0.000000   0.000000
   15  S  1  X    0.000000   0.000000  -2.390376   0.000000
   16  S  1  Y   -2.389490   0.000000   0.000000   0.000000
   17  S  1  Z    0.000000  -2.389490   0.000000   0.000000
   18  S  1  X    0.000000   0.000000   1.824310   0.000000
   19  S  1  Y    1.826122   0.000000   0.000000   0.000000
   20  S  1  Z    0.000000   1.826122   0.000000   0.000000
   21  S  1 XX    0.000000   0.000000   0.000000  -0.003734
   22  S  1 YY    0.000000   0.000000   0.000000   0.001867
   23  S  1 ZZ    0.000000   0.000000   0.000000   0.001867
   24  S  1 XY    0.000000   0.000000   0.000000   0.000000
   25  S  1 XZ    0.000000   0.000000   0.000000   0.000000
   26  S  1 YZ    0.000000   0.000000   0.000000   0.000000
   27  S  1 XX    0.000000   0.000000   0.000000   0.005468
   28  S  1 YY    0.000000   0.000000   0.000000  -0.002734
   29  S  1 ZZ    0.000000   0.000000   0.000000  -0.002734
   30  S  1 XY    0.000000   0.000000   0.000000   0.000000
   31  S  1 XZ    0.000000   0.000000   0.000000   0.000000
   32  S  1 YZ    0.000000   0.000000   0.000000   0.000000
   33  S  1 XX    0.000000   0.000000   0.000000  -0.003531
   34  S  1 YY    0.000000   0.000000   0.000000   0.001766
   35  S  1 ZZ    0.000000   0.000000   0.000000   0.001766
   36  S  1 XY    0.000000   0.000000   0.000000   0.000000
   37  S  1 XZ    0.000000   0.000000   0.000000   0.000000
   38  S  1 YZ    0.000000   0.000000   0.000000   0.000000
   39  S  1 XX    0.000000   0.000000   0.000000   0.001272
   40  S  1 YY    0.000000   0.000000   0.000000  -0.000636
   41  S  1 ZZ    0.000000   0.000000   0.000000  -0.000636
   42  S  1 XY    0.000000   0.000000   0.000000   0.000000
   43  S  1 XZ    0.000000   0.000000   0.000000   0.000000
   44  S  1 YZ    0.000000   0.000000   0.000000   0.000000
   45  S  1 XXX   0.000000   0.000000   0.003940   0.000000
   46  S  1 YYY  -0.002003   0.000000   0.000000   0.000000
   47  S  1 ZZZ   0.000000  -0.002003   0.000000   0.000000
   48  S  1 XXY   0.003584   0.000000   0.000000   0.000000
   49  S  1 XXZ   0.000000   0.003584   0.000000   0.000000
   50  S  1 YYX   0.000000   0.000000  -0.002643   0.000000
   51  S  1 YYZ   0.000000  -0.000896   0.000000   0.000000
   52  S  1 ZZX   0.000000   0.000000  -0.002643   0.000000
   53  S  1 ZZY  -0.000896   0.000000   0.000000   0.000000
   54  S  1 XYZ   0.000000   0.000000   0.000000   0.000000
   55  S  1 XXX   0.000000   0.000000  -0.003550   0.000000
   56  S  1 YYY   0.001803   0.000000   0.000000   0.000000
   57  S  1 ZZZ   0.000000   0.001803   0.000000   0.000000
   58  S  1 XXY  -0.003225   0.000000   0.000000   0.000000
   59  S  1 XXZ   0.000000  -0.003225   0.000000   0.000000
   60  S  1 YYX   0.000000   0.000000   0.002382   0.000000
   61  S  1 YYZ   0.000000   0.000806   0.000000   0.000000
   62  S  1 ZZX   0.000000   0.000000   0.002382   0.000000
   63  S  1 ZZY   0.000806   0.000000   0.000000   0.000000
   64  S  1 XYZ   0.000000   0.000000   0.000000   0.000000
   65  S  1 XXX   0.000000   0.000000   0.001318   0.000000
   66  S  1 YYY  -0.000666   0.000000   0.000000   0.000000
   67  S  1 ZZZ   0.000000  -0.000666   0.000000   0.000000
   68  S  1 XXY   0.001192   0.000000   0.000000   0.000000
   69  S  1 XXZ   0.000000   0.001192   0.000000   0.000000
   70  S  1 YYX   0.000000   0.000000  -0.000884   0.000000
   71  S  1 YYZ   0.000000  -0.000298   0.000000   0.000000
   72  S  1 ZZX   0.000000   0.000000  -0.000884   0.000000
   73  S  1 ZZY  -0.000298   0.000000   0.000000   0.000000
   74  S  1 XYZ   0.000000   0.000000   0.000000   0.000000
   75  S  1XXXX   0.000000   0.000000   0.000000  -0.000004
   76  S  1YYYY   0.000000   0.000000   0.000000  -0.000001
   77  S  1ZZZZ   0.000000   0.000000   0.000000  -0.000001
   78  S  1XXXY   0.000000   0.000000   0.000000   0.000000
   79  S  1XXXZ   0.000000   0.000000   0.000000   0.000000
   80  S  1YYYX   0.000000   0.000000   0.000000   0.000000
   81  S  1YYYZ   0.000000   0.000000   0.000000   0.000000
   82  S  1ZZZX   0.000000   0.000000   0.000000   0.000000
   83  S  1ZZZY   0.000000   0.000000   0.000000   0.000000
   84  S  1XXYY   0.000000   0.000000   0.000000   0.000003
   85  S  1XXZZ   0.000000   0.000000   0.000000   0.000003
   86  S  1YYZZ   0.000000   0.000000   0.000000  -0.000001
   87  S  1XXYZ   0.000000   0.000000   0.000000   0.000000
   88  S  1YYXZ   0.000000   0.000000   0.000000   0.000000
   89  S  1ZZXY   0.000000   0.000000   0.000000   0.000000
   90  S  1XXXX   0.000000   0.000000   0.000000   0.000002
   91  S  1YYYY   0.000000   0.000000   0.000000   0.000001
   92  S  1ZZZZ   0.000000   0.000000   0.000000   0.000001
   93  S  1XXXY   0.000000   0.000000   0.000000   0.000000
   94  S  1XXXZ   0.000000   0.000000   0.000000   0.000000
   95  S  1YYYX   0.000000   0.000000   0.000000   0.000000
   96  S  1YYYZ   0.000000   0.000000   0.000000   0.000000
   97  S  1ZZZX   0.000000   0.000000   0.000000   0.000000
   98  S  1ZZZY   0.000000   0.000000   0.000000   0.000000
   99  S  1XXYY   0.000000   0.000000   0.000000  -0.000001
  100  S  1XXZZ   0.000000   0.000000   0.000000  -0.000001
  101  S  1YYZZ   0.000000   0.000000   0.000000   0.000000
  102  S  1XXYZ   0.000000   0.000000   0.000000   0.000000
  103  S  1YYXZ   0.000000   0.000000   0.000000   0.000000
  104  S  1ZZXY   0.000000   0.000000   0.000000   0.000000
 ...... END OF ROHF CALCULATION ......
 STEP CPU TIME =     1.09 TOTAL CPU TIME =        3.5 (    0.1 MIN)
 TOTAL WALL CLOCK TIME=        4.8 SECONDS, CPU UTILIZATION IS  72.69%

     ----------------------------------------------------------------
     PROPERTY VALUES FOR THE ROHF  SELF-CONSISTENT FIELD WAVEFUNCTION
     ----------------------------------------------------------------

          -----------------
          ENERGY COMPONENTS
          -----------------

         WAVEFUNCTION NORMALIZATION =       1.0000000000

                ONE ELECTRON ENERGY =     -16.3180285267
                TWO ELECTRON ENERGY =       6.3974294834
           NUCLEAR REPULSION ENERGY =       0.0000000000
                                      ------------------
                       TOTAL ENERGY =      -9.9205990433

 ELECTRON-ELECTRON POTENTIAL ENERGY =       6.3974294834
  NUCLEUS-ELECTRON POTENTIAL ENERGY =     -20.0221349996
   NUCLEUS-NUCLEUS POTENTIAL ENERGY =       0.0000000000
                                      ------------------
             TOTAL POTENTIAL ENERGY =     -13.6247055162
               TOTAL KINETIC ENERGY =       3.7041064730
                 VIRIAL RATIO (V/T) =       3.6782704859

          ---------------------------------------
          MULLIKEN AND LOWDIN POPULATION ANALYSES
          ---------------------------------------

     ATOMIC MULLIKEN POPULATION IN EACH MOLECULAR ORBITAL

                      1          2          3          4

                  2.000000   2.000000   1.000000   1.000000

    1             2.000000   2.000000   1.000000   1.000000

          MULLIKEN SPHERICAL HARMONIC POPULATIONS
       ATOM           S       P       D      F      G      H      I    TOTAL
    1 S             1.00    3.00    0.00   0.00   0.00   0.00   0.00    4.00

          MULLIKEN SPHERICAL HARMONIC POPULATIONS
       ATOM           S       P       D      F      G      H      I    TOTAL
    1 S             1.00    1.00    0.00   0.00   0.00   0.00   0.00    2.00

     ATOMIC SPIN POPULATION (ALPHA MINUS BETA)
       ATOM         MULL.POP.                    LOW.POP.
    1 S             2.000000                     2.000000

               ----- POPULATIONS IN EACH AO -----
                             MULLIKEN      LOWDIN
              1  S  1  S      1.99966     0.19657
              2  S  1  S     -0.00020     0.03336
              3  S  1  S      0.00057     0.11496
              4  S  1  S      0.00004     0.16115
              5  S  1  S     -0.00016     0.14556
              6  S  1  X      2.23358     0.44190
              7  S  1  Y      0.88452     0.20030
              8  S  1  Z      0.88452     0.20030
              9  S  1  X      0.00619     0.01695
             10  S  1  Y     -0.00310     0.00890
             11  S  1  Z     -0.00310     0.00890
             12  S  1  X     -0.01708     0.07658
             13  S  1  Y      0.00809     0.04242
             14  S  1  Z      0.00809     0.04242
             15  S  1  X     -0.08347     0.18348
             16  S  1  Y      0.04413     0.10024
             17  S  1  Z      0.04413     0.10024
             18  S  1  X     -0.13942     0.25077
             19  S  1  Y      0.06604     0.13108
             20  S  1  Z      0.06604     0.13108
             21  S  1 XX      0.00000     0.01089
             22  S  1 YY      0.00000     0.01060
             23  S  1 ZZ      0.00000     0.01060
             24  S  1 XY      0.00000     0.00000
             25  S  1 XZ      0.00000     0.00000
             26  S  1 YZ      0.00000     0.00000
             27  S  1 XX      0.00000     0.08188
             28  S  1 YY      0.00000     0.08078
             29  S  1 ZZ      0.00000     0.08078
             30  S  1 XY      0.00000     0.00000
             31  S  1 XZ      0.00000     0.00000
             32  S  1 YZ      0.00000     0.00000
             33  S  1 XX     -0.00000     0.09660
             34  S  1 YY     -0.00001     0.09502
             35  S  1 ZZ      0.00000     0.09502
             36  S  1 XY      0.00000     0.00000
             37  S  1 XZ      0.00000     0.00000
             38  S  1 YZ      0.00000     0.00000
             39  S  1 XX      0.00002     0.05415
             40  S  1 YY      0.00007     0.05016
             41  S  1 ZZ      0.00000     0.05016
             42  S  1 XY      0.00000     0.00000
             43  S  1 XZ      0.00000     0.00000
             44  S  1 YZ      0.00000     0.00000
             45  S  1 XXX     0.00001     0.11669
             46  S  1 YYY     0.00002     0.06573
             47  S  1 ZZZ     0.00001     0.06573
             48  S  1 XXY     0.00001     0.02588
             49  S  1 XXZ     0.00000     0.02588
             50  S  1 YYX     0.00000     0.05224
             51  S  1 YYZ     0.00003     0.02809
             52  S  1 ZZX     0.00000     0.05224
             53  S  1 ZZY     0.00000     0.02809
             54  S  1 XYZ     0.00000     0.00000
             55  S  1 XXX     0.00004     0.18597
             56  S  1 YYY     0.00008     0.10744
             57  S  1 ZZZ     0.00003     0.10744
             58  S  1 XXY     0.00005     0.03994
             59  S  1 XXZ     0.00001     0.03994
             60  S  1 YYX     0.00000     0.08342
             61  S  1 YYZ     0.00012     0.04511
             62  S  1 ZZX     0.00000     0.08342
             63  S  1 ZZY     0.00000     0.04511
             64  S  1 XYZ     0.00000     0.00000
             65  S  1 XXX     0.00008     0.24136
             66  S  1 YYY     0.00010     0.11495
             67  S  1 ZZZ     0.00005     0.11495
             68  S  1 XXY     0.00006     0.04201
             69  S  1 XXZ     0.00001     0.04201
             70  S  1 YYX     0.00000     0.10749
             71  S  1 YYZ     0.00015     0.04790
             72  S  1 ZZX     0.00000     0.10749
             73  S  1 ZZY     0.00000     0.04790
             74  S  1 XYZ     0.00000     0.00000
             75  S  1XXXX    -0.00000     0.06235
             76  S  1YYYY     0.00000     0.06151
             77  S  1ZZZZ    -0.00000     0.06151
             78  S  1XXXY     0.00000     0.00000
             79  S  1XXXZ    -0.00000     0.00000
             80  S  1YYYX     0.00000     0.00000
             81  S  1YYYZ     0.00000     0.00000
             82  S  1ZZZX     0.00000     0.00000
             83  S  1ZZZY     0.00000     0.00000
             84  S  1XXYY     0.00000     0.06513
             85  S  1XXZZ     0.00000     0.06513
             86  S  1YYZZ     0.00000     0.06470
             87  S  1XXYZ     0.00000     0.00000
             88  S  1YYXZ     0.00000     0.00000
             89  S  1ZZXY     0.00000     0.00000
             90  S  1XXXX     0.00000     0.04248
             91  S  1YYYY     0.00000     0.04032
             92  S  1ZZZZ     0.00000     0.04032
             93  S  1XXXY     0.00000     0.00000
             94  S  1XXXZ     0.00000     0.00000
             95  S  1YYYX     0.00000     0.00000
             96  S  1YYYZ     0.00000     0.00000
             97  S  1ZZZX     0.00000     0.00000
             98  S  1ZZZY     0.00000     0.00000
             99  S  1XXYY     0.00000     0.04314
            100  S  1XXZZ     0.00000     0.04314
            101  S  1YYZZ     0.00000     0.04201
            102  S  1XXYZ     0.00000     0.00000
            103  S  1YYXZ     0.00000     0.00000
            104  S  1ZZXY     0.00000     0.00000

          ----- MULLIKEN ATOMIC OVERLAP POPULATIONS -----
          (OFF-DIAGONAL ELEMENTS NEED TO BE MULTIPLIED BY 2)

             1

    1    6.0000000

          TOTAL MULLIKEN AND LOWDIN ATOMIC POPULATIONS
       ATOM         MULL.POP.    CHARGE          LOW.POP.     CHARGE
    1 S             6.000000    0.000000         6.000000   -0.000000

          MULLIKEN SPHERICAL HARMONIC POPULATIONS
       ATOM           S       P       D      F      G      H      I    TOTAL
    1 S             2.00    4.00    0.00   0.00   0.00   0.00   0.00    6.00

          -------------------------------
          BOND ORDER AND VALENCE ANALYSIS     BOND ORDER THRESHOLD=0.050
          -------------------------------

                   BOND                       BOND                       BOND
  ATOM PAIR DIST  ORDER      ATOM PAIR DIST  ORDER      ATOM PAIR DIST  ORDER

                       TOTAL       BONDED        FREE
      ATOM            VALENCE     VALENCE     VALENCE
    1 S                 2.000       0.000       2.000

          -----------------------------------------
          ATOMIC SPIN DENSITY AT THE NUCLEUS (A.U.)
          -----------------------------------------
                            SPIN DENS    ALPHA DENS     BETA DENS
    1  S            6.0     0.0000000       0.00050       0.00050

          ---------------------
          ELECTROSTATIC MOMENTS
          ---------------------

 POINT   1           X           Y           Z (BOHR)    CHARGE
                 0.000000    0.000000    0.000000       -0.00 (A.U.)
         DX          DY          DZ         /D/  (DEBYE)
     0.000000    0.000000    0.000000    0.000000
 ...... END OF PROPERTY EVALUATION ......
 STEP CPU TIME =     0.15 TOTAL CPU TIME =        3.6 (    0.1 MIN)
 TOTAL WALL CLOCK TIME=        5.0 SECONDS, CPU UTILIZATION IS  72.49%
                809342  WORDS OF DYNAMIC MEMORY USED
 EXECUTION OF GAMESS TERMINATED NORMALLY Fri Sep 28 23:29:39 2018
 DDI: 263624 bytes (0.3 MB / 0 MWords) used by master data server.

 ----------------------------------------
 CPU timing information for all processes
 ========================================
 0: 3.115 + 0.535 = 3.651
 ----------------------------------------
 ddikick.x: exited gracefully.
----- accounting info -----
Files used on the master node c437-073.stampede2.tacc.utexas.edu were:
-rw------- 1 aannabe G-801537     1795 Sep 28 23:29 /tmp/S.F05
-rw------- 1 aannabe G-801537 23042048 Sep 28 23:29 /tmp/S.F08
-rw------- 1 aannabe G-801537  8507200 Sep 28 23:29 /tmp/S.F10
Fri Sep 28 23:29:42 CDT 2018
1.162u 0.744s 0:10.25 18.5%	0+0k 6520+48io 33pf+0w
