
 Primary working directories    : /global/cscratch1/sd/aannabe
 Secondary working directories  : /global/cscratch1/sd/aannabe
 Wavefunction directory         : /global/homes/a/aannabe/wfu/
 Main file repository           : /global/cscratch1/sd/aannabe/

 SHA1      : 2873118e99aab1bc19f5b6fc1784693c06d15c95
 NAME      : 2015.1.8
 ARCHNAME  : linux/x86_64
 FC        : /opt/cray/pe/craype/2.5.5/bin/ftn
 BLASLIB   : -Wl,-_start-group /opt/intel/compilers_and_libraries_2016.3.210/linux/mkl/lib/intel64/libmkl_intel_ilp64.a /opt/intel/compilers_and_libraries_2016.3.210/linux/mkl/lib/intel64/libmkl_intel_thread.a /opt/intel/compilers_and_libraries_2016.3.210/linux/mkl/lib/intel64/libmkl_core.a -Wl,-_end-group
 id        : lbl

 Nodes     nprocs
 nid00492     1

 Using customized tuning parameters: mindgm=8; mindgv=16; mindgc=4; mindgr=1; noblas=0; minvec=7
 default implementation of scratch files=df  

 ***,Zn
 memory,512,m
 gthresh,twoint=1.e-12
 
 gprint,basis,orbitals
 gexpec,ekin,pot
 
 angstrom
 geometry={
 1                                                                               ! Number of atoms
 Zn 0.0 0.0 0.0
 }
 
 basis={
 Including file /global/homes/a/aannabe/docs/accurate/ccECP_Kh/pps/Zn.pp
                                              !include,/global/homes/a/aannabe/docs/accurate/ccECP_Kh/basis/aug-cc-pVnZ/Zn_5z.basis
 Including file /global/homes/a/aannabe/docs/accurate/ccECP_Kh/basis/cc-pVnZ/Zn_5z.basis
 }
 
 {rhf
  start,5202.2
  wf,20,1,0
  occ,4,1,1,1,1,1,1,0
 }
 
 scf(i)=energy
 
 _CC_NORM_MAX=2.0
 {uccsd(t)
 maxit,100
 core
 }
 posthf(i)=energy
 
 table,scf,posthf,ekin,pot
 save,5.csv,new
 
 

 Variables initialized (889), CPU time= 0.01 sec
 Commands  initialized (702), CPU time= 0.00 sec, 572 directives.
 Default parameters read. Elapsed time= 0.18 sec

 Checking input...
 Passed
1


                                         ***  PROGRAM SYSTEM MOLPRO  ***
                                       Copyright, TTI GmbH Stuttgart, 2015
                                    Version 2015.1 linked Sep  7 2016 23:09:38


 **********************************************************************************************************************************
 LABEL *   Zn                                                                            
  64 bit serial version                                                                  DATE: 13-Nov-18          TIME: 22:27:24  
 **********************************************************************************************************************************

 SHA1:             2873118e99aab1bc19f5b6fc1784693c06d15c95
 **********************************************************************************************************************************

 THRESHOLDS:

 ZERO    =  1.00D-12  ONEINT  =  1.00D-12  TWOINT  =  1.00D-12  PREFAC  =  1.00D-14  LOCALI  =  1.00D-09  EORDER  =  1.00D-04
 ENERGY  =  0.00D+00  ETEST   =  0.00D+00  EDENS   =  0.00D+00  THRDEDEF=  1.00D-06  GRADIENT=  1.00D-02  STEP    =  1.00D-03
 ORBITAL =  1.00D-05  CIVEC   =  1.00D-05  COEFF   =  1.00D-04  PRINTCI =  5.00D-02  PUNCHCI =  9.90D+01  OPTGRAD =  3.00D-04
 OPTENERG=  1.00D-06  OPTSTEP =  3.00D-04  THRGRAD =  1.00D-10  COMPRESS=  1.00D-11  VARMIN  =  1.00D-07  VARMAX  =  1.00D-03
 THRDOUB =  0.00D+00  THRDIV  =  1.00D-05  THRRED  =  1.00D-07  THRPSP  =  1.00D+00  THRDC   =  1.00D-10  THRCS   =  1.00D-10
 THRNRM  =  1.00D-08  THREQ   =  0.00D+00  THRDE   =  1.00D+00  THRREF  =  1.00D-05  SPARFAC =  1.00D+00  THRDLP  =  1.00D-07
 THRDIA  =  1.00D-10  THRDLS  =  1.00D-07  THRGPS  =  0.00D+00  THRKEX  =  0.00D+00  THRDIS  =  2.00D-01  THRVAR  =  1.00D-10
 THRLOC  =  1.00D-06  THRGAP  =  1.00D-06  THRLOCT = -1.00D+00  THRGAPT = -1.00D+00  THRORB  =  1.00D-06  THRMLTP =  0.00D+00
 THRCPQCI=  1.00D-10  KEXTA   =  0.00D+00  THRCOARS=  0.00D+00  SYMTOL  =  1.00D-06  GRADTOL =  1.00D-06  THROVL  =  1.00D-08
 THRORTH =  1.00D-08  GRID    =  1.00D-06  GRIDMAX =  1.00D-03  DTMAX   =  0.00D+00  THROCCDE=  1.00D-01  THROCCDE=  1.00D-01



 ZUNIT=ANG
 

Geometry recognized as XYZ


 Variable memory set to  512000000 words,  buffer space   230000 words

 SETTING BASIS          =    USERDEF


 Recomputing integrals since basis changed


 Using spherical harmonics



 PROGRAM * SEWARD (Integral evaluation for generally contracted gaussian basis sets)     Author: Roland Lindh, 1990

 Geometry written to block  1 of record 700

 Orientation using atomic masses  
 Molecule type: Atom
 Symmetry elements: X,Y,Z
 Rotational constants:       0.0000000      0.0000000      0.0000000 GHz  (calculated with average atomic masses)

 Point group  D2h 



 ATOMIC COORDINATES

 NR  ATOM    CHARGE       X              Y              Z

   1  ZN     20.00    0.000000000    0.000000000    0.000000000


          ZN  CORE POTENTIAL

          d POTENTIAL

 POWERS             1              3              2              2
 EXPONENTIALS   35.80798       34.53646       28.62830       7.962397    
 COEFFICIENTS   20.00000       716.1595      -204.6839      0.7602661    

          s - d POTENTIAL

 POWERS             2              2
 EXPONENTIALS   14.63499       35.02141    
 COEFFICIENTS   95.87640       431.7080    

          p - d POTENTIAL

 POWERS             2              2
 EXPONENTIALS   14.57429       42.22979    
 COEFFICIENTS   74.01270       313.5777    


 BASIS DATA

   Nr Sym  Nuc  Type         Exponents   Contraction coefficients

    1.1 Ag    1  1s         114.485022     0.000429   -0.000109    0.000666    0.000704    0.005614   -0.001458
                                           0.000000
    2.1 Ag                   61.996430    -0.019339    0.004459    0.006269    0.012841   -0.066590    0.053602
                                           0.000000
    3.1 Ag                   40.117132     0.086254   -0.020067   -0.046603   -0.085910    0.242763   -0.298549
                                           0.000000
    4.1 Ag                   20.119649    -0.088955    0.022338    0.050399    0.117982   -0.433968    0.710662
                                           0.000000
    5.1 Ag                   10.171676    -0.402671    0.096698    0.363493    0.630164   -0.799712    1.691695
                                           0.000000
    6.1 Ag                    5.601641     0.067304   -0.021966   -0.242840   -0.600344    1.542151   -6.871352
                                           0.000000
    7.1 Ag                    2.864122     0.479215   -0.128768   -0.382281   -1.249060    3.080299    6.723615
                                           0.000000
                              1.592779     0.503960   -0.181706   -0.861567   -0.329498   -6.198250    0.196854
                                           0.000000
                              0.826525     0.222088   -0.162311    0.706077    2.592469    2.581766   -4.997314
                                           0.000000
                              0.263975     0.012203    0.116264    1.495001   -1.004481    3.211988    7.573318
                                           0.000000
                              0.145302    -0.004300    0.411314   -0.453994   -1.379514   -4.767457   -6.943390
                                           0.000000
                              0.068195     0.001243    0.494257   -0.597822    1.046842    1.676561    1.831608
                                           0.000000
                              0.031465    -0.000267    0.138103   -0.256117    0.324676    0.270909    0.260835
                                           1.000000
    8.1 Ag    1  1s           5.112162     1.000000
    9.1 Ag    1  1s           5.414352     1.000000
   10.1 Ag    1  3d0        270.014061    -0.000016
                            100.161579     0.000696
                             43.530609     0.013536
                             21.262419     0.069350
                             10.577821     0.149559
                              5.343620     0.239588
                              2.704857     0.286744
                              1.353018     0.271459
                              0.660873     0.202426
                              0.309149     0.103307
                              0.133879     0.023211
   11.1 Ag    1  3d2+       270.014061    -0.000016
                            100.161579     0.000696
                             43.530609     0.013536
                             21.262419     0.069350
                             10.577821     0.149559
                              5.343620     0.239588
                              2.704857     0.286744
                              1.353018     0.271459
                              0.660873     0.202426
                              0.309149     0.103307
                              0.133879     0.023211
   12.1 Ag    1  3d0        270.014061     0.000013
                            100.161579    -0.000889
                             43.530609    -0.018640
                             21.262419    -0.094646
                             10.577821    -0.215659
                              5.343620    -0.322469
                              2.704857    -0.197529
                              1.353018     0.164448
                              0.660873     0.410017
                              0.309149     0.327838
                              0.133879     0.105749
   13.1 Ag    1  3d2+       270.014061     0.000013
                            100.161579    -0.000889
                             43.530609    -0.018640
                             21.262419    -0.094646
                             10.577821    -0.215659
                              5.343620    -0.322469
                              2.704857    -0.197529
                              1.353018     0.164448
                              0.660873     0.410017
                              0.309149     0.327838
                              0.133879     0.105749
   14.1 Ag    1  3d0        270.014061     0.000007
                            100.161579     0.000868
                             43.530609     0.021631
                             21.262419     0.107748
                             10.577821     0.278997
                              5.343620     0.314543
                              2.704857    -0.241926
                              1.353018    -0.602415
                              0.660873    -0.118013
                              0.309149     0.545482
                              0.133879     0.363829
   15.1 Ag    1  3d2+       270.014061     0.000007
                            100.161579     0.000868
                             43.530609     0.021631
                             21.262419     0.107748
                             10.577821     0.278997
                              5.343620     0.314543
                              2.704857    -0.241926
                              1.353018    -0.602415
                              0.660873    -0.118013
                              0.309149     0.545482
                              0.133879     0.363829
   16.1 Ag    1  3d0        270.014061    -0.000088
                            100.161579    -0.000674
                             43.530609    -0.030726
                             21.262419    -0.143218
                             10.577821    -0.445330
                              5.343620    -0.136693
                              2.704857     0.927823
                              1.353018     0.143204
                              0.660873    -1.060202
                              0.309149     0.160452
                              0.133879     0.658542
   17.1 Ag    1  3d2+       270.014061    -0.000088
                            100.161579    -0.000674
                             43.530609    -0.030726
                             21.262419    -0.143218
                             10.577821    -0.445330
                              5.343620    -0.136693
                              2.704857     0.927823
                              1.353018     0.143204
                              0.660873    -1.060202
                              0.309149     0.160452
                              0.133879     0.658542
   18.1 Ag    1  3d0        270.014061     0.000115
                            100.161579     0.000997
                             43.530609     0.041742
                             21.262419     0.223761
                             10.577821     0.730928
                              5.343620    -0.869900
                              2.704857    -0.850529
                              1.353018     1.815694
                              0.660873    -0.681109
                              0.309149    -0.817280
                              0.133879     0.887309
   19.1 Ag    1  3d2+       270.014061     0.000115
                            100.161579     0.000997
                             43.530609     0.041742
                             21.262419     0.223761
                             10.577821     0.730928
                              5.343620    -0.869900
                              2.704857    -0.850529
                              1.353018     1.815694
                              0.660873    -0.681109
                              0.309149    -0.817280
                              0.133879     0.887309
   20.1 Ag    1  3d0        270.014061     0.000000
                            100.161579     0.000000
                             43.530609     0.000000
                             21.262419     0.000000
                             10.577821     0.000000
                              5.343620     0.000000
                              2.704857     0.000000
                              1.353018     0.000000
                              0.660873     0.000000
                              0.309149     0.000000
                              0.133879     1.000000
   21.1 Ag    1  3d2+       270.014061     0.000000
                            100.161579     0.000000
                             43.530609     0.000000
                             21.262419     0.000000
                             10.577821     0.000000
                              5.343620     0.000000
                              2.704857     0.000000
                              1.353018     0.000000
                              0.660873     0.000000
                              0.309149     0.000000
                              0.133879     1.000000
   22.1 Ag    1  3d0          7.377237     1.000000
   23.1 Ag    1  3d2+         7.377237     1.000000
   24.1 Ag    1  3d0          8.775120     1.000000
   25.1 Ag    1  3d2+         8.775120     1.000000
   26.1 Ag    1  5g0          1.280919     1.000000
   27.1 Ag    1  5g4+         1.280919     1.000000
   28.1 Ag    1  5g2+         1.280919     1.000000
   29.1 Ag    1  5g0          3.621387     1.000000
   30.1 Ag    1  5g4+         3.621387     1.000000
   31.1 Ag    1  5g2+         3.621387     1.000000
   32.1 Ag    1  5g0         10.238310     1.000000
   33.1 Ag    1  5g4+        10.238310     1.000000
   34.1 Ag    1  5g2+        10.238310     1.000000
   35.1 Ag    1  5g0          7.599484     1.000000
   36.1 Ag    1  5g4+         7.599484     1.000000
   37.1 Ag    1  5g2+         7.599484     1.000000
   38.1 Ag    1  7i6+         5.639501     1.000000
   39.1 Ag    1  7i4+         5.639501     1.000000
   40.1 Ag    1  7i2+         5.639501     1.000000
   41.1 Ag    1  7i0          5.639501     1.000000
   42.1 Ag    1  7i6+        11.154097     1.000000
   43.1 Ag    1  7i4+        11.154097     1.000000
   44.1 Ag    1  7i2+        11.154097     1.000000
   45.1 Ag    1  7i0         11.154097     1.000000
    1.2 B3u   1  2px        158.770986    -0.000153    0.000053   -0.000170   -0.000781   -0.000304    0.003251
                                           0.000000
    2.2 B3u                  75.802876     0.001893   -0.000571    0.000604    0.007855    0.000060   -0.023609
                                           0.000000
    3.2 B3u                  44.547824     0.010461   -0.001073   -0.019987   -0.008671   -0.036931    0.154911
                                           0.000000
    4.2 B3u                  31.445269    -0.045141    0.007463    0.061153   -0.040553    0.146019   -0.385539
                                           0.000000
    5.2 B3u                  13.080125    -0.084201    0.018676    0.067317   -0.200062    0.222104    0.043028
                                           0.000000
    6.2 B3u                   7.788616     0.104973   -0.028090   -0.139211    0.528599   -1.206310    2.491372
                                           0.000000
    7.2 B3u                   4.195040     0.307714   -0.054438   -0.527041    0.528552   -0.644084   -2.763659
                                           0.000000
                              2.362276     0.368563   -0.093744   -0.176194    0.243576    2.398136   -1.614563
                                           0.000000
                              1.302584     0.286336   -0.054169    0.037129   -1.807182   -0.304441    5.182032
                                           0.000000
                              0.660704     0.095156   -0.007972    1.079322    0.629496   -1.960894   -4.105360
                                           0.000000
                              0.249042     0.005851    0.356198   -0.050149    1.137613    1.895400    1.712702
                                           0.000000
                              0.091781    -0.000034    0.412399   -0.688971   -1.067150   -0.821577   -0.168837
                                           0.000000
                              0.048931     0.000252    0.361321    0.037331    0.022190   -0.132471   -0.454998
                                           1.000000
    8.2 B3u   1  2px          4.949443     1.000000
    9.2 B3u   1  2px         13.016090     1.000000
   10.2 B3u   1  4f1+         0.588643     1.000000
   11.2 B3u   1  4f3+         0.588643     1.000000
   12.2 B3u   1  4f1+         1.645556     1.000000
   13.2 B3u   1  4f3+         1.645556     1.000000
   14.2 B3u   1  4f1+         4.600166     1.000000
   15.2 B3u   1  4f3+         4.600166     1.000000
   16.2 B3u   1  4f1+        12.859800     1.000000
   17.2 B3u   1  4f3+        12.859800     1.000000
   18.2 B3u   1  4f1+         6.326622     1.000000
   19.2 B3u   1  4f3+         6.326622     1.000000
   20.2 B3u   1  6h1+         2.421611     1.000000
   21.2 B3u   1  6h3+         2.421611     1.000000
   22.2 B3u   1  6h5+         2.421611     1.000000
   23.2 B3u   1  6h1+         7.511113     1.000000
   24.2 B3u   1  6h3+         7.511113     1.000000
   25.2 B3u   1  6h5+         7.511113     1.000000
   26.2 B3u   1  6h1+         9.972769     1.000000
   27.2 B3u   1  6h3+         9.972769     1.000000
   28.2 B3u   1  6h5+         9.972769     1.000000
    1.3 B2u   1  2py        158.770986    -0.000153    0.000053   -0.000170   -0.000781   -0.000304    0.003251
                                           0.000000
    2.3 B2u                  75.802876     0.001893   -0.000571    0.000604    0.007855    0.000060   -0.023609
                                           0.000000
    3.3 B2u                  44.547824     0.010461   -0.001073   -0.019987   -0.008671   -0.036931    0.154911
                                           0.000000
    4.3 B2u                  31.445269    -0.045141    0.007463    0.061153   -0.040553    0.146019   -0.385539
                                           0.000000
    5.3 B2u                  13.080125    -0.084201    0.018676    0.067317   -0.200062    0.222104    0.043028
                                           0.000000
    6.3 B2u                   7.788616     0.104973   -0.028090   -0.139211    0.528599   -1.206310    2.491372
                                           0.000000
    7.3 B2u                   4.195040     0.307714   -0.054438   -0.527041    0.528552   -0.644084   -2.763659
                                           0.000000
                              2.362276     0.368563   -0.093744   -0.176194    0.243576    2.398136   -1.614563
                                           0.000000
                              1.302584     0.286336   -0.054169    0.037129   -1.807182   -0.304441    5.182032
                                           0.000000
                              0.660704     0.095156   -0.007972    1.079322    0.629496   -1.960894   -4.105360
                                           0.000000
                              0.249042     0.005851    0.356198   -0.050149    1.137613    1.895400    1.712702
                                           0.000000
                              0.091781    -0.000034    0.412399   -0.688971   -1.067150   -0.821577   -0.168837
                                           0.000000
                              0.048931     0.000252    0.361321    0.037331    0.022190   -0.132471   -0.454998
                                           1.000000
    8.3 B2u   1  2py          4.949443     1.000000
    9.3 B2u   1  2py         13.016090     1.000000
   10.3 B2u   1  4f1-         0.588643     1.000000
   11.3 B2u   1  4f3-         0.588643     1.000000
   12.3 B2u   1  4f1-         1.645556     1.000000
   13.3 B2u   1  4f3-         1.645556     1.000000
   14.3 B2u   1  4f1-         4.600166     1.000000
   15.3 B2u   1  4f3-         4.600166     1.000000
   16.3 B2u   1  4f1-        12.859800     1.000000
   17.3 B2u   1  4f3-        12.859800     1.000000
   18.3 B2u   1  4f1-         6.326622     1.000000
   19.3 B2u   1  4f3-         6.326622     1.000000
   20.3 B2u   1  6h1-         2.421611     1.000000
   21.3 B2u   1  6h3-         2.421611     1.000000
   22.3 B2u   1  6h5-         2.421611     1.000000
   23.3 B2u   1  6h1-         7.511113     1.000000
   24.3 B2u   1  6h3-         7.511113     1.000000
   25.3 B2u   1  6h5-         7.511113     1.000000
   26.3 B2u   1  6h1-         9.972769     1.000000
   27.3 B2u   1  6h3-         9.972769     1.000000
   28.3 B2u   1  6h5-         9.972769     1.000000
    1.4 B1g   1  3d2-       270.014061    -0.000016    0.000013    0.000007   -0.000088    0.000115    0.000000
    2.4 B1g                 100.161579     0.000696   -0.000889    0.000868   -0.000674    0.000997    0.000000
    3.4 B1g                  43.530609     0.013536   -0.018640    0.021631   -0.030726    0.041742    0.000000
    4.4 B1g                  21.262419     0.069350   -0.094646    0.107748   -0.143218    0.223761    0.000000
    5.4 B1g                  10.577821     0.149559   -0.215659    0.278997   -0.445330    0.730928    0.000000
    6.4 B1g                   5.343620     0.239588   -0.322469    0.314543   -0.136693   -0.869900    0.000000
                              2.704857     0.286744   -0.197529   -0.241926    0.927823   -0.850529    0.000000
                              1.353018     0.271459    0.164448   -0.602415    0.143204    1.815694    0.000000
                              0.660873     0.202426    0.410017   -0.118013   -1.060202   -0.681109    0.000000
                              0.309149     0.103307    0.327838    0.545482    0.160452   -0.817280    0.000000
                              0.133879     0.023211    0.105749    0.363829    0.658542    0.887309    1.000000
    7.4 B1g   1  3d2-         7.377237     1.000000
    8.4 B1g   1  3d2-         8.775120     1.000000
    9.4 B1g   1  5g2-         1.280919     1.000000
   10.4 B1g   1  5g4-         1.280919     1.000000
   11.4 B1g   1  5g2-         3.621387     1.000000
   12.4 B1g   1  5g4-         3.621387     1.000000
   13.4 B1g   1  5g2-        10.238310     1.000000
   14.4 B1g   1  5g4-        10.238310     1.000000
   15.4 B1g   1  5g2-         7.599484     1.000000
   16.4 B1g   1  5g4-         7.599484     1.000000
   17.4 B1g   1  7i2-         5.639501     1.000000
   18.4 B1g   1  7i6-         5.639501     1.000000
   19.4 B1g   1  7i4-         5.639501     1.000000
   20.4 B1g   1  7i2-        11.154097     1.000000
   21.4 B1g   1  7i6-        11.154097     1.000000
   22.4 B1g   1  7i4-        11.154097     1.000000
    1.5 B1u   1  2pz        158.770986    -0.000153    0.000053   -0.000170   -0.000781   -0.000304    0.003251
                                           0.000000
    2.5 B1u                  75.802876     0.001893   -0.000571    0.000604    0.007855    0.000060   -0.023609
                                           0.000000
    3.5 B1u                  44.547824     0.010461   -0.001073   -0.019987   -0.008671   -0.036931    0.154911
                                           0.000000
    4.5 B1u                  31.445269    -0.045141    0.007463    0.061153   -0.040553    0.146019   -0.385539
                                           0.000000
    5.5 B1u                  13.080125    -0.084201    0.018676    0.067317   -0.200062    0.222104    0.043028
                                           0.000000
    6.5 B1u                   7.788616     0.104973   -0.028090   -0.139211    0.528599   -1.206310    2.491372
                                           0.000000
    7.5 B1u                   4.195040     0.307714   -0.054438   -0.527041    0.528552   -0.644084   -2.763659
                                           0.000000
                              2.362276     0.368563   -0.093744   -0.176194    0.243576    2.398136   -1.614563
                                           0.000000
                              1.302584     0.286336   -0.054169    0.037129   -1.807182   -0.304441    5.182032
                                           0.000000
                              0.660704     0.095156   -0.007972    1.079322    0.629496   -1.960894   -4.105360
                                           0.000000
                              0.249042     0.005851    0.356198   -0.050149    1.137613    1.895400    1.712702
                                           0.000000
                              0.091781    -0.000034    0.412399   -0.688971   -1.067150   -0.821577   -0.168837
                                           0.000000
                              0.048931     0.000252    0.361321    0.037331    0.022190   -0.132471   -0.454998
                                           1.000000
    8.5 B1u   1  2pz          4.949443     1.000000
    9.5 B1u   1  2pz         13.016090     1.000000
   10.5 B1u   1  4f0          0.588643     1.000000
   11.5 B1u   1  4f2+         0.588643     1.000000
   12.5 B1u   1  4f0          1.645556     1.000000
   13.5 B1u   1  4f2+         1.645556     1.000000
   14.5 B1u   1  4f0          4.600166     1.000000
   15.5 B1u   1  4f2+         4.600166     1.000000
   16.5 B1u   1  4f0         12.859800     1.000000
   17.5 B1u   1  4f2+        12.859800     1.000000
   18.5 B1u   1  4f0          6.326622     1.000000
   19.5 B1u   1  4f2+         6.326622     1.000000
   20.5 B1u   1  6h2+         2.421611     1.000000
   21.5 B1u   1  6h4+         2.421611     1.000000
   22.5 B1u   1  6h0          2.421611     1.000000
   23.5 B1u   1  6h2+         7.511113     1.000000
   24.5 B1u   1  6h4+         7.511113     1.000000
   25.5 B1u   1  6h0          7.511113     1.000000
   26.5 B1u   1  6h2+         9.972769     1.000000
   27.5 B1u   1  6h4+         9.972769     1.000000
   28.5 B1u   1  6h0          9.972769     1.000000
    1.6 B2g   1  3d1+       270.014061    -0.000016    0.000013    0.000007   -0.000088    0.000115    0.000000
    2.6 B2g                 100.161579     0.000696   -0.000889    0.000868   -0.000674    0.000997    0.000000
    3.6 B2g                  43.530609     0.013536   -0.018640    0.021631   -0.030726    0.041742    0.000000
    4.6 B2g                  21.262419     0.069350   -0.094646    0.107748   -0.143218    0.223761    0.000000
    5.6 B2g                  10.577821     0.149559   -0.215659    0.278997   -0.445330    0.730928    0.000000
    6.6 B2g                   5.343620     0.239588   -0.322469    0.314543   -0.136693   -0.869900    0.000000
                              2.704857     0.286744   -0.197529   -0.241926    0.927823   -0.850529    0.000000
                              1.353018     0.271459    0.164448   -0.602415    0.143204    1.815694    0.000000
                              0.660873     0.202426    0.410017   -0.118013   -1.060202   -0.681109    0.000000
                              0.309149     0.103307    0.327838    0.545482    0.160452   -0.817280    0.000000
                              0.133879     0.023211    0.105749    0.363829    0.658542    0.887309    1.000000
    7.6 B2g   1  3d1+         7.377237     1.000000
    8.6 B2g   1  3d1+         8.775120     1.000000
    9.6 B2g   1  5g1+         1.280919     1.000000
   10.6 B2g   1  5g3+         1.280919     1.000000
   11.6 B2g   1  5g1+         3.621387     1.000000
   12.6 B2g   1  5g3+         3.621387     1.000000
   13.6 B2g   1  5g1+        10.238310     1.000000
   14.6 B2g   1  5g3+        10.238310     1.000000
   15.6 B2g   1  5g1+         7.599484     1.000000
   16.6 B2g   1  5g3+         7.599484     1.000000
   17.6 B2g   1  7i5+         5.639501     1.000000
   18.6 B2g   1  7i3+         5.639501     1.000000
   19.6 B2g   1  7i1+         5.639501     1.000000
   20.6 B2g   1  7i5+        11.154097     1.000000
   21.6 B2g   1  7i3+        11.154097     1.000000
   22.6 B2g   1  7i1+        11.154097     1.000000
    1.7 B3g   1  3d1-       270.014061    -0.000016    0.000013    0.000007   -0.000088    0.000115    0.000000
    2.7 B3g                 100.161579     0.000696   -0.000889    0.000868   -0.000674    0.000997    0.000000
    3.7 B3g                  43.530609     0.013536   -0.018640    0.021631   -0.030726    0.041742    0.000000
    4.7 B3g                  21.262419     0.069350   -0.094646    0.107748   -0.143218    0.223761    0.000000
    5.7 B3g                  10.577821     0.149559   -0.215659    0.278997   -0.445330    0.730928    0.000000
    6.7 B3g                   5.343620     0.239588   -0.322469    0.314543   -0.136693   -0.869900    0.000000
                              2.704857     0.286744   -0.197529   -0.241926    0.927823   -0.850529    0.000000
                              1.353018     0.271459    0.164448   -0.602415    0.143204    1.815694    0.000000
                              0.660873     0.202426    0.410017   -0.118013   -1.060202   -0.681109    0.000000
                              0.309149     0.103307    0.327838    0.545482    0.160452   -0.817280    0.000000
                              0.133879     0.023211    0.105749    0.363829    0.658542    0.887309    1.000000
    7.7 B3g   1  3d1-         7.377237     1.000000
    8.7 B3g   1  3d1-         8.775120     1.000000
    9.7 B3g   1  5g1-         1.280919     1.000000
   10.7 B3g   1  5g3-         1.280919     1.000000
   11.7 B3g   1  5g1-         3.621387     1.000000
   12.7 B3g   1  5g3-         3.621387     1.000000
   13.7 B3g   1  5g1-        10.238310     1.000000
   14.7 B3g   1  5g3-        10.238310     1.000000
   15.7 B3g   1  5g1-         7.599484     1.000000
   16.7 B3g   1  5g3-         7.599484     1.000000
   17.7 B3g   1  7i5-         5.639501     1.000000
   18.7 B3g   1  7i3-         5.639501     1.000000
   19.7 B3g   1  7i1-         5.639501     1.000000
   20.7 B3g   1  7i5-        11.154097     1.000000
   21.7 B3g   1  7i3-        11.154097     1.000000
   22.7 B3g   1  7i1-        11.154097     1.000000
    1.8 Au    1  4f2-         0.588643     1.000000
    2.8 Au    1  4f2-         1.645556     1.000000
    3.8 Au    1  4f2-         4.600166     1.000000
    4.8 Au    1  4f2-        12.859800     1.000000
    5.8 Au    1  4f2-         6.326622     1.000000
    6.8 Au    1  6h4-         2.421611     1.000000
    7.8 Au    1  6h2-         2.421611     1.000000
    8.8 Au    1  6h4-         7.511113     1.000000
    9.8 Au    1  6h2-         7.511113     1.000000
   10.8 Au    1  6h4-         9.972769     1.000000
   11.8 Au    1  6h2-         9.972769     1.000000

 NUCLEAR CHARGE:                   20
 NUMBER OF PRIMITIVE AOS:         367
 NUMBER OF SYMMETRY AOS:          255
 NUMBER OF CONTRACTIONS:          206   (  45Ag  +  28B3u +  28B2u +  22B1g +  28B1u +  22B2g +  22B3g +  11Au  )
 NUMBER OF CORE ORBITALS:           4   (   1Ag  +   1B3u +   1B2u +   0B1g +   1B1u +   0B2g +   0B3g +   0Au  )
 NUMBER OF VALENCE ORBITALS:        6   (   3Ag  +   0B3u +   0B2u +   1B1g +   0B1u +   1B2g +   1B3g +   0Au  )


 NUCLEAR REPULSION ENERGY    0.00000000

 EXTRA SYMMETRY OF AOS IN SYMMETRY 1:   1 1 1 1 1 1 1 1 1 2   3 2 3 2 3 2 3 2 3 2   3 2 3 2 3 4 5 6 4 5   6 4 5 6 4 5 6 7 8 9
                                       10 7 8 910
 EXTRA SYMMETRY OF AOS IN SYMMETRY 2:   1 1 1 1 1 1 1 1 1 2   3 2 3 2 3 2 3 2 3 4   5 6 4 5 6 4 5 6
 EXTRA SYMMETRY OF AOS IN SYMMETRY 3:   1 1 1 1 1 1 1 1 1 2   3 2 3 2 3 2 3 2 3 4   5 6 4 5 6 4 5 6
 EXTRA SYMMETRY OF AOS IN SYMMETRY 4:   1 1 1 1 1 1 1 1 2 3   2 3 2 3 2 3 4 5 6 4   5 6
 EXTRA SYMMETRY OF AOS IN SYMMETRY 5:   1 1 1 1 1 1 1 1 1 2   3 2 3 2 3 2 3 2 3 4   5 6 4 5 6 4 5 6
 EXTRA SYMMETRY OF AOS IN SYMMETRY 6:   1 1 1 1 1 1 1 1 2 3   2 3 2 3 2 3 4 5 6 4   5 6
 EXTRA SYMMETRY OF AOS IN SYMMETRY 7:   1 1 1 1 1 1 1 1 2 3   2 3 2 3 2 3 4 5 6 4   5 6
 EXTRA SYMMETRY OF AOS IN SYMMETRY 8:   1 1 1 1 1 2 3 2 3 2   3

 Eigenvalues of metric

         1 0.346E-05 0.634E-03 0.634E-03 0.716E-02 0.716E-02 0.126E-01 0.203E-01 0.203E-01
         2 0.568E-03 0.108E-01 0.108E-01 0.272E-01 0.498E-01 0.498E-01 0.498E-01 0.120E+00
         3 0.568E-03 0.108E-01 0.108E-01 0.272E-01 0.498E-01 0.498E-01 0.498E-01 0.120E+00
         4 0.634E-03 0.716E-02 0.203E-01 0.225E-01 0.225E-01 0.344E+00 0.344E+00 0.348E+00
         5 0.568E-03 0.108E-01 0.108E-01 0.272E-01 0.498E-01 0.498E-01 0.498E-01 0.120E+00
         6 0.634E-03 0.716E-02 0.203E-01 0.225E-01 0.225E-01 0.344E+00 0.344E+00 0.348E+00
         7 0.634E-03 0.716E-02 0.203E-01 0.225E-01 0.225E-01 0.344E+00 0.344E+00 0.348E+00
         8 0.108E-01 0.498E-01 0.498E-01 0.234E+00 0.547E+00 0.852E+00 0.852E+00 0.139E+01


 Contracted 2-electron integrals neglected if value below      1.0D-12
 AO integral compression algorithm  1   Integral accuracy      1.0D-12

     185.598 MB (compressed) written to integral file ( 52.2%)


 NUMBER OF SORTED TWO-ELECTRON INTEGRALS:   29098917.     BUFFER LENGTH:  32768
 NUMBER OF SEGMENTS:   2  SEGMENT LENGTH:   15999969      RECORD LENGTH: 524288

 Memory used in sort:      16.56 MW

 SORT1 READ    44478058. AND WROTE    18923596. INTEGRALS IN     55 RECORDS. CPU TIME:     1.58 SEC, REAL TIME:     2.10 SEC
 SORT2 READ    18923596. AND WROTE    29098917. INTEGRALS IN    708 RECORDS. CPU TIME:     0.81 SEC, REAL TIME:     1.49 SEC

 FILE SIZES:   FILE 1:   205.7 MBYTE,  FILE 4:   230.7 MBYTE,   TOTAL:    436.4 MBYTE

 OPERATOR DM      FOR CENTER  0  COORDINATES:    0.000000    0.000000    0.000000
 OPERATOR EKIN    FOR CENTER  0  COORDINATES:    0.000000    0.000000    0.000000
 OPERATOR POT     FOR CENTER  0  COORDINATES:    0.000000    0.000000    0.000000


 **********************************************************************************************************************************
 DATASETS  * FILE   NREC   LENGTH (MB)   RECORD NAMES
              1      20      138.96       500      610      700      900      950      970     1000      129      960     1100   
                                          VAR    BASINP    GEOM    SYMINP    ZMAT    AOBASIS   BASIS     P2S    ABASIS      S 
                                         1400     1410     1420     1200     1210     1080     1600     1650     1300     1700   
                                         EKIN       V       ECP      H0       H01     AOSYM     SMH    MOLCAS    ERIS     OPER   

 PROGRAMS   *        TOTAL       INT
 CPU TIMES  *        12.03     11.90
 REAL TIME  *        20.12 SEC
 DISK USED  *       436.75 MB      
 **********************************************************************************************************************************


 PROGRAM * RHF-SCF (CLOSED SHELL)       Authors: W. Meyer, H.-J. Werner


 NUMBER OF ELECTRONS:      10+   10-    SPACE SYMMETRY=1    SPIN SYMMETRY: Singlet 
 CONVERGENCE THRESHOLDS:    1.00E-05 (Density)    1.00E-07 (Energy)
 MAX. NUMBER OF ITERATIONS:       60
 INTERPOLATION TYPE:            DIIS
 INTERPOLATION STEPS:              2 (START)      1 (STEP)
 LEVEL SHIFTS:                  0.00 (CLOSED)  0.00 (OPEN) 

 Number of closed-shell orbitals:   10 (   4   1   1   1   1   1   1   0 )



   Atom=ZN basis=cc-pVTZ-PP        lmin=0  lmax=2

 Orbital guess generated from atomic densities. Full valence occupancy:    4   1   1   1   1   1   1   0


 Molecular orbital dump at record        2100.2

 ITERATION    DDIFF          GRAD             ENERGY        2-EL.EN.            DIPOLE MOMENTS         DIIS   ORB.
    1      0.000D+00      0.000D+00      -225.27240555    362.144157    0.00000    0.00000    0.00000    0    start
    2      0.000D+00      0.676D-02      -225.27202565    365.330078    0.00000    0.00000    0.00000    1    diag
    3      0.172D-02      0.677D-02      -225.27506085    363.589788    0.00000    0.00000    0.00000    2    diag
    4      0.644D-03      0.247D-03      -225.27506502    363.650839    0.00000    0.00000    0.00000    3    diag
    5      0.358D-04      0.758D-05      -225.27506503    363.648360    0.00000    0.00000    0.00000    4    diag
    6      0.909D-05      0.879D-06      -225.27506504    363.648147    0.00000    0.00000    0.00000    0    orth

 Final occupancy:   4   1   1   1   1   1   1   0

 !RHF STATE 1.1 Energy               -225.275065035648
 Nuclear energy                         0.00000000
 One-electron energy                 -407.09913841
 Two-electron energy                  181.82407338
 Virial quotient                       -1.50081674
 !RHF STATE 1.1 Dipole moment           0.00000000     0.00000000     0.00000000
 Dipole moment /Debye                   0.00000000     0.00000000     0.00000000
 

 !RHF expec          <1.1|EKIN|1.1>   150.101646984234
 
 !RHF expec           <1.1|POT|1.1>   -28.852519548392

 ELECTRON ORBITALS
 =================


   Orb  Occ    Energy  Couls-En    Coefficients

                                   1 1s      1 1s      1 1s      1 1s      1 1s      1 1s      1 1s      1 1s      1 1s      1 3d0  
                                   1 3d2+    1 3d0     1 3d2+    1 3d0     1 3d2+    1 3d0     1 3d2+    1 3d0     1 3d2+    1 3d0  
                                   1 3d2+    1 3d0     1 3d2+    1 3d0     1 3d2+    1 5g0     1 5g4+    1 5g2+    1 5g0     1 5g4+ 
                                   1 5g2+    1 5g0     1 5g4+    1 5g2+    1 5g0     1 5g4+    1 5g2+    1 7i6+    1 7i4+    1 7i2+ 
                                   1 7i0     1 7i6+    1 7i4+    1 7i2+    1 7i0  

   1.1   2    -5.8440  -31.7532  0.999898 -0.000007  0.000034  0.000016 -0.000015 -0.000007  0.000024  0.001977 -0.001896 -0.000000
                                 0.000000 -0.000000  0.000000 -0.000000  0.000000 -0.000000  0.000000 -0.000000  0.000000  0.000000
                                -0.000000 -0.000000  0.000000  0.000000 -0.000000  0.000000  0.000000 -0.000000 -0.000000 -0.000000
                                 0.000000 -0.000000 -0.000000  0.000000  0.000000  0.000000 -0.000000  0.000000 -0.000000 -0.000000
                                -0.000000 -0.000000  0.000000  0.000000 -0.000000

   2.1   2    -0.7633  -20.3819 -0.000000 -0.000000  0.000000  0.000000 -0.000000 -0.000000  0.000000  0.000000 -0.000000  0.954924
                                 0.296850  0.000007  0.000002  0.000005  0.000002  0.000004  0.000001  0.000003  0.000001 -0.000008
                                -0.000002  0.000010  0.000003 -0.000007 -0.000002 -0.000000  0.000000 -0.000000 -0.000000  0.000000
                                 0.000000 -0.000000  0.000000  0.000000  0.000000 -0.000000 -0.000000  0.000000 -0.000000  0.000000
                                 0.000000  0.000000  0.000000 -0.000000  0.000000

   3.1   2    -0.7633  -20.3819  0.000000  0.000000 -0.000000 -0.000000  0.000000  0.000000 -0.000000 -0.000000  0.000000 -0.296850
                                 0.954924 -0.000002  0.000007 -0.000002  0.000005 -0.000001  0.000004 -0.000001  0.000003  0.000002
                                -0.000008 -0.000003  0.000010  0.000002 -0.000007  0.000000  0.000000 -0.000000  0.000000  0.000000
                                 0.000000  0.000000 -0.000000  0.000000 -0.000000 -0.000000 -0.000000  0.000000 -0.000000  0.000000
                                -0.000000  0.000000  0.000000 -0.000000 -0.000000

   4.1   2    -0.2984   -8.3520 -0.000025  1.000017  0.000011  0.000004 -0.000005 -0.000002 -0.000016  0.000514 -0.000492 -0.000000
                                -0.000000 -0.000000  0.000000 -0.000000  0.000000 -0.000000  0.000000 -0.000000  0.000000  0.000000
                                -0.000000 -0.000000 -0.000000  0.000000  0.000000  0.000000 -0.000000 -0.000000 -0.000000  0.000000
                                -0.000000 -0.000000  0.000000 -0.000000  0.000000 -0.000000  0.000000  0.000000 -0.000000 -0.000000
                                 0.000000 -0.000000  0.000000  0.000000  0.000000

                                   1 2px     1 2px     1 2px     1 2px     1 2px     1 2px     1 2px     1 2px     1 2px     1 4f1+ 
                                   1 4f3+    1 4f1+    1 4f3+    1 4f1+    1 4f3+    1 4f1+    1 4f3+    1 4f1+    1 4f3+    1 6h1+ 
                                   1 6h3+    1 6h5+    1 6h1+    1 6h3+    1 6h5+    1 6h1+    1 6h3+    1 6h5+ 

   1.2   2    -3.9222  -27.7534  0.999785  0.014561  0.010921 -0.000436 -0.000906  0.000022 -0.005747  0.000834 -0.000196 -0.000000
                                 0.000000  0.000000 -0.000000 -0.000000  0.000000 -0.000000  0.000000  0.000000 -0.000000  0.000000
                                -0.000000 -0.000000  0.000000  0.000000  0.000000 -0.000000 -0.000000 -0.000000

                                   1 2py     1 2py     1 2py     1 2py     1 2py     1 2py     1 2py     1 2py     1 2py     1 4f1- 
                                   1 4f3-    1 4f1-    1 4f3-    1 4f1-    1 4f3-    1 4f1-    1 4f3-    1 4f1-    1 4f3-    1 6h1- 
                                   1 6h3-    1 6h5-    1 6h1-    1 6h3-    1 6h5-    1 6h1-    1 6h3-    1 6h5- 

   1.3   2    -3.9222  -27.7534  0.999785  0.014561  0.010921 -0.000436 -0.000906  0.000022 -0.005747  0.000834 -0.000196 -0.000000
                                -0.000000  0.000000  0.000000 -0.000000 -0.000000 -0.000000 -0.000000  0.000000  0.000000  0.000000
                                 0.000000 -0.000000  0.000000 -0.000000  0.000000 -0.000000  0.000000 -0.000000

                                   1 3d2-    1 3d2-    1 3d2-    1 3d2-    1 3d2-    1 3d2-    1 3d2-    1 3d2-    1 5g2-    1 5g4- 
                                   1 5g2-    1 5g4-    1 5g2-    1 5g4-    1 5g2-    1 5g4-    1 7i2-    1 7i6-    1 7i4-    1 7i2- 
                                   1 7i6-    1 7i4- 

   1.4   2    -0.7633  -20.3819  1.000000  0.000007  0.000006  0.000004  0.000003 -0.000008  0.000011 -0.000008 -0.000000  0.000000
                                 0.000000 -0.000000  0.000000 -0.000000 -0.000000  0.000000  0.000000  0.000000 -0.000000 -0.000000
                                -0.000000  0.000000

                                   1 2pz     1 2pz     1 2pz     1 2pz     1 2pz     1 2pz     1 2pz     1 2pz     1 2pz     1 4f0  
                                   1 4f2+    1 4f0     1 4f2+    1 4f0     1 4f2+    1 4f0     1 4f2+    1 4f0     1 4f2+    1 6h2+ 
                                   1 6h4+    1 6h0     1 6h2+    1 6h4+    1 6h0     1 6h2+    1 6h4+    1 6h0  

   1.5   2    -3.9222  -27.7534  0.999785  0.014561  0.010921 -0.000436 -0.000906  0.000022 -0.005747  0.000834 -0.000196  0.000000
                                 0.000000 -0.000000 -0.000000  0.000000  0.000000 -0.000000  0.000000  0.000000 -0.000000  0.000000
                                 0.000000  0.000000 -0.000000 -0.000000 -0.000000  0.000000  0.000000  0.000000

                                   1 3d1+    1 3d1+    1 3d1+    1 3d1+    1 3d1+    1 3d1+    1 3d1+    1 3d1+    1 5g1+    1 5g3+ 
                                   1 5g1+    1 5g3+    1 5g1+    1 5g3+    1 5g1+    1 5g3+    1 7i5+    1 7i3+    1 7i1+    1 7i5+ 
                                   1 7i3+    1 7i1+ 

   1.6   2    -0.7633  -20.3819  1.000000  0.000007  0.000006  0.000004  0.000003 -0.000008  0.000011 -0.000008 -0.000000  0.000000
                                 0.000000 -0.000000 -0.000000 -0.000000  0.000000  0.000000  0.000000 -0.000000  0.000000  0.000000
                                -0.000000  0.000000

                                   1 3d1-    1 3d1-    1 3d1-    1 3d1-    1 3d1-    1 3d1-    1 3d1-    1 3d1-    1 5g1-    1 5g3- 
                                   1 5g1-    1 5g3-    1 5g1-    1 5g3-    1 5g1-    1 5g3-    1 7i5-    1 7i3-    1 7i1-    1 7i5- 
                                   1 7i3-    1 7i1- 

   1.7   2    -0.7633  -20.3819  1.000000  0.000007  0.000006  0.000004  0.000003 -0.000008  0.000011 -0.000008 -0.000000 -0.000000
                                 0.000000  0.000000 -0.000000  0.000000  0.000000 -0.000000 -0.000000  0.000000  0.000000  0.000000
                                 0.000000  0.000000

 HOMO      4.1    -0.298374 =      -8.1192eV
 LUMO      2.2     0.054781 =       1.4907eV
 LUMO-HOMO         0.353155 =       9.6098eV


 **********************************************************************************************************************************
 DATASETS  * FILE   NREC   LENGTH (MB)   RECORD NAMES
              1      20      138.96       500      610      700      900      950      970     1000      129      960     1100   
                                          VAR    BASINP    GEOM    SYMINP    ZMAT    AOBASIS   BASIS     P2S    ABASIS      S 
                                         1400     1410     1420     1200     1210     1080     1600     1650     1300     1700   
                                         EKIN       V       ECP      H0       H01     AOSYM     SMH    MOLCAS    ERIS     OPER   

              2       4        2.91       700     1000      520     2100   
                                         GEOM     BASIS   MCVARS     RHF  

 PROGRAMS   *        TOTAL       RHF       INT
 CPU TIMES  *        12.66      0.63     11.90
 REAL TIME  *        20.98 SEC
 DISK USED  *       436.75 MB      
 **********************************************************************************************************************************
 SETTING SCF(I)         =      -225.27506504  AU                              
 SETTING _CC_NORM_MAX   =         2.00000000                                  


 PROGRAM * CCSD (Unrestricted open-shell coupled cluster)     Authors: C. Hampel, H.-J. Werner, 1991, M. Deegan, P.J. Knowles, 1992


 Convergence thresholds:  THRVAR = 1.00D-08  THRDEN = 1.00D-06

 CCSD(T)     terms to be evaluated (factor= 1.000)


 Number of closed-shell orbitals:  10 (   4   1   1   1   1   1   1   0 )
 Number of external orbitals:     196 (  41  27  27  21  27  21  21  11 )

 Memory could be reduced to 18.37 Mwords without degradation in triples

 Number of N-1 electron functions:              20
 Number of N-2 electron functions:             190
 Number of singly external CSFs:               616
 Number of doubly external CSFs:            704696
 Total number of CSFs:                      705312

 Molecular orbitals read from record     2100.2  Type=RHF/CANONICAL (state 1.1)

 Integral transformation finished. Total CPU:   0.57 sec, npass=  1  Memory used:   3.78 MW

 Starting RMP2 calculation

 ITER.      SQ.NORM     CORR.ENERGY   TOTAL ENERGY   ENERGY CHANGE        DEN1      VAR(S)    VAR(P)  DIIS     TIME
   1      1.11918288    -1.10025760  -226.37532264    -1.10025760    -0.00112542  0.49D-11  0.64D-03  1  1     0.62
   2      1.12076270    -1.10143625  -226.37650128    -0.00117864    -0.00001269  0.28D-12  0.12D-04  2  2     0.65
   3      1.12099831    -1.10153521  -226.37660024    -0.00009896    -0.00000004  0.54D-14  0.38D-07  3  3     0.68
   4      1.12100594    -1.10153668  -226.37660171    -0.00000147    -0.00000000  0.14D-15  0.19D-09  4  4     0.73
   5      1.12100601    -1.10153667  -226.37660170     0.00000001    -0.00000000  0.33D-17  0.53D-12  5  5     0.78

 Norm of t1 vector:      0.00001164      S-energy:    -0.00000000      T1 diagnostic:  0.00000184
 Norm of t2 vector:      0.34785918      P-energy:    -1.10153667
                                         Alpha-Beta:  -0.77347818
                                         Alpha-Alpha: -0.16402924
                                         Beta-Beta:   -0.16402924

 Spin contamination <S**2-Sz**2-Sz>     0.00000000
  Reference energy                   -225.275065035648
  RHF-RMP2 correlation energy          -1.101536666302
 !RHF-RMP2 energy                    -226.376601701950

 Starting UCCSD calculation

 ITER.      SQ.NORM     CORR.ENERGY   TOTAL ENERGY   ENERGY CHANGE        DEN1      VAR(S)    VAR(P)  DIIS     TIME
   1      1.10089336    -0.98015338  -226.25521841    -0.98015338    -0.04842998  0.65D-02  0.66D-02  0  0     2.24
   2      1.11858006    -1.02359688  -226.29866192    -0.04344351    -0.00677855  0.94D-03  0.15D-02  1  1     3.61
   3      1.12091778    -1.01529419  -226.29035923     0.00830269    -0.00057080  0.28D-03  0.20D-03  2  2     5.00
   4      1.12501156    -1.01657044  -226.29163547    -0.00127624    -0.00013856  0.72D-04  0.55D-04  3  3     6.40
   5      1.12933830    -1.01791732  -226.29298235    -0.00134688    -0.00000743  0.50D-05  0.20D-05  4  4     7.76
   6      1.13018345    -1.01808489  -226.29314993    -0.00016757    -0.00000047  0.27D-06  0.10D-06  5  5     9.14
   7      1.13032091    -1.01809979  -226.29316483    -0.00001490    -0.00000005  0.40D-07  0.11D-07  6  6    10.53
   8      1.13034701    -1.01810247  -226.29316750    -0.00000267    -0.00000001  0.46D-08  0.26D-08  6  1    11.90
   9      1.13034909    -1.01810325  -226.29316828    -0.00000078    -0.00000000  0.23D-09  0.28D-09  6  3    13.29

 Norm of t1 vector:      0.11134224      S-energy:     0.00000071      T1 diagnostic:  0.01760475
                                                                       D1 diagnostic:  0.06291369
 Norm of t2 vector:      0.34344141      P-energy:    -1.01810396
                                         Alpha-Beta:  -0.74173276
                                         Alpha-Alpha: -0.13818560
                                         Beta-Beta:   -0.13818560

 Singles amplitudes (print threshold =  0.500E-01):

         I         SYM. A    A   T(IA) [Alpha-Alpha]

         4         1         1     -0.05011271
 
         I         SYM. A    A   T(IA) [Beta-Beta]

         4         1         1     -0.05011271

 Doubles amplitudes (print threshold =  0.500E-01):

         I         J         SYM. A    SYM. B    A         B      T(IJ, AB) [Alpha-Beta]

         4         4         2         2         1         1     -0.06447239
         4         4         3         3         1         1     -0.06447239
         4         4         5         5         1         1     -0.06447239

 Spin contamination <S**2-Sz**2-Sz>     0.00000000

 Memory could be reduced to 19.29 Mwords without degradation in triples
 

  Correlated core orbitals:             1.1       1.2       1.3       1.5
  Orbital energies:                    -5.8440   -3.9222   -3.9222   -3.9222
 
  UCCSD core-core energy               -0.121485223773
  UCCSD core-valence energy            -0.373900906786
  UCCSD valence correlation energy     -0.522717117914
 

 RESULTS
 =======

  Reference energy                   -225.275065035648
  UCCSD singles energy                  0.000000709028
  UCCSD pair energy                    -1.018103957501
  UCCSD correlation energy             -1.018103248474
  Triples (T) contribution             -0.029484525771
  Total correlation energy             -1.047587774245
 
  RHF-UCCSD energy                   -226.293168284121
  RHF-UCCSD[T] energy                -226.325239127531
  RHF-UCCSD-T energy                 -226.322204874734
 !RHF-UCCSD(T) energy                -226.322652809892

 Program statistics:

 Available memory in ccsd:               511999000
 Min. memory needed in ccsd:               2065943
 Max. memory used in ccsd:                 2932879
 Max. memory used in cckext:               2308805 ( 9 integral passes)
 Max. memory used in cckint:               3782182 ( 1 integral passes)



 **********************************************************************************************************************************
 DATASETS  * FILE   NREC   LENGTH (MB)   RECORD NAMES
              1      20      138.96       500      610      700      900      950      970     1000      129      960     1100   
                                          VAR    BASINP    GEOM    SYMINP    ZMAT    AOBASIS   BASIS     P2S    ABASIS      S 
                                         1400     1410     1420     1200     1210     1080     1600     1650     1300     1700   
                                         EKIN       V       ECP      H0       H01     AOSYM     SMH    MOLCAS    ERIS     OPER   

              2       4        2.91       700     1000      520     2100   
                                         GEOM     BASIS   MCVARS     RHF  

 PROGRAMS   *        TOTAL  UCCSD(T)       RHF       INT
 CPU TIMES  *        76.66     63.99      0.63     11.90
 REAL TIME  *        91.11 SEC
 DISK USED  *       488.64 MB      
 **********************************************************************************************************************************
 SETTING POSTHF(I)      =      -226.32265281  AU                              
                                                                                                                                                                                                                                                                

         SCF            POSTHF        EKIN          POT
    -225.2750650   -226.3226528   150.1016470   -28.85251955
                                                  

 UCCSD(T)/USERDEF energy=   -226.322652809892

        UCCSD(T)        RHF-SCF 
   -226.32265281   -225.27506504
 **********************************************************************************************************************************
 Variable memory released
