----- GAMESS execution script 'rungms' -----
This job is running on host gwang18-Lenovo-Y50-70
under operating system Linux at Mon Jun 25 12:15:31 EDT 2018
Available scratch disk space (Kbyte units) at beginning of the job is
Filesystem     1K-blocks     Used Available Use% Mounted on
/dev/sda7      411134224 55938552 334288204  15% /
GAMESS temporary binary files will be written to /home/gwang18/research/qwalk/ecpcorrelation/c/pbe
GAMESS supplementary output files will be written to /home/gwang18/research/qwalk/ecpcorrelation/c/pbe
Copying input file c.inp to your run's scratch directory...
cp c.inp /home/gwang18/research/qwalk/ecpcorrelation/c/pbe/c.F05
unset echo
/home/gwang18/gamess/ddikick.x /home/gwang18/gamess/gamess.00.x c -ddi 1 1 gwang18-Lenovo-Y50-70 -scr /home/gwang18/research/qwalk/ecpcorrelation/c/pbe

 Distributed Data Interface kickoff program.
 Initiating 1 compute processes on 1 nodes to run the following command:
 /home/gwang18/gamess/gamess.00.x c 

          ******************************************************
          *         GAMESS VERSION =  5 DEC 2014 (R1)          *
          *             FROM IOWA STATE UNIVERSITY             *
          * M.W.SCHMIDT, K.K.BALDRIDGE, J.A.BOATZ, S.T.ELBERT, *
          *   M.S.GORDON, J.H.JENSEN, S.KOSEKI, N.MATSUNAGA,   *
          *          K.A.NGUYEN, S.J.SU, T.L.WINDUS,           *
          *       TOGETHER WITH M.DUPUIS, J.A.MONTGOMERY       *
          *         J.COMPUT.CHEM.  14, 1347-1363(1993)        *
          **************** 64 BIT LINUX VERSION ****************

  SINCE 1993, STUDENTS AND POSTDOCS WORKING AT IOWA STATE UNIVERSITY
  AND ALSO IN THEIR VARIOUS JOBS AFTER LEAVING ISU HAVE MADE IMPORTANT
  CONTRIBUTIONS TO THE CODE:
     IVANA ADAMOVIC, CHRISTINE AIKENS, YURI ALEXEEV, POOJA ARORA,
     ANDREY ASADCHEV, ROB BELL, PRADIPTA BANDYOPADHYAY, JONATHAN BENTZ,
     BRETT BODE, KURT BRORSEN, CALEB CARLIN, GALINA CHABAN, WEI CHEN,
     CHEOL HO CHOI, PAUL DAY, ALBERT DEFUSCO, NUWAN DESILVA, TIM DUDLEY,
     DMITRI FEDOROV, GRAHAM FLETCHER, MARK FREITAG, KURT GLAESEMANN,
     DAN KEMP, GRANT MERRILL, NORIYUKI MINEZAWA, JONATHAN MULLIN,
     TAKESHI NAGATA, SEAN NEDD, HEATHER NETZLOFF, BOSILJKA NJEGIC, RYAN OLSON,
     MIKE PAK, SPENCER PRUITT, LUKE ROSKOP, JIM SHOEMAKER, LYUDMILA SLIPCHENKO,
     TONY SMITH, SAROM SOK, JIE SONG, TETSUYA TAKETSUGU, SIMON WEBB,
     PENG XU, SOOHAENG YOO, FEDERICO ZAHARIEV

  ADDITIONAL CODE HAS BEEN PROVIDED BY COLLABORATORS IN OTHER GROUPS:
     IOWA STATE UNIVERSITY:
          JOE IVANIC, AARON WEST, LAIMUTIS BYTAUTAS, KLAUS RUEDENBERG
     UNIVERSITY OF TOKYO: KIMIHIKO HIRAO, TAKAHITO NAKAJIMA,
          TAKAO TSUNEDA, MUNEAKI KAMIYA, SUSUMU YANAGISAWA,
          KIYOSHI YAGI, MAHITO CHIBA, SEIKEN TOKURA, NAOAKI KAWAKAMI
     UNIVERSITY OF AARHUS: FRANK JENSEN
     UNIVERSITY OF IOWA: VISVALDAS KAIRYS, HUI LI
     NATIONAL INST. OF STANDARDS AND TECHNOLOGY: WALT STEVENS, DAVID GARMER
     UNIVERSITY OF PISA: BENEDETTA MENNUCCI, JACOPO TOMASI
     UNIVERSITY OF MEMPHIS: HENRY KURTZ, PRAKASHAN KORAMBATH
     UNIVERSITY OF ALBERTA: TOBY ZENG, MARIUSZ KLOBUKOWSKI
     UNIVERSITY OF NEW ENGLAND: MARK SPACKMAN
     MIE UNIVERSITY: HIROAKI UMEDA
     NAT. INST. OF ADVANCED INDUSTRIAL SCIENCE AND TECHNOLOGY: KAZUO KITAURA
     MICHIGAN STATE UNIVERSITY:
          KAROL KOWALSKI, MARTA WLOCH, JEFFREY GOUR, JESSE LUTZ,
          WEI LI, PIOTR PIECUCH
     UNIVERSITY OF SILESIA: MONIKA MUSIAL, STANISLAW KUCHARSKI
     FACULTES UNIVERSITAIRES NOTRE-DAME DE LA PAIX:
          OLIVIER QUINET, BENOIT CHAMPAGNE
     UNIVERSITY OF CALIFORNIA - SANTA BARBARA: BERNARD KIRTMAN
     INSTITUTE FOR MOLECULAR SCIENCE:
          KAZUYA ISHIMURA, MICHIO KATOUDA, AND SHIGERU NAGASE
     UNIVERSITY OF NOTRE DAME: ANNA POMOGAEVA, DAN CHIPMAN
     KYUSHU UNIVERSITY:
          HARUYUKI NAKANO,
          FENG LONG GU, JACEK KORCHOWIEC, MARCIN MAKOWSKI, AND YURIKO AOKI,
          HIROTOSHI MORI AND EISAKU MIYOSHI
     PENNSYLVANIA STATE UNIVERSITY:
          TZVETELIN IORDANOV, CHET SWALINA, JONATHAN SKONE,
          SHARON HAMMES-SCHIFFER
     WASEDA UNIVERSITY:
          MASATO KOBAYASHI, TOMOKO AKAMA, TSUGUKI TOUMA,
          TAKESHI YOSHIKAWA, YASUHIRO IKABATA, HIROMI NAKAI
     NANJING UNIVERSITY: SHUHUA LI
     UNIVERSITY OF NEBRASKA:
          PEIFENG SU, DEJUN SI, NANDUN THELLAMUREGE, YALI WANG, HUI LI
     UNIVERSITY OF ZURICH: ROBERTO PEVERATI, KIM BALDRIDGE
     N. COPERNICUS UNIVERSITY AND JACKSON STATE UNIVERSITY:
          MARIA BARYSZ
     UNIVERSITY OF COPENHAGEN: CASPER STEINMANN
     TOKYO INSTITUTE OF TECHNOLOGY: HIROYA NAKATA
     NAGOYA UNIVERSITY: YOSHIO NISHIMOTO, STEPHAN IRLE

 EXECUTION OF GAMESS BEGUN Mon Jun 25 12:15:31 2018

            ECHO OF THE FIRST FEW INPUT CARDS -
 INPUT CARD> $CONTRL                                                                        
 INPUT CARD>     SCFTYP=ROHF                                                                
 INPUT CARD>     MULT=3                                                                     
 INPUT CARD>     DFTTYP=PBE                                                                 
 INPUT CARD>     ICHARG=0                                                                   
 INPUT CARD>     RUNTYP=ENERGY                                                              
 INPUT CARD>     MAXIT=150                                                                  
 INPUT CARD>     PP=READ                                                                    
 INPUT CARD>     ISPHER=1                                                                   
 INPUT CARD> $END                                                                           
 INPUT CARD>                                                                                
 INPUT CARD> $SCF DAMP=.T. SOSCF=.F. SHIFT=.T. RSTRCT=.T. DIIS=.T.  $end                    
 INPUT CARD>                                                                                
 INPUT CARD> $DFT                                                                           
 INPUT CARD>     METHOD=GRID                                                                
 INPUT CARD> $END                                                                           
 INPUT CARD>                                                                                
 INPUT CARD> $SYSTEM                                                                        
 INPUT CARD>     KDIAG=3                                                                    
 INPUT CARD>     mwords=125                                                                 
 INPUT CARD> $END                                                                           
 INPUT CARD>                                                                                
 INPUT CARD> $GUESS                                                                         
 INPUT CARD>    GUESS=HUCKEL                                                                
 INPUT CARD> $END                                                                           
 INPUT CARD>                                                                                
 INPUT CARD> $DATA                                                                          
 INPUT CARD>                                                                                
 INPUT CARD>C1                                                                              
 INPUT CARD>C 6 0. 0. 0.                                                                    
 INPUT CARD>s 9                                                                             
 INPUT CARD>1 13.073594  0.0051583                                                          
 INPUT CARD>2 6.541187   0.0603424                                                          
 INPUT CARD>3 4.573411   -0.1978471                                                         
 INPUT CARD>4 1.637494   -0.0810340                                                         
 INPUT CARD>5 0.819297   0.2321726                                                          
 INPUT CARD>6 0.409924   0.2914643                                                          
 INPUT CARD>7 0.231300   0.4336405                                                          
 INPUT CARD>8 0.102619   0.2131940                                                          
 INPUT CARD>9 0.051344   0.0049848                                                          
 INPUT CARD>s 1                                                                             
 INPUT CARD>1 0.846879   1.000000                                                           
 INPUT CARD>s 1                                                                             
 INPUT CARD>1 0.269659   1.000000                                                           
 INPUT CARD>s 1                                                                             
 INPUT CARD>1 0.109576   1.000000                                                           
 INPUT CARD>s 1                                                                             
 INPUT CARD>1 0.043830   1.000000                                                           
 INPUT CARD>p 9                                                                             
 INPUT CARD>1 9.934169  0.0209076                                                           
  125000000 WORDS OF MEMORY AVAILABLE


     RUN TITLE
     ---------
                                                                                 

 THE POINT GROUP OF THE MOLECULE IS C1      
 THE ORDER OF THE PRINCIPAL AXIS IS     0

 ATOM      ATOMIC                      COORDINATES (BOHR)
           CHARGE         X                   Y                   Z
 C           6.0     0.0000000000        0.0000000000        0.0000000000

          INTERNUCLEAR DISTANCES (ANGS.)
          ------------------------------

                1 C     

   1 C       0.0000000  

  * ... LESS THAN  3.000


     ATOMIC BASIS SET
     ----------------
 THE CONTRACTED PRIMITIVE FUNCTIONS HAVE BEEN UNNORMALIZED
 THE CONTRACTED BASIS FUNCTIONS ARE NOW NORMALIZED TO UNITY

  SHELL TYPE  PRIMITIVE        EXPONENT          CONTRACTION COEFFICIENT(S)

 C         

      1   S       1            13.0735940    0.005158299799
      1   S       2             6.5411870    0.060342397643
      1   S       3             4.5734110   -0.197847092272
      1   S       4             1.6374940   -0.081033996835
      1   S       5             0.8192970    0.232172590931
      1   S       6             0.4099240    0.291464288615
      1   S       7             0.2313000    0.433640483061
      1   S       8             0.1026190    0.213193991672
      1   S       9             0.0513440    0.004984799805

      2   S      10             0.8468790    1.000000000000

      3   S      11             0.2696590    1.000000000000

      4   S      12             0.1095760    1.000000000000

      5   S      13             0.0438300    1.000000000000

      6   P      14             9.9341690    0.020907599209
      6   P      15             3.8869550    0.057269797835
      6   P      16             1.8710160    0.112268195755
      6   P      17             0.9357570    0.213008191946
      6   P      18             0.4680030    0.283581489278
      6   P      19             0.2394730    0.301120688615
      6   P      20             0.1170630    0.201693392374
      6   P      21             0.0585470    0.045357498285
      6   P      22             0.0292810    0.002977499887

      7   P      23             0.8046810    1.000000000000

      8   P      24             0.3132540    1.000000000000

      9   P      25             0.1053890    1.000000000000

     10   P      26             0.0421560    1.000000000000

     11   D      27             2.0137600    1.000000000000

     12   D      28             0.6848840    1.000000000000

     13   D      29             0.2401710    1.000000000000

     14   D      30             0.0960690    1.000000000000

     15   F      31             0.4573020    1.000000000000

     16   F      32             1.3249300    1.000000000000

     17   F      33             0.5299720    1.000000000000

     18   G      34             1.0341800    1.000000000000

     19   G      35             0.4136720    1.000000000000

 TOTAL NUMBER OF BASIS SET SHELLS             =   19
 NUMBER OF CARTESIAN GAUSSIAN BASIS FUNCTIONS =  104
 NOTE: THIS RUN WILL RESTRICT THE MO VARIATION SPACE TO SPHERICAL HARMONICS.
 THE NUMBER OF ORBITALS KEPT IN THE VARIATIONAL SPACE WILL BE PRINTED LATER.
 NUMBER OF ELECTRONS                          =    6
 CHARGE OF MOLECULE                           =    0
 SPIN MULTIPLICITY                            =    3
 NUMBER OF OCCUPIED ORBITALS (ALPHA)          =    4
 NUMBER OF OCCUPIED ORBITALS (BETA )          =    2
 TOTAL NUMBER OF ATOMS                        =    1
 THE NUCLEAR REPULSION ENERGY IS        0.0000000000
 NOTE THIS RUN IS USING CORE POTENTIALS, AND THE NUMBER OF ELECTRONS,
 OCCUPIED ORBITALS, AND NUCLEAR REPULSION ENERGY WILL BE ADJUSTED BELOW
 AFTER REMOVAL OF THE CORE CHARGES.

 THIS MOLECULE IS RECOGNIZED AS BEING LINEAR,
 ORBITAL LZ DEGENERACY TOLERANCE ETOLLZ= 1.00E-06

     LEBEDEV GRID-BASED DFT OPTIONS
     ------------------------------
     DFTTYP=PBE     
     NRAD  =      96     NLEB  =     302
     NRAD0 =      24     NLEB0 =     110
     SWOFF =    5.00E-03 (PURE SCF -> DFT)
     SWITCH=    3.00E-04 (COARSE -> TIGHT GRID)
     THRESH=    0.00E+00 GTHRE=    1.00E+00

 GRIMME'S EMPIRICAL DISPERSION CORRECTION= F

     $CONTRL OPTIONS
     ---------------
 SCFTYP=ROHF         RUNTYP=ENERGY       EXETYP=RUN     
 MPLEVL=       0     CITYP =NONE         CCTYP =NONE         VBTYP =NONE    
 DFTTYP=PBE          TDDFT =NONE    
 MULT  =       3     ICHARG=       0     NZVAR =       0     COORD =UNIQUE  
 PP    =READ         RELWFN=NONE         LOCAL =NONE         NUMGRD=       F
 ISPHER=       1     NOSYM =       0     MAXIT =     150     UNITS =ANGS    
 PLTORB=       F     MOLPLT=       F     AIMPAC=       F     FRIEND=        
 NPRINT=       7     IREST =       0     GEOM  =INPUT   
 NORMF =       0     NORMP =       0     ITOL  =      20     ICUT  =       9
 INTTYP=BEST         GRDTYP=BEST         QMTTOL= 1.0E-06

     $SYSTEM OPTIONS
     ---------------
  REPLICATED MEMORY=   125000000 WORDS (ON EVERY NODE).
 DISTRIBUTED MEMDDI=           0 MILLION WORDS IN AGGREGATE,
 MEMDDI DISTRIBUTED OVER   1 PROCESSORS IS           0 WORDS/PROCESSOR.
 TOTAL MEMORY REQUESTED ON EACH PROCESSOR=   125000000 WORDS.
 TIMLIM=      525600.00 MINUTES, OR     365.0 DAYS.
 PARALL= F  BALTYP=  DLB     KDIAG=    3  COREFL= F
 MXSEQ2=     300 MXSEQ3=     150  mem10=         0

          --------------
          ECP POTENTIALS
          --------------

 PARAMETERS FOR "C-QMC   " ON ATOM    1 WITH ZCORE   2 AND LMAX  1 ARE
 FOR L= 1      COEFF    N           ZETA
    1        4.00000    1       14.43502
    2       57.74008    3        8.39889
    3      -25.81955    2        7.38188
 FOR L= 0      COEFF    N           ZETA
    1       52.13345    2        7.76079

 THE ECP RUN REMOVES    2 CORE ELECTRONS, AND THE SAME NUMBER OF PROTONS.
 NUMBER OF ELECTRONS KEPT IN THE CALCULATION IS =    4
 NUMBER OF OCCUPIED ORBITALS (ALPHA) KEPT IS    =    3
 NUMBER OF OCCUPIED ORBITALS (BETA ) KEPT IS    =    1
 THE ADJUSTED NUCLEAR REPULSION ENERGY=        0.0000000000
          ECP ANGULAR INTS.........     0.02 SECONDS

          ----------------
          PROPERTIES INPUT
          ----------------

     MOMENTS            FIELD           POTENTIAL          DENSITY
 IEMOM =       1   IEFLD =       0   IEPOT =       0   IEDEN =       0
 WHERE =COMASS     WHERE =NUCLEI     WHERE =NUCLEI     WHERE =NUCLEI  
 OUTPUT=BOTH       OUTPUT=BOTH       OUTPUT=BOTH       OUTPUT=BOTH    
 IEMINT=       0   IEFINT=       0                     IEDINT=       0
                                                       MORB  =       0
          EXTRAPOLATION IN EFFECT
          DAMPING IN EFFECT
          LEVEL SHIFTING IN EFFECT
          RESTRICTION OF ORBITAL MIXING IN EFFECT
          DIIS IN EFFECT
 ORBITAL PRINTING OPTION: NPREO=     1   104     2     1

     -------------------------------
     INTEGRAL TRANSFORMATION OPTIONS
     -------------------------------
     NWORD  =            0
     CUTOFF = 1.0E-09     MPTRAN =       0
     DIRTRF =       F     AOINTS =DUP     

          ----------------------
          INTEGRAL INPUT OPTIONS
          ----------------------
 NOPK  =       1 NORDER=       0 SCHWRZ=       F

     ------------------------------------------
     THE POINT GROUP IS C1 , NAXIS= 0, ORDER= 1
     ------------------------------------------

 -- VARIATIONAL SPACE WILL BE RESTRICTED TO PURE SPHERICAL HARMONICS ONLY --
 AFTER EXCLUDING CONTAMINANT COMBINATIONS FROM THE CARTESIAN GAUSSIAN BASIS
 SET, THE NUMBER OF SPHERICAL HARMONICS KEPT IN THE VARIATION SPACE IS   79

     DIMENSIONS OF THE SYMMETRY SUBSPACES ARE
 A   =   79

 ..... DONE SETTING UP THE RUN .....
 STEP CPU TIME =     0.03 TOTAL CPU TIME =        0.0 (    0.0 MIN)
 TOTAL WALL CLOCK TIME=        0.0 SECONDS, CPU UTILIZATION IS 100.00%

          ********************
          1 ELECTRON INTEGRALS
          ********************
 TIME TO DO ORDINARY INTEGRALS=      0.00
 TIME TO DO      ECP INTEGRALS=      0.00
 ...... END OF ONE-ELECTRON INTEGRALS ......
 STEP CPU TIME =     0.00 TOTAL CPU TIME =        0.0 (    0.0 MIN)
 TOTAL WALL CLOCK TIME=        0.0 SECONDS, CPU UTILIZATION IS 100.00%

          -------------
          GUESS OPTIONS
          -------------
          GUESS =HUCKEL            NORB  =       0          NORDER=       0
          MIX   =       F          PRTMO =       F          PUNMO =       F
          TOLZ  = 1.0E-08          TOLE  = 1.0E-05
          SYMDEN=       F          PURIFY=       F

 INITIAL GUESS ORBITALS GENERATED BY HUCKEL   ROUTINE.
 HUCKEL GUESS REQUIRES     78439 WORDS.

 STATISTICS FOR GENERATION OF SYMMETRY ORBITAL -Q- MATRIX
 NUMBER OF CARTESIAN ATOMIC ORBITALS=        104
 NUMBER OF SPHERICAL CONTAMINANTS DROPPED=    25
 NUMBER OF LINEARLY DEPENDENT MOS DROPPED=     0
 TOTAL NUMBER OF MOS IN VARIATION SPACE=      79

 SYMMETRIES FOR INITIAL GUESS ORBITALS FOLLOW.  ALPHA SET(S).
     3 ORBITALS ARE OCCUPIED (    0 CORE ORBITALS).
     1=A        2=A        3=A        4=A        5=A        6=A        7=A   
     8=A        9=A       10=A       11=A       12=A       13=A   

 SYMMETRIES FOR INITIAL GUESS ORBITALS FOLLOW.   BETA SET(S).
     1 ORBITALS ARE OCCUPIED (    0 CORE ORBITALS).
     1=A        2=A        3=A        4=A        5=A        6=A        7=A   
     8=A        9=A       10=A       11=A   
 ...... END OF INITIAL ORBITAL SELECTION ......
 STEP CPU TIME =     0.01 TOTAL CPU TIME =        0.0 (    0.0 MIN)
 TOTAL WALL CLOCK TIME=        0.0 SECONDS, CPU UTILIZATION IS 100.00%

                    ----------------------
                    AO INTEGRAL TECHNOLOGY
                    ----------------------
     S,P,L SHELL ROTATED AXIS INTEGRALS, REPROGRAMMED BY
        KAZUYA ISHIMURA (IMS) AND JOSE SIERRA (SYNSTAR).
     S,P,D,L SHELL ROTATED AXIS INTEGRALS PROGRAMMED BY
        KAZUYA ISHIMURA (INSTITUTE FOR MOLECULAR SCIENCE).
     S,P,D,F,G SHELL TO TOTAL QUARTET ANGULAR MOMENTUM SUM 5,
        ERIC PROGRAM BY GRAHAM FLETCHER (ELORET AND NASA ADVANCED
        SUPERCOMPUTING DIVISION, AMES RESEARCH CENTER).
     S,P,D,F,G,L SHELL GENERAL RYS QUADRATURE PROGRAMMED BY
        MICHEL DUPUIS (PACIFIC NORTHWEST NATIONAL LABORATORY).

          --------------------
          2 ELECTRON INTEGRALS
          --------------------

 THE -PK- OPTION IS OFF, THE INTEGRALS ARE NOT IN SUPERMATRIX FORM.
 STORING   15000 INTEGRALS/RECORD ON DISK, USING 12 BYTES/INTEGRAL.
 TWO ELECTRON INTEGRAL EVALUATION REQUIRES  139915 WORDS OF MEMORY.
 II,JST,KST,LST =  1  1  1  1 NREC =         1 INTLOC =    1
 II,JST,KST,LST =  2  1  1  1 NREC =         1 INTLOC =    2
 II,JST,KST,LST =  3  1  1  1 NREC =         1 INTLOC =    7
 II,JST,KST,LST =  4  1  1  1 NREC =         1 INTLOC =   22
 II,JST,KST,LST =  5  1  1  1 NREC =         1 INTLOC =   56
 II,JST,KST,LST =  6  1  1  1 NREC =         1 INTLOC =  121
 II,JST,KST,LST =  7  1  1  1 NREC =         1 INTLOC =  220
 II,JST,KST,LST =  8  1  1  1 NREC =         1 INTLOC =  496
 II,JST,KST,LST =  9  1  1  1 NREC =         1 INTLOC = 1057
 II,JST,KST,LST = 10  1  1  1 NREC =         1 INTLOC = 2074
 II,JST,KST,LST = 11  1  1  1 NREC =         1 INTLOC = 3781
 II,JST,KST,LST = 12  1  1  1 NREC =         1 INTLOC = 9301
 II,JST,KST,LST = 13  1  1  1 NREC =         2 INTLOC = 5254
 II,JST,KST,LST = 14  1  1  1 NREC =         3 INTLOC = 9160
 II,JST,KST,LST = 15  1  1  1 NREC =         5 INTLOC = 9547
 II,JST,KST,LST = 16  1  1  1 NREC =        10 INTLOC =13688
 II,JST,KST,LST = 17  1  1  1 NREC =        20 INTLOC =  974
 II,JST,KST,LST = 18  1  1  1 NREC =        34 INTLOC = 9469
 II,JST,KST,LST = 19  1  1  1 NREC =        70 INTLOC = 1606
 TOTAL NUMBER OF NONZERO TWO-ELECTRON INTEGRALS =             1915935
        128 INTEGRAL RECORDS WERE STORED ON DISK FILE  8.
  ...... END OF TWO-ELECTRON INTEGRALS .....
 STEP CPU TIME =     0.40 TOTAL CPU TIME =        0.4 (    0.0 MIN)
 TOTAL WALL CLOCK TIME=        0.4 SECONDS, CPU UTILIZATION IS  97.78%

          ---------------------------
               RO-PBE SCF CALCULATION
          ---------------------------

     NUCLEAR ENERGY =         0.0000000000
     MAXIT =150     NPUNCH=  2     MULT=  3
     EXTRAP=T  DAMP=T  SHIFT=T  RSTRCT=T  DIIS=T  SOSCF=F
         DENSITY MATRIX CONVERGENCE THRESHOLD=  1.00E-05
     COARSE -> FINE DFT GRID SWITCH THRESHOLD=  3.00E-04 (SWITCH IN $DFT)
                   HF -> DFT SWITCH THRESHOLD=  5.00E-03 (SWOFF IN $DFT)
     ROHF CANONICALIZATION PARAMETERS
             C-C     O-O     V-V
     ALPHA -0.5000  0.5000  1.5000
     BETA   1.5000  0.5000 -0.5000
     MEMORY REQUIRED FOR UHF/ROHF ITERS=    225590 WORDS.

 DFT CODE IS SWITCHING FROM THE FINE GRID NRAD= 96,  NLEB=  302
                      TO THE COARSE GRID NRAD0= 24, NLEB0=  110

     EXCHANGE FUNCTIONAL   =PBE       
     CORRELATION FUNCTIONAL=PBE       
     DFT THRESHOLD         =.138E-06
     GRID CHANGE THRESHOLD =.300E-03
 FOR AN EULER-MACLAURIN QUADRATURE USING  96 RADIAL POINTS:
 SMALLEST GAUSSIAN PRIMITIVE EXPONENT=        0.0292810000 OF TYPE -P-
 ON ATOM NUMBER   1 HAS RADIAL NORMALIZATION=  1.000000
  LARGEST GAUSSIAN PRIMITIVE EXPONENT=       13.0735940000 OF TYPE -S-
 ON ATOM NUMBER   1 HAS RADIAL NORMALIZATION=  1.000000
 DFT IS SWITCHED OFF, PERFORMING PURE SCF UNTIL SWOFF THRESHOLD IS REACHED.

 ITER EX      TOTAL ENERGY        E CHANGE  DENSITY CHANGE    DIIS ERROR      VIR. SHIFT       DAMPING
   1  0       -5.1139691995    -5.1139691995   1.113470060   1.541813320     0.000000000     1.000000000
          * * *   INITIATING DIIS PROCEDURE   * * *
   2  1       -5.2865172163    -0.1725480168   0.490474985   0.096633884     0.000000000     1.000000000
   3  2       -5.3072121337    -0.0206949174   0.167088135   0.063742021     0.000000000     1.000000000
   4  3       -5.3142974197    -0.0070852860   0.017749183   0.004548007     0.000000000     1.000000000
   5  4       -5.3143036386    -0.0000062189   0.007174407   0.001257009     0.000000000     1.000000000
   6  5       -5.3143179987    -0.0000143600   0.000483282   0.000153349     0.000000000     1.000000000
 CONVERGED TO SWOFF, SO DFT CALCULATION IS NOW SWITCHED ON.
          * * *   INITIATING DIIS PROCEDURE   * * *
   7  6       -5.4061655309    -0.0918475322   0.115054242   0.047648882
   8  7       -5.4080169307    -0.0018513998   0.024136199   0.006557949
   9  8       -5.4080622365    -0.0000453058   0.019241699   0.006053447
  10  9       -5.4081294507    -0.0000672142   0.001673802   0.000655787
  11 10       -5.4081299092    -0.0000004586   0.000238851   0.000057990
 DFT CODE IS SWITCHING BACK TO THE FINE GRID
          * * *   INITIATING DIIS PROCEDURE   * * *
  12 11       -5.4081151930     0.0000147162   0.000475102   0.000118792
  13 12       -5.4081152069    -0.0000000138   0.000027565   0.000008716
  14 13       -5.4081152070    -0.0000000002   0.000006032   0.000002223
  15 14       -5.4081152070     0.0000000000   0.000001523   0.000000510

          -----------------
          DENSITY CONVERGED
          -----------------
     TIME TO FORM FOCK OPERATORS=       1.7 SECONDS (       0.1 SEC/ITER)
     TIME TO SOLVE SCF EQUATIONS=       0.1 SECONDS (       0.0 SEC/ITER)

 FINAL RO-PBE ENERGY IS       -5.4081152070 AFTER  15 ITERATIONS
 DFT EXCHANGE + CORRELATION ENERGY =        -1.5009993630
 TOTAL ELECTRON NUMBER             =         3.9999994432

          --------------------
          SPIN SZ   =    1.000
          S-SQUARED =    2.000
          --------------------

 LZ VALUE ANALYSIS FOR THE MOS
 ----------------------------------------
 MO     1 (    1) HAS LZ(WEIGHT)= 0.00(100.0%) 
 MO     2 (    2) HAS LZ(WEIGHT)=-1.00( 50.0%)  1.00( 50.0%) 
 MO     3 (    2) HAS LZ(WEIGHT)=-1.00( 50.0%)  1.00( 50.0%) 
 MO     4 (    3) HAS LZ(WEIGHT)= 0.00(100.0%) 
 MO     5 (    4) HAS LZ(WEIGHT)= 0.00(100.0%) 
 MO     6 (    5) HAS LZ(WEIGHT)=-1.00( 50.0%)  1.00( 50.0%) 
 MO     7 (    5) HAS LZ(WEIGHT)=-1.00( 50.0%)  1.00( 50.0%) 
 MO     8 (    6) HAS LZ(WEIGHT)=-3.00( 50.0%)  3.00( 50.0%) 
 MO     9 (    6) HAS LZ(WEIGHT)=-3.00( 50.0%)  3.00( 50.0%) 
 MO    10 (    7) HAS LZ(WEIGHT)= 0.00(100.0%) 
 MO    11 (    8) HAS LZ(WEIGHT)= 0.00(100.0%) 
 MO    12 (    9) HAS LZ(WEIGHT)= 0.00(100.0%) 
 MO    13 (   10) HAS LZ(WEIGHT)=-1.00( 50.0%)  1.00( 50.0%) 
 MO    14 (   10) HAS LZ(WEIGHT)=-1.00( 50.0%)  1.00( 50.0%) 
 MO    15 (   11) HAS LZ(WEIGHT)= 0.00(100.0%) 
 MO    16 (   12) HAS LZ(WEIGHT)= 0.00(100.0%) 
 MO    17 (   13) HAS LZ(WEIGHT)=-1.00( 50.0%)  1.00( 50.0%) 
 MO    18 (   13) HAS LZ(WEIGHT)=-1.00( 50.0%)  1.00( 50.0%) 
 MO    19 (   14) HAS LZ(WEIGHT)= 0.00(100.0%) 
 MO    20 (   15) HAS LZ(WEIGHT)= 0.00(100.0%) 
 MO    21 (   16) HAS LZ(WEIGHT)= 0.00(100.0%) 
 MO    22 (   17) HAS LZ(WEIGHT)= 0.00(100.0%) 
 MO    23 (   18) HAS LZ(WEIGHT)=-1.00( 50.0%)  1.00( 50.0%) 
 MO    24 (   18) HAS LZ(WEIGHT)=-1.00( 50.0%)  1.00( 50.0%) 
 MO    25 (   19) HAS LZ(WEIGHT)= 0.00(100.0%) 
 MO    26 (   20) HAS LZ(WEIGHT)= 0.00(100.0%) 
 MO    27 (   21) HAS LZ(WEIGHT)=-1.00( 50.0%)  1.00( 50.0%) 
 MO    28 (   21) HAS LZ(WEIGHT)=-1.00( 50.0%)  1.00( 50.0%) 
 MO    29 (   22) HAS LZ(WEIGHT)= 0.00(100.0%) 
 MO    30 (   23) HAS LZ(WEIGHT)= 0.00(100.0%) 
 MO    31 (   24) HAS LZ(WEIGHT)= 0.00(100.0%) 
 MO    32 (   25) HAS LZ(WEIGHT)=-3.00( 50.0%)  3.00( 50.0%) 
 MO    33 (   25) HAS LZ(WEIGHT)=-3.00( 50.0%)  3.00( 50.0%) 
 MO    34 (   26) HAS LZ(WEIGHT)= 0.00(100.0%) 
 MO    35 (   27) HAS LZ(WEIGHT)=-1.00( 50.0%)  1.00( 50.0%) 
 MO    36 (   27) HAS LZ(WEIGHT)=-1.00( 50.0%)  1.00( 50.0%) 
 MO    37 (   28) HAS LZ(WEIGHT)= 0.00(100.0%) 
 MO    38 (   29) HAS LZ(WEIGHT)= 0.00(100.0%) 
 MO    39 (   30) HAS LZ(WEIGHT)=-2.00( 50.0%)  2.00( 50.0%) 
 MO    40 (   30) HAS LZ(WEIGHT)=-2.00( 50.0%)  2.00( 50.0%) 
 MO    41 (   31) HAS LZ(WEIGHT)=-1.00( 50.0%)  1.00( 50.0%) 
 MO    42 (   31) HAS LZ(WEIGHT)=-1.00( 50.0%)  1.00( 50.0%) 
 MO    43 (   32) HAS LZ(WEIGHT)= 0.00(100.0%) 
 MO    44 (   33) HAS LZ(WEIGHT)=-3.00( 50.0%)  3.00( 50.0%) 
 MO    45 (   33) HAS LZ(WEIGHT)=-3.00( 50.0%)  3.00( 50.0%) 
 MO    46 (   34) HAS LZ(WEIGHT)= 0.00(100.0%) 
 MO    47 (   35) HAS LZ(WEIGHT)= 0.00(100.0%) 
 MO    48 (   36) HAS LZ(WEIGHT)= 0.00(100.0%) 
 MO    49 (   37) HAS LZ(WEIGHT)= 0.00(100.0%) 
 MO    50 (   38) HAS LZ(WEIGHT)= 0.00(100.0%) 
 MO    51 (   39) HAS LZ(WEIGHT)=-1.00( 50.0%)  1.00( 50.0%) 
 MO    52 (   39) HAS LZ(WEIGHT)=-1.00( 50.0%)  1.00( 50.0%) 
 MO    53 (   40) HAS LZ(WEIGHT)= 0.00(100.0%) 
 MO    54 (   41) HAS LZ(WEIGHT)= 0.00(100.0%) 
 MO    55 (   42) HAS LZ(WEIGHT)= 0.00(100.0%) 
 MO    56 (   43) HAS LZ(WEIGHT)= 0.00(100.0%) 
 MO    57 (   44) HAS LZ(WEIGHT)= 0.00(100.0%) 
 MO    58 (   45) HAS LZ(WEIGHT)= 0.00(100.0%) 
 MO    59 (   46) HAS LZ(WEIGHT)= 0.00(100.0%) 
 MO    60 (   47) HAS LZ(WEIGHT)= 0.00(100.0%) 
 MO    61 (   48) HAS LZ(WEIGHT)= 0.00(100.0%) 
 MO    62 (   49) HAS LZ(WEIGHT)=-3.00( 50.0%)  3.00( 50.0%) 
 MO    63 (   49) HAS LZ(WEIGHT)=-3.00( 50.0%)  3.00( 50.0%) 
 MO    64 (   50) HAS LZ(WEIGHT)= 0.00(100.0%) 
 MO    65 (   51) HAS LZ(WEIGHT)=-1.00( 50.0%)  1.00( 50.0%) 
 MO    66 (   51) HAS LZ(WEIGHT)=-1.00( 50.0%)  1.00( 50.0%) 
 MO    67 (   52) HAS LZ(WEIGHT)= 0.00(100.0%) 
 MO    68 (   53) HAS LZ(WEIGHT)= 0.00(100.0%) 
 MO    69 (   54) HAS LZ(WEIGHT)= 0.00(100.0%) 
 MO    70 (   55) HAS LZ(WEIGHT)=-1.00( 50.0%)  1.00( 50.0%) 
 MO    71 (   55) HAS LZ(WEIGHT)=-1.00( 50.0%)  1.00( 50.0%) 
 MO    72 (   56) HAS LZ(WEIGHT)= 0.00(100.0%) 
 MO    73 (   57) HAS LZ(WEIGHT)= 0.00(100.0%) 
 MO    74 (   58) HAS LZ(WEIGHT)= 0.00(100.0%) 
 MO    75 (   59) HAS LZ(WEIGHT)=-1.00( 50.0%)  1.00( 50.0%) 
 MO    76 (   59) HAS LZ(WEIGHT)=-1.00( 50.0%)  1.00( 50.0%) 
 MO    77 (   60) HAS LZ(WEIGHT)= 0.00(100.0%) 
 MO    78 (   61) HAS LZ(WEIGHT)= 0.00(100.0%) 
 MO    79 (   62) HAS LZ(WEIGHT)= 0.00(100.0%) 

          ------------
          EIGENVECTORS
          ------------

                      1          2          3          4          5
                   -0.3899    -0.1617    -0.1617    -0.2251     2.9300
                     A          A          A          A          A   
    1  C  1  S    1.020071  -0.000000  -0.000000   0.000000  -0.000000
    2  C  1  S    0.001186  -0.000000  -0.000000   0.000000  -0.000000
    3  C  1  S   -0.010622  -0.000000  -0.000000   0.000000  -0.000000
    4  C  1  S   -0.019756  -0.000000  -0.000000   0.000000  -0.000000
    5  C  1  S    0.011126  -0.000000  -0.000000   0.000000  -0.000000
    6  C  1  X    0.000000   1.038156  -0.000000   0.000000  -0.000000
    7  C  1  Y    0.000000  -0.000000   1.038156   0.000000  -0.000000
    8  C  1  Z    0.000000  -0.000000  -0.000000   0.967093  -0.000000
    9  C  1  X    0.000000  -0.006581  -0.000000   0.000000  -0.000000
   10  C  1  Y    0.000000  -0.000000  -0.006581   0.000000  -0.000000
   11  C  1  Z    0.000000  -0.000000  -0.000000   0.004981  -0.000000
   12  C  1  X    0.000000  -0.041928  -0.000000   0.000000  -0.000000
   13  C  1  Y    0.000000  -0.000000  -0.041928   0.000000  -0.000000
   14  C  1  Z    0.000000  -0.000000  -0.000000  -0.003197  -0.000000
   15  C  1  X    0.000000  -0.008599  -0.000000   0.000000  -0.000000
   16  C  1  Y    0.000000  -0.000000  -0.008599   0.000000  -0.000000
   17  C  1  Z    0.000000  -0.000000  -0.000000   0.021564  -0.000000
   18  C  1  X    0.000000   0.030860  -0.000000   0.000000  -0.000000
   19  C  1  Y    0.000000  -0.000000   0.030860   0.000000  -0.000000
   20  C  1  Z    0.000000  -0.000000  -0.000000   0.036057  -0.000000
   21  C  1 XX   -0.000094  -0.000000  -0.000000   0.000000  -0.000000
   22  C  1 YY   -0.000094  -0.000000  -0.000000   0.000000  -0.000000
   23  C  1 ZZ    0.000188  -0.000000  -0.000000   0.000000  -0.000000
   24  C  1 XY    0.000000  -0.000000  -0.000000   0.000000  -0.000000
   25  C  1 XZ    0.000000  -0.000000  -0.000000   0.000000  -0.000000
   26  C  1 YZ    0.000000  -0.000000  -0.000000   0.000000  -0.000000
   27  C  1 XX   -0.004000  -0.000000  -0.000000   0.000000  -0.000000
   28  C  1 YY   -0.004000  -0.000000  -0.000000   0.000000  -0.000000
   29  C  1 ZZ    0.008000  -0.000000  -0.000000   0.000000  -0.000000
   30  C  1 XY    0.000000  -0.000000  -0.000000   0.000000  -0.000000
   31  C  1 XZ    0.000000  -0.000000  -0.000000   0.000000  -0.000000
   32  C  1 YZ    0.000000  -0.000000  -0.000000   0.000000  -0.000000
   33  C  1 XX   -0.002359  -0.000000  -0.000000   0.000000  -0.000000
   34  C  1 YY   -0.002359  -0.000000  -0.000000   0.000000  -0.000000
   35  C  1 ZZ    0.004718  -0.000000  -0.000000   0.000000  -0.000000
   36  C  1 XY    0.000000  -0.000000  -0.000000   0.000000  -0.000000
   37  C  1 XZ    0.000000  -0.000000  -0.000000   0.000000  -0.000000
   38  C  1 YZ    0.000000  -0.000000  -0.000000   0.000000  -0.000000
   39  C  1 XX   -0.000500  -0.000000  -0.000000   0.000000  -0.000000
   40  C  1 YY   -0.000500  -0.000000  -0.000000   0.000000  -0.000000
   41  C  1 ZZ    0.000999  -0.000000  -0.000000   0.000000  -0.000000
   42  C  1 XY    0.000000  -0.000000  -0.000000   0.000000  -0.000000
   43  C  1 XZ    0.000000  -0.000000  -0.000000   0.000000  -0.000000
   44  C  1 YZ    0.000000  -0.000000  -0.000000   0.000000  -0.000000
   45  C  1 XXX   0.000000   0.003537  -0.000000   0.000000  -0.000000
   46  C  1 YYY   0.000000  -0.000000   0.003537   0.000000  -0.000000
   47  C  1 ZZZ   0.000000  -0.000000  -0.000000  -0.037444  -0.000000
   48  C  1 XXY   0.000000  -0.000000   0.001584   0.000000  -0.000000
   49  C  1 XXZ   0.000000  -0.000000  -0.000000   0.025118  -0.000000
   50  C  1 YYX   0.000000   0.001584  -0.000000   0.000000  -0.000000
   51  C  1 YYZ   0.000000  -0.000000  -0.000000   0.025118  -0.000000
   52  C  1 ZZX   0.000000  -0.006329  -0.000000   0.000000  -0.000000
   53  C  1 ZZY   0.000000  -0.000000  -0.006329   0.000000  -0.000000
   54  C  1 XYZ   0.000000  -0.000000  -0.000000   0.000000  -6.071196
   55  C  1 XXX   0.000000   0.000695  -0.000000   0.000000  -0.000000
   56  C  1 YYY   0.000000  -0.000000   0.000695   0.000000  -0.000000
   57  C  1 ZZZ   0.000000  -0.000000  -0.000000  -0.009686  -0.000000
   58  C  1 XXY   0.000000  -0.000000   0.000311   0.000000  -0.000000
   59  C  1 XXZ   0.000000  -0.000000  -0.000000   0.006497  -0.000000
   60  C  1 YYX   0.000000   0.000311  -0.000000   0.000000  -0.000000
   61  C  1 YYZ   0.000000  -0.000000  -0.000000   0.006497  -0.000000
   62  C  1 ZZX   0.000000  -0.001243  -0.000000   0.000000  -0.000000
   63  C  1 ZZY   0.000000  -0.000000  -0.001243   0.000000  -0.000000
   64  C  1 XYZ   0.000000  -0.000000  -0.000000   0.000000  -0.264566
   65  C  1 XXX   0.000000  -0.003572  -0.000000   0.000000  -0.000000
   66  C  1 YYY   0.000000  -0.000000  -0.003572   0.000000  -0.000000
   67  C  1 ZZZ   0.000000  -0.000000  -0.000000   0.027326  -0.000000
   68  C  1 XXY   0.000000  -0.000000  -0.001600   0.000000  -0.000000
   69  C  1 XXZ   0.000000  -0.000000  -0.000000  -0.018331  -0.000000
   70  C  1 YYX   0.000000  -0.001600  -0.000000   0.000000  -0.000000
   71  C  1 YYZ   0.000000  -0.000000  -0.000000  -0.018331  -0.000000
   72  C  1 ZZX   0.000000   0.006392  -0.000000   0.000000  -0.000000
   73  C  1 ZZY   0.000000  -0.000000   0.006392   0.000000  -0.000000
   74  C  1 XYZ   0.000000  -0.000000  -0.000000   0.000000   6.739564
   75  C  1XXXX  -0.000191  -0.000000  -0.000000   0.000000  -0.000000
   76  C  1YYYY  -0.000191  -0.000000  -0.000000   0.000000  -0.000000
   77  C  1ZZZZ  -0.000509  -0.000000  -0.000000   0.000000  -0.000000
   78  C  1XXXY   0.000000  -0.000000  -0.000000   0.000000  -0.000000
   79  C  1XXXZ   0.000000  -0.000000  -0.000000   0.000000  -0.000000
   80  C  1YYYX   0.000000  -0.000000  -0.000000   0.000000  -0.000000
   81  C  1YYYZ   0.000000  -0.000000  -0.000000   0.000000  -0.000000
   82  C  1ZZZX   0.000000  -0.000000  -0.000000   0.000000  -0.000000
   83  C  1ZZZY   0.000000  -0.000000  -0.000000   0.000000  -0.000000
   84  C  1XXYY  -0.000112  -0.000000  -0.000000   0.000000  -0.000000
   85  C  1XXZZ   0.000447  -0.000000  -0.000000   0.000000  -0.000000
   86  C  1YYZZ   0.000447  -0.000000  -0.000000   0.000000  -0.000000
   87  C  1XXYZ   0.000000  -0.000000  -0.000000   0.000000  -0.000000
   88  C  1YYXZ   0.000000  -0.000000  -0.000000   0.000000  -0.000000
   89  C  1ZZXY   0.000000  -0.000000  -0.000000   0.000000  -0.000000
   90  C  1XXXX  -0.000139  -0.000000  -0.000000   0.000000  -0.000000
   91  C  1YYYY  -0.000139  -0.000000  -0.000000   0.000000  -0.000000
   92  C  1ZZZZ  -0.000371  -0.000000  -0.000000   0.000000  -0.000000
   93  C  1XXXY   0.000000  -0.000000  -0.000000   0.000000  -0.000000
   94  C  1XXXZ   0.000000  -0.000000  -0.000000   0.000000  -0.000000
   95  C  1YYYX   0.000000  -0.000000  -0.000000   0.000000  -0.000000
   96  C  1YYYZ   0.000000  -0.000000  -0.000000   0.000000  -0.000000
   97  C  1ZZZX   0.000000  -0.000000  -0.000000   0.000000  -0.000000
   98  C  1ZZZY   0.000000  -0.000000  -0.000000   0.000000  -0.000000
   99  C  1XXYY  -0.000081  -0.000000  -0.000000   0.000000  -0.000000
  100  C  1XXZZ   0.000326  -0.000000  -0.000000   0.000000  -0.000000
  101  C  1YYZZ   0.000326  -0.000000  -0.000000   0.000000  -0.000000
  102  C  1XXYZ   0.000000  -0.000000  -0.000000   0.000000  -0.000000
  103  C  1YYXZ   0.000000  -0.000000  -0.000000   0.000000  -0.000000
  104  C  1ZZXY   0.000000  -0.000000  -0.000000   0.000000  -0.000000

                      6          7          8          9         10
                    2.9455     2.9455     2.9196     2.9196     2.9300
                     A          A          A          A          A   
    1  C  1  S   -0.000000  -0.000000  -0.000000   0.000000   0.000000
    2  C  1  S   -0.000000  -0.000000  -0.000000   0.000000   0.000000
    3  C  1  S   -0.000000  -0.000000  -0.000000   0.000000   0.000000
    4  C  1  S   -0.000000  -0.000000  -0.000000   0.000000   0.000000
    5  C  1  S   -0.000000  -0.000000  -0.000000   0.000000   0.000000
    6  C  1  X    0.022391  -0.000000  -0.000005   0.000000   0.000000
    7  C  1  Y   -0.000000   0.022391  -0.000000  -0.000005   0.000000
    8  C  1  Z   -0.000000  -0.000000  -0.000000   0.000000   0.000000
    9  C  1  X   -0.013629  -0.000000   0.000003   0.000000   0.000000
   10  C  1  Y   -0.000000  -0.013629  -0.000000   0.000003   0.000000
   11  C  1  Z   -0.000000  -0.000000  -0.000000   0.000000   0.000000
   12  C  1  X   -0.001960  -0.000000   0.000000   0.000000   0.000000
   13  C  1  Y   -0.000000  -0.001960  -0.000000   0.000000   0.000000
   14  C  1  Z   -0.000000  -0.000000  -0.000000   0.000000  -0.000000
   15  C  1  X   -0.013277  -0.000000   0.000002   0.000000   0.000000
   16  C  1  Y   -0.000000  -0.013277  -0.000000   0.000002   0.000000
   17  C  1  Z   -0.000000  -0.000000  -0.000000   0.000000   0.000000
   18  C  1  X    0.002118  -0.000000   0.000000   0.000000   0.000000
   19  C  1  Y   -0.000000   0.002118  -0.000000   0.000000   0.000000
   20  C  1  Z   -0.000000  -0.000000  -0.000000   0.000000  -0.000000
   21  C  1 XX   -0.000000  -0.000000  -0.000000   0.000000   0.000000
   22  C  1 YY   -0.000000  -0.000000  -0.000000   0.000000   0.000000
   23  C  1 ZZ   -0.000000  -0.000000  -0.000000   0.000000   0.000000
   24  C  1 XY   -0.000000  -0.000000  -0.000000   0.000000   0.000000
   25  C  1 XZ   -0.000000  -0.000000  -0.000000   0.000000   0.000000
   26  C  1 YZ   -0.000000  -0.000000  -0.000000   0.000000   0.000000
   27  C  1 XX   -0.000000  -0.000000  -0.000000   0.000000   0.000000
   28  C  1 YY   -0.000000  -0.000000  -0.000000   0.000000   0.000000
   29  C  1 ZZ   -0.000000  -0.000000  -0.000000   0.000000   0.000000
   30  C  1 XY   -0.000000  -0.000000  -0.000000   0.000000   0.000000
   31  C  1 XZ   -0.000000  -0.000000  -0.000000   0.000000   0.000000
   32  C  1 YZ   -0.000000  -0.000000  -0.000000   0.000000   0.000000
   33  C  1 XX   -0.000000  -0.000000  -0.000000   0.000000   0.000000
   34  C  1 YY   -0.000000  -0.000000  -0.000000   0.000000   0.000000
   35  C  1 ZZ   -0.000000  -0.000000  -0.000000   0.000000   0.000000
   36  C  1 XY   -0.000000  -0.000000  -0.000000   0.000000   0.000000
   37  C  1 XZ   -0.000000  -0.000000  -0.000000   0.000000   0.000000
   38  C  1 YZ   -0.000000  -0.000000  -0.000000   0.000000   0.000000
   39  C  1 XX   -0.000000  -0.000000  -0.000000   0.000000   0.000000
   40  C  1 YY   -0.000000  -0.000000  -0.000000   0.000000   0.000000
   41  C  1 ZZ   -0.000000  -0.000000  -0.000000   0.000000   0.000000
   42  C  1 XY   -0.000000  -0.000000  -0.000000   0.000000   0.000000
   43  C  1 XZ   -0.000000  -0.000000  -0.000000   0.000000   0.000000
   44  C  1 YZ   -0.000000  -0.000000  -0.000000   0.000000   0.000000
   45  C  1 XXX   3.715135  -0.000000   4.800736   0.000000   0.000000
   46  C  1 YYY  -0.000000   3.715135  -0.000000   4.800736   0.000000
   47  C  1 ZZZ  -0.000000  -0.000000  -0.000000   0.000000   0.000000
   48  C  1 XXY  -0.000000   1.661427  -0.000000  -6.440888   0.000000
   49  C  1 XXZ  -0.000000  -0.000000  -0.000000   0.000000   5.257811
   50  C  1 YYX   1.661427  -0.000000  -6.440888   0.000000   0.000000
   51  C  1 YYZ  -0.000000  -0.000000  -0.000000   0.000000  -5.257811
   52  C  1 ZZX  -6.645804  -0.000000   0.000025   0.000000   0.000000
   53  C  1 ZZY  -0.000000  -6.645804  -0.000000   0.000025   0.000000
   54  C  1 XYZ  -0.000000  -0.000000  -0.000000   0.000000   0.000000
   55  C  1 XXX   0.163114  -0.000000   0.208158   0.000000   0.000000
   56  C  1 YYY  -0.000000   0.163114  -0.000000   0.208158   0.000000
   57  C  1 ZZZ  -0.000000  -0.000000  -0.000000   0.000000   0.000000
   58  C  1 XXY  -0.000000   0.072945  -0.000000  -0.279274   0.000000
   59  C  1 XXZ  -0.000000  -0.000000  -0.000000   0.000000   0.229121
   60  C  1 YYX   0.072945  -0.000000  -0.279274   0.000000   0.000000
   61  C  1 YYZ  -0.000000  -0.000000  -0.000000   0.000000  -0.229121
   62  C  1 ZZX  -0.291785  -0.000000   0.000001   0.000000   0.000000
   63  C  1 ZZY  -0.000000  -0.291785  -0.000000   0.000001   0.000000
   64  C  1 XYZ  -0.000000  -0.000000  -0.000000   0.000000   0.000000
   65  C  1 XXX  -4.126382  -0.000000  -5.327664   0.000000   0.000000
   66  C  1 YYY  -0.000000  -4.126382  -0.000000  -5.327664   0.000000
   67  C  1 ZZZ  -0.000000  -0.000000  -0.000000   0.000000  -0.000000
   68  C  1 XXY  -0.000000  -1.845338  -0.000000   7.147839   0.000000
   69  C  1 XXZ  -0.000000  -0.000000  -0.000000   0.000000  -5.836634
   70  C  1 YYX  -1.845338  -0.000000   7.147839   0.000000   0.000000
   71  C  1 YYZ  -0.000000  -0.000000  -0.000000   0.000000   5.836634
   72  C  1 ZZX   7.381461  -0.000000  -0.000028   0.000000   0.000000
   73  C  1 ZZY  -0.000000   7.381461  -0.000000  -0.000028   0.000000
   74  C  1 XYZ  -0.000000  -0.000000  -0.000000   0.000000   0.000000
   75  C  1XXXX  -0.000000  -0.000000  -0.000000   0.000000   0.000000
   76  C  1YYYY  -0.000000  -0.000000  -0.000000   0.000000   0.000000
   77  C  1ZZZZ  -0.000000  -0.000000  -0.000000   0.000000   0.000000
   78  C  1XXXY  -0.000000  -0.000000  -0.000000   0.000000   0.000000
   79  C  1XXXZ  -0.000000  -0.000000  -0.000000   0.000000   0.000000
   80  C  1YYYX  -0.000000  -0.000000  -0.000000   0.000000   0.000000
   81  C  1YYYZ  -0.000000  -0.000000  -0.000000   0.000000   0.000000
   82  C  1ZZZX  -0.000000  -0.000000  -0.000000   0.000000   0.000000
   83  C  1ZZZY  -0.000000  -0.000000  -0.000000   0.000000   0.000000
   84  C  1XXYY  -0.000000  -0.000000  -0.000000   0.000000   0.000000
   85  C  1XXZZ  -0.000000  -0.000000  -0.000000   0.000000   0.000000
   86  C  1YYZZ  -0.000000  -0.000000  -0.000000   0.000000   0.000000
   87  C  1XXYZ  -0.000000  -0.000000  -0.000000   0.000000   0.000000
   88  C  1YYXZ  -0.000000  -0.000000  -0.000000   0.000000   0.000000
   89  C  1ZZXY  -0.000000  -0.000000  -0.000000   0.000000   0.000000
   90  C  1XXXX  -0.000000  -0.000000  -0.000000   0.000000   0.000000
   91  C  1YYYY  -0.000000  -0.000000  -0.000000   0.000000   0.000000
   92  C  1ZZZZ  -0.000000  -0.000000  -0.000000   0.000000   0.000000
   93  C  1XXXY  -0.000000  -0.000000  -0.000000   0.000000   0.000000
   94  C  1XXXZ  -0.000000  -0.000000  -0.000000   0.000000   0.000000
   95  C  1YYYX  -0.000000  -0.000000  -0.000000   0.000000   0.000000
   96  C  1YYYZ  -0.000000  -0.000000  -0.000000   0.000000   0.000000
   97  C  1ZZZX  -0.000000  -0.000000  -0.000000   0.000000   0.000000
   98  C  1ZZZY  -0.000000  -0.000000  -0.000000   0.000000   0.000000
   99  C  1XXYY  -0.000000  -0.000000  -0.000000   0.000000   0.000000
  100  C  1XXZZ  -0.000000  -0.000000  -0.000000   0.000000   0.000000
  101  C  1YYZZ  -0.000000  -0.000000  -0.000000   0.000000   0.000000
  102  C  1XXYZ  -0.000000  -0.000000  -0.000000   0.000000   0.000000
  103  C  1YYXZ  -0.000000  -0.000000  -0.000000   0.000000   0.000000
  104  C  1ZZXY  -0.000000  -0.000000  -0.000000   0.000000   0.000000

                     11         12         13         14         15
                    2.9576    15.9319     4.9073     4.9073     5.0871
                     A          A          A          A          A   
    1  C  1  S    0.000000   8.055082  -0.000000  -0.000000  -0.000000
    2  C  1  S    0.000000  -0.616367  -0.000000  -0.000000  -0.000000
    3  C  1  S    0.000000  -6.616871  -0.000000  -0.000000  -0.000000
    4  C  1  S    0.000000  -0.870623  -0.000000  -0.000000  -0.000000
    5  C  1  S    0.000000  -0.408195  -0.000000  -0.000000  -0.000000
    6  C  1  X    0.000000   0.000000   8.324546  -0.000000  -0.000000
    7  C  1  Y    0.000000   0.000000  -0.000000   8.324546  -0.000000
    8  C  1  Z    0.057003   0.000000  -0.000000  -0.000000   8.358631
    9  C  1  X    0.000000   0.000000  -4.711016  -0.000000  -0.000000
   10  C  1  Y    0.000000   0.000000  -0.000000  -4.711016  -0.000000
   11  C  1  Z   -0.029934   0.000000  -0.000000  -0.000000  -4.690827
   12  C  1  X    0.000000   0.000000  -2.316029  -0.000000  -0.000000
   13  C  1  Y    0.000000   0.000000  -0.000000  -2.316029  -0.000000
   14  C  1  Z   -0.003921   0.000000  -0.000000  -0.000000  -2.368426
   15  C  1  X    0.000000   0.000000  -2.959193  -0.000000  -0.000000
   16  C  1  Y    0.000000   0.000000  -0.000000  -2.959193  -0.000000
   17  C  1  Z   -0.029866   0.000000  -0.000000  -0.000000  -2.951548
   18  C  1  X    0.000000   0.000000   0.195441  -0.000000  -0.000000
   19  C  1  Y    0.000000   0.000000  -0.000000   0.195441  -0.000000
   20  C  1  Z    0.004973   0.000000  -0.000000  -0.000000   0.188423
   21  C  1 XX    0.000000   0.004962  -0.000000  -0.000000  -0.000000
   22  C  1 YY    0.000000   0.004962  -0.000000  -0.000000  -0.000000
   23  C  1 ZZ    0.000000  -0.009924  -0.000000  -0.000000  -0.000000
   24  C  1 XY    0.000000   0.000000  -0.000000  -0.000000  -0.000000
   25  C  1 XZ    0.000000   0.000000  -0.000000  -0.000000  -0.000000
   26  C  1 YZ    0.000000   0.000000  -0.000000  -0.000000  -0.000000
   27  C  1 XX    0.000000  -0.004098  -0.000000  -0.000000  -0.000000
   28  C  1 YY    0.000000  -0.004098  -0.000000  -0.000000  -0.000000
   29  C  1 ZZ    0.000000   0.008196  -0.000000  -0.000000  -0.000000
   30  C  1 XY    0.000000   0.000000  -0.000000  -0.000000  -0.000000
   31  C  1 XZ    0.000000   0.000000  -0.000000  -0.000000  -0.000000
   32  C  1 YZ    0.000000   0.000000  -0.000000  -0.000000  -0.000000
   33  C  1 XX    0.000000   0.002374  -0.000000  -0.000000  -0.000000
   34  C  1 YY    0.000000   0.002374  -0.000000  -0.000000  -0.000000
   35  C  1 ZZ    0.000000  -0.004749  -0.000000  -0.000000  -0.000000
   36  C  1 XY    0.000000   0.000000  -0.000000  -0.000000  -0.000000
   37  C  1 XZ    0.000000   0.000000  -0.000000  -0.000000  -0.000000
   38  C  1 YZ    0.000000   0.000000  -0.000000  -0.000000  -0.000000
   39  C  1 XX    0.000000  -0.000921  -0.000000  -0.000000  -0.000000
   40  C  1 YY    0.000000  -0.000921  -0.000000  -0.000000  -0.000000
   41  C  1 ZZ    0.000000   0.001843  -0.000000  -0.000000  -0.000000
   42  C  1 XY    0.000000   0.000000  -0.000000  -0.000000  -0.000000
   43  C  1 XZ    0.000000   0.000000  -0.000000  -0.000000  -0.000000
   44  C  1 YZ    0.000000   0.000000  -0.000000  -0.000000  -0.000000
   45  C  1 XXX   0.000000   0.000000  -0.003401  -0.000000  -0.000000
   46  C  1 YYY   0.000000   0.000000  -0.000000  -0.003401  -0.000000
   47  C  1 ZZZ  -6.063200   0.000000  -0.000000  -0.000000   0.008701
   48  C  1 XXY   0.000000   0.000000  -0.000000  -0.001523  -0.000000
   49  C  1 XXZ   4.067318   0.000000  -0.000000  -0.000000  -0.005837
   50  C  1 YYX   0.000000   0.000000  -0.001523  -0.000000  -0.000000
   51  C  1 YYZ   4.067318   0.000000  -0.000000  -0.000000  -0.005837
   52  C  1 ZZX   0.000000   0.000000   0.006086  -0.000000  -0.000000
   53  C  1 ZZY   0.000000   0.000000  -0.000000   0.006086  -0.000000
   54  C  1 XYZ   0.000000   0.000000  -0.000000  -0.000000  -0.000000
   55  C  1 XXX   0.000000   0.000000   0.002445  -0.000000  -0.000000
   56  C  1 YYY   0.000000   0.000000  -0.000000   0.002445  -0.000000
   57  C  1 ZZZ  -0.268154   0.000000  -0.000000  -0.000000  -0.009439
   58  C  1 XXY   0.000000   0.000000  -0.000000   0.001094  -0.000000
   59  C  1 XXZ   0.179883   0.000000  -0.000000  -0.000000   0.006332
   60  C  1 YYX   0.000000   0.000000   0.001094  -0.000000  -0.000000
   61  C  1 YYZ   0.179883   0.000000  -0.000000  -0.000000   0.006332
   62  C  1 ZZX   0.000000   0.000000  -0.004374  -0.000000  -0.000000
   63  C  1 ZZY   0.000000   0.000000  -0.000000  -0.004374  -0.000000
   64  C  1 XYZ   0.000000   0.000000  -0.000000  -0.000000  -0.000000
   65  C  1 XXX   0.000000   0.000000   0.002389  -0.000000  -0.000000
   66  C  1 YYY   0.000000   0.000000  -0.000000   0.002389  -0.000000
   67  C  1 ZZZ   6.737647   0.000000  -0.000000  -0.000000  -0.005030
   68  C  1 XXY   0.000000   0.000000  -0.000000   0.001070  -0.000000
   69  C  1 XXZ  -4.519751   0.000000  -0.000000  -0.000000   0.003374
   70  C  1 YYX   0.000000   0.000000   0.001070  -0.000000  -0.000000
   71  C  1 YYZ  -4.519751   0.000000  -0.000000  -0.000000   0.003374
   72  C  1 ZZX   0.000000   0.000000  -0.004275  -0.000000  -0.000000
   73  C  1 ZZY   0.000000   0.000000  -0.000000  -0.004275  -0.000000
   74  C  1 XYZ   0.000000   0.000000  -0.000000  -0.000000  -0.000000
   75  C  1XXXX   0.000000   0.000082  -0.000000  -0.000000  -0.000000
   76  C  1YYYY   0.000000   0.000082  -0.000000  -0.000000  -0.000000
   77  C  1ZZZZ   0.000000   0.000220  -0.000000  -0.000000  -0.000000
   78  C  1XXXY   0.000000   0.000000  -0.000000  -0.000000  -0.000000
   79  C  1XXXZ   0.000000   0.000000  -0.000000  -0.000000  -0.000000
   80  C  1YYYX   0.000000   0.000000  -0.000000  -0.000000  -0.000000
   81  C  1YYYZ   0.000000   0.000000  -0.000000  -0.000000  -0.000000
   82  C  1ZZZX   0.000000   0.000000  -0.000000  -0.000000  -0.000000
   83  C  1ZZZY   0.000000   0.000000  -0.000000  -0.000000  -0.000000
   84  C  1XXYY   0.000000   0.000048  -0.000000  -0.000000  -0.000000
   85  C  1XXZZ   0.000000  -0.000193  -0.000000  -0.000000  -0.000000
   86  C  1YYZZ   0.000000  -0.000193  -0.000000  -0.000000  -0.000000
   87  C  1XXYZ   0.000000   0.000000  -0.000000  -0.000000  -0.000000
   88  C  1YYXZ   0.000000   0.000000  -0.000000  -0.000000  -0.000000
   89  C  1ZZXY   0.000000   0.000000  -0.000000  -0.000000  -0.000000
   90  C  1XXXX   0.000000  -0.000055  -0.000000  -0.000000  -0.000000
   91  C  1YYYY   0.000000  -0.000055  -0.000000  -0.000000  -0.000000
   92  C  1ZZZZ   0.000000  -0.000147  -0.000000  -0.000000  -0.000000
   93  C  1XXXY   0.000000   0.000000  -0.000000  -0.000000  -0.000000
   94  C  1XXXZ   0.000000   0.000000  -0.000000  -0.000000  -0.000000
   95  C  1YYYX   0.000000   0.000000  -0.000000  -0.000000  -0.000000
   96  C  1YYYZ   0.000000   0.000000  -0.000000  -0.000000  -0.000000
   97  C  1ZZZX   0.000000   0.000000  -0.000000  -0.000000  -0.000000
   98  C  1ZZZY   0.000000   0.000000  -0.000000  -0.000000  -0.000000
   99  C  1XXYY   0.000000  -0.000032  -0.000000  -0.000000  -0.000000
  100  C  1XXZZ   0.000000   0.000129  -0.000000  -0.000000  -0.000000
  101  C  1YYZZ   0.000000   0.000129  -0.000000  -0.000000  -0.000000
  102  C  1XXYZ   0.000000   0.000000  -0.000000  -0.000000  -0.000000
  103  C  1YYXZ   0.000000   0.000000  -0.000000  -0.000000  -0.000000
  104  C  1ZZXY   0.000000   0.000000  -0.000000  -0.000000  -0.000000

                     16         17         18         19         20
                    0.3278     1.3014     1.3014     1.3746     1.9492
                     A          A          A          A          A   
    1  C  1  S   -0.549322   0.000000   0.000000  -0.000000   0.000000
    2  C  1  S    0.183781   0.000000   0.000000  -0.000000   0.000000
    3  C  1  S   -2.151929   0.000000   0.000000  -0.000000  -0.000000
    4  C  1  S    4.236944   0.000000   0.000000  -0.000000   0.000000
    5  C  1  S   -1.940915   0.000000   0.000000  -0.000000  -0.000000
    6  C  1  X   -0.000000   0.000000  -1.148843  -0.000000   0.000000
    7  C  1  Y   -0.000000  -1.148843   0.000000  -0.000000   0.000000
    8  C  1  Z   -0.000000   0.000000   0.000000  -1.032486   0.000000
    9  C  1  X   -0.000000   0.000000  -1.044629  -0.000000   0.000000
   10  C  1  Y   -0.000000  -1.044629   0.000000  -0.000000   0.000000
   11  C  1  Z   -0.000000   0.000000   0.000000  -1.130459   0.000000
   12  C  1  X   -0.000000   0.000000   2.887175  -0.000000   0.000000
   13  C  1  Y   -0.000000   2.887175   0.000000  -0.000000   0.000000
   14  C  1  Z   -0.000000   0.000000   0.000000   2.826187   0.000000
   15  C  1  X   -0.000000   0.000000  -1.270666  -0.000000   0.000000
   16  C  1  Y   -0.000000  -1.270665   0.000000  -0.000000   0.000000
   17  C  1  Z   -0.000000   0.000000   0.000000  -1.251844   0.000000
   18  C  1  X   -0.000000   0.000000   0.614777  -0.000000   0.000000
   19  C  1  Y   -0.000000   0.614777   0.000000  -0.000000   0.000000
   20  C  1  Z   -0.000000   0.000000   0.000000   0.592497   0.000000
   21  C  1 XX   -0.002297   0.000000   0.000000  -0.000000   0.025930
   22  C  1 YY   -0.002297   0.000000   0.000000  -0.000000  -0.025930
   23  C  1 ZZ    0.004593   0.000000   0.000000  -0.000000   0.000000
   24  C  1 XY   -0.000000   0.000000   0.000000  -0.000000   0.000000
   25  C  1 XZ   -0.000000   0.000000   0.000000  -0.000000   0.000000
   26  C  1 YZ   -0.000000   0.000000   0.000000  -0.000000   0.000000
   27  C  1 XX   -0.006307   0.000000   0.000000  -0.000000  -1.231093
   28  C  1 YY   -0.006307   0.000000   0.000000  -0.000000   1.231093
   29  C  1 ZZ    0.012615   0.000000   0.000000  -0.000000  -0.000000
   30  C  1 XY   -0.000000   0.000000   0.000000  -0.000000   0.000000
   31  C  1 XZ   -0.000000   0.000000   0.000000  -0.000000   0.000000
   32  C  1 YZ   -0.000000   0.000000   0.000000  -0.000000   0.000000
   33  C  1 XX    0.012798   0.000000   0.000000  -0.000000   1.132665
   34  C  1 YY    0.012798   0.000000   0.000000  -0.000000  -1.132665
   35  C  1 ZZ   -0.025595   0.000000   0.000000  -0.000000   0.000000
   36  C  1 XY   -0.000000   0.000000   0.000000  -0.000000   0.000000
   37  C  1 XZ   -0.000000   0.000000   0.000000  -0.000000   0.000000
   38  C  1 YZ   -0.000000   0.000000   0.000000  -0.000000   0.000000
   39  C  1 XX   -0.010651   0.000000   0.000000  -0.000000  -0.462632
   40  C  1 YY   -0.010651   0.000000   0.000000  -0.000000   0.462632
   41  C  1 ZZ    0.021303   0.000000   0.000000  -0.000000  -0.000000
   42  C  1 XY   -0.000000   0.000000   0.000000  -0.000000   0.000000
   43  C  1 XZ   -0.000000   0.000000   0.000000  -0.000000   0.000000
   44  C  1 YZ   -0.000000   0.000000   0.000000  -0.000000   0.000000
   45  C  1 XXX  -0.000000   0.000000  -0.094764  -0.000000   0.000000
   46  C  1 YYY  -0.000000  -0.094764   0.000000  -0.000000   0.000000
   47  C  1 ZZZ  -0.000000   0.000000   0.000000   0.241749   0.000000
   48  C  1 XXY  -0.000000  -0.042379   0.000000  -0.000000   0.000000
   49  C  1 XXZ  -0.000000   0.000000   0.000000  -0.162170   0.000000
   50  C  1 YYX  -0.000000   0.000000  -0.042379  -0.000000   0.000000
   51  C  1 YYZ  -0.000000   0.000000   0.000000  -0.162170   0.000000
   52  C  1 ZZX  -0.000000   0.000000   0.169517  -0.000000   0.000000
   53  C  1 ZZY  -0.000000   0.169517   0.000000  -0.000000   0.000000
   54  C  1 XYZ  -0.000000   0.000000   0.000000  -0.000000   0.000000
   55  C  1 XXX  -0.000000   0.000000  -0.007406  -0.000000   0.000000
   56  C  1 YYY  -0.000000  -0.007406   0.000000  -0.000000   0.000000
   57  C  1 ZZZ  -0.000000   0.000000   0.000000   0.023756   0.000000
   58  C  1 XXY  -0.000000  -0.003312   0.000000  -0.000000   0.000000
   59  C  1 XXZ  -0.000000   0.000000   0.000000  -0.015936   0.000000
   60  C  1 YYX  -0.000000   0.000000  -0.003312  -0.000000   0.000000
   61  C  1 YYZ  -0.000000   0.000000   0.000000  -0.015936   0.000000
   62  C  1 ZZX  -0.000000   0.000000   0.013248  -0.000000   0.000000
   63  C  1 ZZY  -0.000000   0.013248   0.000000  -0.000000   0.000000
   64  C  1 XYZ  -0.000000   0.000000   0.000000  -0.000000   0.000000
   65  C  1 XXX  -0.000000   0.000000   0.083339  -0.000000   0.000000
   66  C  1 YYY  -0.000000   0.083339   0.000000  -0.000000   0.000000
   67  C  1 ZZZ  -0.000000   0.000000   0.000000  -0.219952   0.000000
   68  C  1 XXY  -0.000000   0.037271   0.000000  -0.000000   0.000000
   69  C  1 XXZ  -0.000000   0.000000   0.000000   0.147548   0.000000
   70  C  1 YYX  -0.000000   0.000000   0.037271  -0.000000   0.000000
   71  C  1 YYZ  -0.000000   0.000000   0.000000   0.147548   0.000000
   72  C  1 ZZX  -0.000000   0.000000  -0.149082  -0.000000   0.000000
   73  C  1 ZZY  -0.000000  -0.149082   0.000000  -0.000000   0.000000
   74  C  1 XYZ  -0.000000   0.000000   0.000000  -0.000000   0.000000
   75  C  1XXXX   0.000478   0.000000   0.000000  -0.000000  -0.001221
   76  C  1YYYY   0.000478   0.000000   0.000000  -0.000000   0.001221
   77  C  1ZZZZ   0.001275   0.000000   0.000000  -0.000000   0.000000
   78  C  1XXXY  -0.000000   0.000000   0.000000  -0.000000   0.000000
   79  C  1XXXZ  -0.000000   0.000000   0.000000  -0.000000   0.000000
   80  C  1YYYX  -0.000000   0.000000   0.000000  -0.000000   0.000000
   81  C  1YYYZ  -0.000000   0.000000   0.000000  -0.000000   0.000000
   82  C  1ZZZX  -0.000000   0.000000   0.000000  -0.000000   0.000000
   83  C  1ZZZY  -0.000000   0.000000   0.000000  -0.000000   0.000000
   84  C  1XXYY   0.000280   0.000000   0.000000  -0.000000  -0.000000
   85  C  1XXZZ  -0.001120   0.000000   0.000000  -0.000000   0.002144
   86  C  1YYZZ  -0.001120   0.000000   0.000000  -0.000000  -0.002144
   87  C  1XXYZ  -0.000000   0.000000   0.000000  -0.000000   0.000000
   88  C  1YYXZ  -0.000000   0.000000   0.000000  -0.000000   0.000000
   89  C  1ZZXY  -0.000000   0.000000   0.000000  -0.000000   0.000000
   90  C  1XXXX  -0.000744   0.000000   0.000000  -0.000000  -0.003068
   91  C  1YYYY  -0.000744   0.000000   0.000000  -0.000000   0.003068
   92  C  1ZZZZ  -0.001984   0.000000   0.000000  -0.000000  -0.000000
   93  C  1XXXY  -0.000000   0.000000   0.000000  -0.000000   0.000000
   94  C  1XXXZ  -0.000000   0.000000   0.000000  -0.000000   0.000000
   95  C  1YYYX  -0.000000   0.000000   0.000000  -0.000000   0.000000
   96  C  1YYYZ  -0.000000   0.000000   0.000000  -0.000000   0.000000
   97  C  1ZZZX  -0.000000   0.000000   0.000000  -0.000000   0.000000
   98  C  1ZZZY  -0.000000   0.000000   0.000000  -0.000000   0.000000
   99  C  1XXYY  -0.000436   0.000000   0.000000  -0.000000   0.000000
  100  C  1XXZZ   0.001743   0.000000   0.000000  -0.000000   0.005390
  101  C  1YYZZ   0.001743   0.000000   0.000000  -0.000000  -0.005390
  102  C  1XXYZ  -0.000000   0.000000   0.000000  -0.000000   0.000000
  103  C  1YYXZ  -0.000000   0.000000   0.000000  -0.000000   0.000000
  104  C  1ZZXY  -0.000000   0.000000   0.000000  -0.000000   0.000000

                     21         22         23         24         25
                    2.0001     1.9492     1.9713     1.9713     1.7453
                     A          A          A          A          A   
    1  C  1  S    0.193505  -0.000000  -0.000000  -0.000000  -3.042607
    2  C  1  S    0.124525  -0.000000  -0.000000  -0.000000  -2.046134
    3  C  1  S   -0.357237  -0.000000  -0.000000  -0.000000   6.123757
    4  C  1  S    0.101268  -0.000000  -0.000000  -0.000000  -2.361015
    5  C  1  S   -0.047953  -0.000000  -0.000000  -0.000000   1.009520
    6  C  1  X    0.000000  -0.000000  -0.000000  -0.000000  -0.000000
    7  C  1  Y    0.000000  -0.000000  -0.000000  -0.000000  -0.000000
    8  C  1  Z    0.000000  -0.000000  -0.000000  -0.000000  -0.000000
    9  C  1  X    0.000000  -0.000000  -0.000000  -0.000000  -0.000000
   10  C  1  Y    0.000000  -0.000000  -0.000000  -0.000000  -0.000000
   11  C  1  Z    0.000000  -0.000000  -0.000000  -0.000000  -0.000000
   12  C  1  X    0.000000  -0.000000  -0.000000  -0.000000  -0.000000
   13  C  1  Y    0.000000  -0.000000  -0.000000  -0.000000  -0.000000
   14  C  1  Z    0.000000  -0.000000  -0.000000  -0.000000  -0.000000
   15  C  1  X    0.000000  -0.000000  -0.000000  -0.000000  -0.000000
   16  C  1  Y    0.000000  -0.000000  -0.000000  -0.000000  -0.000000
   17  C  1  Z    0.000000  -0.000000  -0.000000  -0.000000  -0.000000
   18  C  1  X    0.000000  -0.000000  -0.000000  -0.000000  -0.000000
   19  C  1  Y    0.000000  -0.000000  -0.000000  -0.000000  -0.000000
   20  C  1  Z    0.000000  -0.000000  -0.000000  -0.000000  -0.000000
   21  C  1 XX    0.020723  -0.000000  -0.000000  -0.000000  -0.008865
   22  C  1 YY    0.020723  -0.000000  -0.000000  -0.000000  -0.008865
   23  C  1 ZZ   -0.041445  -0.000000  -0.000000  -0.000000   0.017731
   24  C  1 XY    0.000000  -0.029941  -0.000000  -0.000000  -0.000000
   25  C  1 XZ    0.000000  -0.000000  -0.034461  -0.000000  -0.000000
   26  C  1 YZ    0.000000  -0.000000  -0.000000  -0.034461  -0.000000
   27  C  1 XX   -0.714492  -0.000000  -0.000000  -0.000000  -0.035237
   28  C  1 YY   -0.714492  -0.000000  -0.000000  -0.000000  -0.035237
   29  C  1 ZZ    1.428984  -0.000000  -0.000000  -0.000000   0.070474
   30  C  1 XY    0.000000   1.421544  -0.000000  -0.000000  -0.000000
   31  C  1 XZ    0.000000  -0.000000   1.425589  -0.000000  -0.000000
   32  C  1 YZ    0.000000  -0.000000  -0.000000   1.425589  -0.000000
   33  C  1 XX    0.648479  -0.000000  -0.000000  -0.000000   0.033450
   34  C  1 YY    0.648479  -0.000000  -0.000000  -0.000000   0.033450
   35  C  1 ZZ   -1.296958  -0.000000  -0.000000  -0.000000  -0.066901
   36  C  1 XY    0.000000  -1.307888  -0.000000  -0.000000  -0.000000
   37  C  1 XZ    0.000000  -0.000000  -1.304448  -0.000000  -0.000000
   38  C  1 YZ    0.000000  -0.000000  -0.000000  -1.304448  -0.000000
   39  C  1 XX   -0.264029  -0.000000  -0.000000  -0.000000  -0.013524
   40  C  1 YY   -0.264029  -0.000000  -0.000000  -0.000000  -0.013524
   41  C  1 ZZ    0.528059  -0.000000  -0.000000  -0.000000   0.027048
   42  C  1 XY    0.000000   0.534201  -0.000000  -0.000000  -0.000000
   43  C  1 XZ    0.000000  -0.000000   0.532032  -0.000000  -0.000000
   44  C  1 YZ    0.000000  -0.000000  -0.000000   0.532032  -0.000000
   45  C  1 XXX   0.000000  -0.000000  -0.000000  -0.000000  -0.000000
   46  C  1 YYY   0.000000  -0.000000  -0.000000  -0.000000  -0.000000
   47  C  1 ZZZ   0.000000  -0.000000  -0.000000  -0.000000  -0.000000
   48  C  1 XXY   0.000000  -0.000000  -0.000000  -0.000000  -0.000000
   49  C  1 XXZ   0.000000  -0.000000  -0.000000  -0.000000  -0.000000
   50  C  1 YYX   0.000000  -0.000000  -0.000000  -0.000000  -0.000000
   51  C  1 YYZ   0.000000  -0.000000  -0.000000  -0.000000  -0.000000
   52  C  1 ZZX   0.000000  -0.000000  -0.000000  -0.000000  -0.000000
   53  C  1 ZZY   0.000000  -0.000000  -0.000000  -0.000000  -0.000000
   54  C  1 XYZ   0.000000  -0.000000  -0.000000  -0.000000  -0.000000
   55  C  1 XXX   0.000000  -0.000000  -0.000000  -0.000000  -0.000000
   56  C  1 YYY   0.000000  -0.000000  -0.000000  -0.000000  -0.000000
   57  C  1 ZZZ   0.000000  -0.000000  -0.000000  -0.000000  -0.000000
   58  C  1 XXY   0.000000  -0.000000  -0.000000  -0.000000  -0.000000
   59  C  1 XXZ   0.000000  -0.000000  -0.000000  -0.000000  -0.000000
   60  C  1 YYX   0.000000  -0.000000  -0.000000  -0.000000  -0.000000
   61  C  1 YYZ   0.000000  -0.000000  -0.000000  -0.000000  -0.000000
   62  C  1 ZZX   0.000000  -0.000000  -0.000000  -0.000000  -0.000000
   63  C  1 ZZY   0.000000  -0.000000  -0.000000  -0.000000  -0.000000
   64  C  1 XYZ   0.000000  -0.000000  -0.000000  -0.000000  -0.000000
   65  C  1 XXX   0.000000  -0.000000  -0.000000  -0.000000  -0.000000
   66  C  1 YYY   0.000000  -0.000000  -0.000000  -0.000000  -0.000000
   67  C  1 ZZZ   0.000000  -0.000000  -0.000000  -0.000000  -0.000000
   68  C  1 XXY   0.000000  -0.000000  -0.000000  -0.000000  -0.000000
   69  C  1 XXZ   0.000000  -0.000000  -0.000000  -0.000000  -0.000000
   70  C  1 YYX   0.000000  -0.000000  -0.000000  -0.000000  -0.000000
   71  C  1 YYZ   0.000000  -0.000000  -0.000000  -0.000000  -0.000000
   72  C  1 ZZX   0.000000  -0.000000  -0.000000  -0.000000  -0.000000
   73  C  1 ZZY   0.000000  -0.000000  -0.000000  -0.000000  -0.000000
   74  C  1 XYZ   0.000000  -0.000000  -0.000000  -0.000000  -0.000000
   75  C  1XXXX  -0.004472  -0.000000  -0.000000  -0.000000   0.002095
   76  C  1YYYY  -0.004472  -0.000000  -0.000000  -0.000000   0.002095
   77  C  1ZZZZ  -0.011926  -0.000000  -0.000000  -0.000000   0.005589
   78  C  1XXXY   0.000000   0.000923  -0.000000  -0.000000  -0.000000
   79  C  1XXXZ   0.000000  -0.000000   0.006322  -0.000000  -0.000000
   80  C  1YYYX   0.000000   0.000923  -0.000000  -0.000000  -0.000000
   81  C  1YYYZ   0.000000  -0.000000  -0.000000   0.006322  -0.000000
   82  C  1ZZZX   0.000000  -0.000000  -0.008429  -0.000000  -0.000000
   83  C  1ZZZY   0.000000  -0.000000  -0.000000  -0.008429  -0.000000
   84  C  1XXYY  -0.002619  -0.000000  -0.000000  -0.000000   0.001228
   85  C  1XXZZ   0.010475  -0.000000  -0.000000  -0.000000  -0.004909
   86  C  1YYZZ   0.010475  -0.000000  -0.000000  -0.000000  -0.004909
   87  C  1XXYZ   0.000000  -0.000000  -0.000000   0.002827  -0.000000
   88  C  1YYXZ   0.000000  -0.000000   0.002827  -0.000000  -0.000000
   89  C  1ZZXY   0.000000  -0.002476  -0.000000  -0.000000  -0.000000
   90  C  1XXXX   0.001585  -0.000000  -0.000000  -0.000000  -0.015266
   91  C  1YYYY   0.001585  -0.000000  -0.000000  -0.000000  -0.015266
   92  C  1ZZZZ   0.004227  -0.000000  -0.000000  -0.000000  -0.040723
   93  C  1XXXY   0.000000   0.002319  -0.000000  -0.000000  -0.000000
   94  C  1XXXZ   0.000000  -0.000000   0.001623  -0.000000  -0.000000
   95  C  1YYYX   0.000000   0.002319  -0.000000  -0.000000  -0.000000
   96  C  1YYYZ   0.000000  -0.000000  -0.000000   0.001623  -0.000000
   97  C  1ZZZX   0.000000  -0.000000  -0.002164  -0.000000  -0.000000
   98  C  1ZZZY   0.000000  -0.000000  -0.000000  -0.002164  -0.000000
   99  C  1XXYY   0.000928  -0.000000  -0.000000  -0.000000  -0.008950
  100  C  1XXZZ  -0.003713  -0.000000  -0.000000  -0.000000   0.035767
  101  C  1YYZZ  -0.003713  -0.000000  -0.000000  -0.000000   0.035767
  102  C  1XXYZ   0.000000  -0.000000  -0.000000   0.000726  -0.000000
  103  C  1YYXZ   0.000000  -0.000000   0.000726  -0.000000  -0.000000
  104  C  1ZZXY   0.000000  -0.006223  -0.000000  -0.000000  -0.000000

                     26         27         28         29         30
                    0.3346     0.3054     0.3054     5.5185     5.4930
                     A          A          A          A          A   
    1  C  1  S    0.000000  -0.000000  -0.000000  -0.000359   0.000000
    2  C  1  S    0.000000  -0.000000  -0.000000   0.000319  -0.000000
    3  C  1  S    0.000000  -0.000000  -0.000000   0.002594  -0.000000
    4  C  1  S    0.000000  -0.000000  -0.000000  -0.002861  -0.000000
    5  C  1  S    0.000000  -0.000000  -0.000000   0.000797  -0.000000
    6  C  1  X    0.000000  -0.000000  -0.957633   0.000000  -0.000000
    7  C  1  Y    0.000000  -0.957634  -0.000000   0.000000  -0.000000
    8  C  1  Z   -0.885726  -0.000000  -0.000000   0.000000  -0.000000
    9  C  1  X    0.000000  -0.000000   0.161352   0.000000  -0.000000
   10  C  1  Y    0.000000   0.161352  -0.000000   0.000000  -0.000000
   11  C  1  Z    0.160078  -0.000000  -0.000000   0.000000  -0.000000
   12  C  1  X    0.000000  -0.000000  -0.402265   0.000000  -0.000000
   13  C  1  Y    0.000000  -0.402265  -0.000000   0.000000  -0.000000
   14  C  1  Z   -0.512273  -0.000000  -0.000000   0.000000  -0.000000
   15  C  1  X    0.000000  -0.000000   2.380720   0.000000  -0.000000
   16  C  1  Y    0.000000   2.380720  -0.000000   0.000000  -0.000000
   17  C  1  Z    2.386865  -0.000000  -0.000000   0.000000  -0.000000
   18  C  1  X    0.000000  -0.000000  -1.224762   0.000000  -0.000000
   19  C  1  Y    0.000000  -1.224760  -0.000000   0.000000  -0.000000
   20  C  1  Z   -1.195247  -0.000000  -0.000000   0.000000  -0.000000
   21  C  1 XX    0.000000  -0.000000  -0.000000   0.007057  -0.003546
   22  C  1 YY    0.000000  -0.000000  -0.000000   0.007057   0.003546
   23  C  1 ZZ    0.000000  -0.000000  -0.000000  -0.014113   0.000000
   24  C  1 XY    0.000000  -0.000000  -0.000000   0.000000  -0.000000
   25  C  1 XZ    0.000000  -0.000000  -0.000000   0.000000  -0.000000
   26  C  1 YZ    0.000000  -0.000000  -0.000000   0.000000  -0.000000
   27  C  1 XX    0.000000  -0.000000  -0.000000  -0.013184   0.006341
   28  C  1 YY    0.000000  -0.000000  -0.000000  -0.013184  -0.006341
   29  C  1 ZZ    0.000000  -0.000000  -0.000000   0.026367  -0.000000
   30  C  1 XY    0.000000  -0.000000  -0.000000   0.000000  -0.000000
   31  C  1 XZ    0.000000  -0.000000  -0.000000   0.000000  -0.000000
   32  C  1 YZ    0.000000  -0.000000  -0.000000   0.000000  -0.000000
   33  C  1 XX    0.000000  -0.000000  -0.000000   0.007490  -0.003711
   34  C  1 YY    0.000000  -0.000000  -0.000000   0.007490   0.003711
   35  C  1 ZZ    0.000000  -0.000000  -0.000000  -0.014980   0.000000
   36  C  1 XY    0.000000  -0.000000  -0.000000   0.000000  -0.000000
   37  C  1 XZ    0.000000  -0.000000  -0.000000   0.000000  -0.000000
   38  C  1 YZ    0.000000  -0.000000  -0.000000   0.000000  -0.000000
   39  C  1 XX    0.000000  -0.000000  -0.000000  -0.002688   0.001333
   40  C  1 YY    0.000000  -0.000000  -0.000000  -0.002688  -0.001333
   41  C  1 ZZ    0.000000  -0.000000  -0.000000   0.005376  -0.000000
   42  C  1 XY    0.000000  -0.000000  -0.000000   0.000000  -0.000000
   43  C  1 XZ    0.000000  -0.000000  -0.000000   0.000000  -0.000000
   44  C  1 YZ    0.000000  -0.000000  -0.000000   0.000000  -0.000000
   45  C  1 XXX   0.000000  -0.000000   0.009522   0.000000  -0.000000
   46  C  1 YYY   0.000000   0.009522  -0.000000   0.000000  -0.000000
   47  C  1 ZZZ  -0.026567  -0.000000  -0.000000   0.000000  -0.000000
   48  C  1 XXY   0.000000   0.004256  -0.000000   0.000000  -0.000000
   49  C  1 XXZ   0.017822  -0.000000  -0.000000   0.000000  -0.000000
   50  C  1 YYX   0.000000  -0.000000   0.004256   0.000000  -0.000000
   51  C  1 YYZ   0.017822  -0.000000  -0.000000   0.000000  -0.000000
   52  C  1 ZZX   0.000000  -0.000000  -0.017032   0.000000  -0.000000
   53  C  1 ZZY   0.000000  -0.017032  -0.000000   0.000000  -0.000000
   54  C  1 XYZ   0.000000  -0.000000  -0.000000   0.000000  -0.000000
   55  C  1 XXX   0.000000  -0.000000  -0.001210   0.000000  -0.000000
   56  C  1 YYY   0.000000  -0.001210  -0.000000   0.000000  -0.000000
   57  C  1 ZZZ   0.005019  -0.000000  -0.000000   0.000000  -0.000000
   58  C  1 XXY   0.000000  -0.000541  -0.000000   0.000000  -0.000000
   59  C  1 XXZ  -0.003367  -0.000000  -0.000000   0.000000  -0.000000
   60  C  1 YYX   0.000000  -0.000000  -0.000541   0.000000  -0.000000
   61  C  1 YYZ  -0.003367  -0.000000  -0.000000   0.000000  -0.000000
   62  C  1 ZZX   0.000000  -0.000000   0.002165   0.000000  -0.000000
   63  C  1 ZZY   0.000000   0.002165  -0.000000   0.000000  -0.000000
   64  C  1 XYZ   0.000000  -0.000000  -0.000000   0.000000  -0.000000
   65  C  1 XXX   0.000000  -0.000000  -0.007888   0.000000  -0.000000
   66  C  1 YYY   0.000000  -0.007888  -0.000000   0.000000  -0.000000
   67  C  1 ZZZ   0.022584  -0.000000  -0.000000   0.000000  -0.000000
   68  C  1 XXY   0.000000  -0.003525  -0.000000   0.000000  -0.000000
   69  C  1 XXZ  -0.015150  -0.000000  -0.000000   0.000000  -0.000000
   70  C  1 YYX   0.000000  -0.000000  -0.003525   0.000000  -0.000000
   71  C  1 YYZ  -0.015150  -0.000000  -0.000000   0.000000  -0.000000
   72  C  1 ZZX   0.000000  -0.000000   0.014107   0.000000  -0.000000
   73  C  1 ZZY   0.000000   0.014107  -0.000000   0.000000  -0.000000
   74  C  1 XYZ   0.000000  -0.000000  -0.000000   0.000000  -0.000000
   75  C  1XXXX   0.000000  -0.000000  -0.000000   0.453370  -0.676006
   76  C  1YYYY   0.000000  -0.000000  -0.000000   0.453370   0.676006
   77  C  1ZZZZ   0.000000  -0.000000  -0.000000   1.208986  -0.000000
   78  C  1XXXY   0.000000  -0.000000  -0.000000   0.000000  -0.000000
   79  C  1XXXZ   0.000000  -0.000000  -0.000000   0.000000  -0.000000
   80  C  1YYYX   0.000000  -0.000000  -0.000000   0.000000  -0.000000
   81  C  1YYYZ   0.000000  -0.000000  -0.000000   0.000000  -0.000000
   82  C  1ZZZX   0.000000  -0.000000  -0.000000   0.000000  -0.000000
   83  C  1ZZZY   0.000000  -0.000000  -0.000000   0.000000  -0.000000
   84  C  1XXYY   0.000000  -0.000000  -0.000000   0.265467   0.000000
   85  C  1XXZZ   0.000000  -0.000000  -0.000000  -1.061865   1.187485
   86  C  1YYZZ   0.000000  -0.000000  -0.000000  -1.061865  -1.187485
   87  C  1XXYZ   0.000000  -0.000000  -0.000000   0.000000  -0.000000
   88  C  1YYXZ   0.000000  -0.000000  -0.000000   0.000000  -0.000000
   89  C  1ZZXY   0.000000  -0.000000  -0.000000   0.000000  -0.000000
   90  C  1XXXX   0.000000  -0.000000  -0.000000  -0.210758   0.314859
   91  C  1YYYY   0.000000  -0.000000  -0.000000  -0.210758  -0.314859
   92  C  1ZZZZ   0.000000  -0.000000  -0.000000  -0.562021   0.000000
   93  C  1XXXY   0.000000  -0.000000  -0.000000   0.000000  -0.000000
   94  C  1XXXZ   0.000000  -0.000000  -0.000000   0.000000  -0.000000
   95  C  1YYYX   0.000000  -0.000000  -0.000000   0.000000  -0.000000
   96  C  1YYYZ   0.000000  -0.000000  -0.000000   0.000000  -0.000000
   97  C  1ZZZX   0.000000  -0.000000  -0.000000   0.000000  -0.000000
   98  C  1ZZZY   0.000000  -0.000000  -0.000000   0.000000  -0.000000
   99  C  1XXYY   0.000000  -0.000000  -0.000000  -0.123407  -0.000000
  100  C  1XXZZ   0.000000  -0.000000  -0.000000   0.493629  -0.553087
  101  C  1YYZZ   0.000000  -0.000000  -0.000000   0.493629   0.553087
  102  C  1XXYZ   0.000000  -0.000000  -0.000000   0.000000  -0.000000
  103  C  1YYXZ   0.000000  -0.000000  -0.000000   0.000000  -0.000000
  104  C  1ZZXY   0.000000  -0.000000  -0.000000   0.000000  -0.000000

                     31         32         33         34         35
                    5.4699     5.4791     5.4791     5.4930     5.5085
                     A          A          A          A          A   
    1  C  1  S   -0.000001   0.000000   0.000000   0.000000  -0.000000
    2  C  1  S   -0.000000   0.000000   0.000000   0.000000  -0.000000
    3  C  1  S    0.000001   0.000000   0.000000   0.000000  -0.000000
    4  C  1  S   -0.000000   0.000000   0.000000   0.000000  -0.000000
    5  C  1  S    0.000000   0.000000   0.000000   0.000000  -0.000000
    6  C  1  X   -0.000000   0.000000   0.000000   0.000000  -0.000000
    7  C  1  Y   -0.000000   0.000000   0.000000   0.000000  -0.000000
    8  C  1  Z   -0.000000   0.000000   0.000000   0.000000  -0.000000
    9  C  1  X   -0.000000   0.000000   0.000000   0.000000  -0.000000
   10  C  1  Y   -0.000000   0.000000   0.000000   0.000000  -0.000000
   11  C  1  Z   -0.000000   0.000000   0.000000   0.000000  -0.000000
   12  C  1  X   -0.000000   0.000000   0.000000   0.000000  -0.000000
   13  C  1  Y   -0.000000   0.000000   0.000000   0.000000  -0.000000
   14  C  1  Z   -0.000000   0.000000   0.000000   0.000000  -0.000000
   15  C  1  X   -0.000000   0.000000   0.000000   0.000000  -0.000000
   16  C  1  Y   -0.000000   0.000000   0.000000   0.000000  -0.000000
   17  C  1  Z   -0.000000   0.000000   0.000000   0.000000  -0.000000
   18  C  1  X   -0.000000   0.000000   0.000000   0.000000  -0.000000
   19  C  1  Y   -0.000000   0.000000   0.000000   0.000000  -0.000000
   20  C  1  Z   -0.000000   0.000000   0.000000   0.000000  -0.000000
   21  C  1 XX    0.000000   0.000000   0.000000   0.000000  -0.000000
   22  C  1 YY    0.000000   0.000000   0.000000   0.000000  -0.000000
   23  C  1 ZZ   -0.000000   0.000000   0.000000   0.000000  -0.000000
   24  C  1 XY   -0.000000   0.000000   0.000000  -0.004094  -0.000000
   25  C  1 XZ   -0.000000   0.000000   0.000000   0.000000  -0.009148
   26  C  1 YZ   -0.000000   0.000000   0.000000   0.000000  -0.000000
   27  C  1 XX   -0.000000   0.000000   0.000000   0.000000  -0.000000
   28  C  1 YY   -0.000000   0.000000   0.000000   0.000000  -0.000000
   29  C  1 ZZ    0.000000   0.000000   0.000000   0.000000  -0.000000
   30  C  1 XY   -0.000000   0.000000   0.000000   0.007322  -0.000000
   31  C  1 XZ   -0.000000  -0.000000   0.000000   0.000000   0.017139
   32  C  1 YZ   -0.000000   0.000000  -0.000000   0.000000  -0.000000
   33  C  1 XX    0.000000   0.000000   0.000000   0.000000  -0.000000
   34  C  1 YY    0.000000   0.000000   0.000000   0.000000  -0.000000
   35  C  1 ZZ   -0.000000   0.000000   0.000000   0.000000  -0.000000
   36  C  1 XY   -0.000000   0.000000   0.000000  -0.004285  -0.000000
   37  C  1 XZ   -0.000000   0.000000   0.000000   0.000000  -0.009828
   38  C  1 YZ   -0.000000   0.000000   0.000000   0.000000  -0.000000
   39  C  1 XX    0.000000   0.000000   0.000000   0.000000  -0.000000
   40  C  1 YY    0.000000   0.000000   0.000000   0.000000  -0.000000
   41  C  1 ZZ   -0.000000   0.000000   0.000000   0.000000  -0.000000
   42  C  1 XY   -0.000000   0.000000   0.000000   0.001539  -0.000000
   43  C  1 XZ   -0.000000   0.000000   0.000000   0.000000   0.003528
   44  C  1 YZ   -0.000000   0.000000   0.000000   0.000000  -0.000000
   45  C  1 XXX  -0.000000   0.000000   0.000000   0.000000  -0.000000
   46  C  1 YYY  -0.000000   0.000000   0.000000   0.000000  -0.000000
   47  C  1 ZZZ  -0.000000   0.000000   0.000000   0.000000  -0.000000
   48  C  1 XXY  -0.000000   0.000000   0.000000   0.000000  -0.000000
   49  C  1 XXZ  -0.000000   0.000000   0.000000   0.000000  -0.000000
   50  C  1 YYX  -0.000000   0.000000   0.000000   0.000000  -0.000000
   51  C  1 YYZ  -0.000000   0.000000   0.000000   0.000000  -0.000000
   52  C  1 ZZX  -0.000000   0.000000   0.000000   0.000000  -0.000000
   53  C  1 ZZY  -0.000000   0.000000   0.000000   0.000000  -0.000000
   54  C  1 XYZ  -0.000000   0.000000   0.000000   0.000000  -0.000000
   55  C  1 XXX  -0.000000   0.000000   0.000000   0.000000  -0.000000
   56  C  1 YYY  -0.000000   0.000000   0.000000   0.000000  -0.000000
   57  C  1 ZZZ  -0.000000   0.000000   0.000000   0.000000  -0.000000
   58  C  1 XXY  -0.000000   0.000000   0.000000   0.000000  -0.000000
   59  C  1 XXZ  -0.000000   0.000000   0.000000   0.000000  -0.000000
   60  C  1 YYX  -0.000000   0.000000   0.000000   0.000000  -0.000000
   61  C  1 YYZ  -0.000000   0.000000   0.000000   0.000000  -0.000000
   62  C  1 ZZX  -0.000000   0.000000   0.000000   0.000000  -0.000000
   63  C  1 ZZY  -0.000000   0.000000   0.000000   0.000000  -0.000000
   64  C  1 XYZ  -0.000000   0.000000   0.000000   0.000000  -0.000000
   65  C  1 XXX  -0.000000   0.000000   0.000000   0.000000  -0.000000
   66  C  1 YYY  -0.000000   0.000000   0.000000   0.000000  -0.000000
   67  C  1 ZZZ  -0.000000   0.000000   0.000000   0.000000  -0.000000
   68  C  1 XXY  -0.000000   0.000000   0.000000   0.000000  -0.000000
[...]
   64  C  1 XYZ   0.000000   0.000000   0.000000  -0.000000   0.000000
   65  C  1 XXX   0.000000   0.000000   0.000000  -0.000000   2.148819
   66  C  1 YYY   0.000000   0.000000   0.000000   2.756230   0.000000
   67  C  1 ZZZ   0.000000   0.000000   0.000000  -0.000000   0.000000
   68  C  1 XXY   0.000000   0.000000   0.000000  -3.697880   0.000000
   69  C  1 XXZ   0.000000   0.000000  -3.026704  -0.000000   0.000000
   70  C  1 YYX   0.000000   0.000000   0.000000  -0.000000   0.960971
   71  C  1 YYZ   0.000000   0.000000   3.026704  -0.000000   0.000000
   72  C  1 ZZX   0.000000   0.000000   0.000000  -0.000000  -3.843914
   73  C  1 ZZY   0.000000   0.000000   0.000000   0.000009   0.000000
   74  C  1 XYZ   0.000000   0.000000   0.000000  -0.000000   0.000000
   75  C  1XXXX   0.000000   0.000000   0.000000  -0.000000   0.000000
   76  C  1YYYY   0.000000   0.000000   0.000000  -0.000000   0.000000
   77  C  1ZZZZ   0.000000   0.000000   0.000000  -0.000000   0.000000
   78  C  1XXXY   0.000000   0.000094   0.000000  -0.000000   0.000000
   79  C  1XXXZ   0.000000   0.000000   0.000000  -0.000000   0.000000
   80  C  1YYYX   0.000000   0.000094   0.000000  -0.000000   0.000000
   81  C  1YYYZ   0.000798   0.000000   0.000000  -0.000000   0.000000
   82  C  1ZZZX   0.000000   0.000000   0.000000  -0.000000   0.000000
   83  C  1ZZZY  -0.001065   0.000000   0.000000  -0.000000   0.000000
   84  C  1XXYY   0.000000   0.000000   0.000000  -0.000000   0.000000
   85  C  1XXZZ   0.000000   0.000000   0.000000  -0.000000   0.000000
   86  C  1YYZZ   0.000000   0.000000   0.000000  -0.000000   0.000000
   87  C  1XXYZ   0.000357   0.000000   0.000000  -0.000000   0.000000
   88  C  1YYXZ   0.000000   0.000000   0.000000  -0.000000   0.000000
   89  C  1ZZXY   0.000000  -0.000253   0.000000  -0.000000   0.000000
   90  C  1XXXX   0.000000   0.000000   0.000000  -0.000000   0.000000
   91  C  1YYYY   0.000000   0.000000   0.000000  -0.000000   0.000000
   92  C  1ZZZZ   0.000000   0.000000   0.000000  -0.000000   0.000000
   93  C  1XXXY   0.000000   0.001969   0.000000  -0.000000   0.000000
   94  C  1XXXZ   0.000000   0.000000   0.000000  -0.000000   0.000000
   95  C  1YYYX   0.000000   0.001969   0.000000  -0.000000   0.000000
   96  C  1YYYZ   0.009103   0.000000   0.000000  -0.000000   0.000000
   97  C  1ZZZX   0.000000   0.000000   0.000000  -0.000000   0.000000
   98  C  1ZZZY  -0.012137   0.000000   0.000000  -0.000000   0.000000
   99  C  1XXYY   0.000000   0.000000   0.000000  -0.000000   0.000000
  100  C  1XXZZ   0.000000   0.000000   0.000000  -0.000000   0.000000
  101  C  1YYZZ   0.000000   0.000000   0.000000  -0.000000   0.000000
  102  C  1XXYZ   0.004071   0.000000   0.000000  -0.000000   0.000000
  103  C  1YYXZ   0.000000   0.000000   0.000000  -0.000000   0.000000
  104  C  1ZZXY   0.000000  -0.005284   0.000000  -0.000000   0.000000

                     76         77         78         79
                    1.1471     1.1276     1.1537     1.1365
                     A          A          A          A   
    1  C  1  S   -0.000000  -0.000000   0.000000   0.000000
    2  C  1  S   -0.000000  -0.000000   0.000000   0.000000
    3  C  1  S   -0.000000  -0.000000   0.000000   0.000000
    4  C  1  S   -0.000000  -0.000000   0.000000   0.000000
    5  C  1  S   -0.000000  -0.000000   0.000000   0.000000
    6  C  1  X   -0.000000   0.000001   0.000000   0.000000
    7  C  1  Y    0.027875  -0.000000   0.000000   0.000000
    8  C  1  Z   -0.000000  -0.000000   0.046378   0.000000
    9  C  1  X   -0.000000   0.000001   0.000000   0.000000
   10  C  1  Y    0.035738  -0.000000   0.000000   0.000000
   11  C  1  Z   -0.000000  -0.000000   0.054811   0.000000
   12  C  1  X   -0.000000  -0.000002   0.000000   0.000000
   13  C  1  Y   -0.088372  -0.000000   0.000000   0.000000
   14  C  1  Z   -0.000000  -0.000000  -0.122276   0.000000
   15  C  1  X   -0.000000   0.000001   0.000000   0.000000
   16  C  1  Y    0.047929  -0.000000   0.000000   0.000000
   17  C  1  Z   -0.000000  -0.000000   0.067819   0.000000
   18  C  1  X   -0.000000  -0.000001   0.000000   0.000000
   19  C  1  Y   -0.022979  -0.000000   0.000000   0.000000
   20  C  1  Z   -0.000000  -0.000000  -0.032264   0.000000
   21  C  1 XX   -0.000000  -0.000000   0.000000   0.000000
   22  C  1 YY   -0.000000  -0.000000   0.000000   0.000000
   23  C  1 ZZ   -0.000000  -0.000000   0.000000   0.000000
   24  C  1 XY   -0.000000  -0.000000   0.000000   0.000000
   25  C  1 XZ   -0.000000  -0.000000   0.000000   0.000000
   26  C  1 YZ   -0.000000  -0.000000   0.000000   0.000000
   27  C  1 XX   -0.000000  -0.000000   0.000000   0.000000
   28  C  1 YY   -0.000000  -0.000000   0.000000   0.000000
   29  C  1 ZZ   -0.000000  -0.000000   0.000000   0.000000
   30  C  1 XY   -0.000000  -0.000000   0.000000   0.000000
   31  C  1 XZ   -0.000000  -0.000000   0.000000   0.000000
   32  C  1 YZ   -0.000000  -0.000000   0.000000   0.000000
   33  C  1 XX   -0.000000  -0.000000   0.000000   0.000000
   34  C  1 YY   -0.000000  -0.000000   0.000000   0.000000
   35  C  1 ZZ   -0.000000  -0.000000   0.000000   0.000000
   36  C  1 XY   -0.000000  -0.000000   0.000000   0.000000
   37  C  1 XZ   -0.000000  -0.000000   0.000000   0.000000
   38  C  1 YZ   -0.000000  -0.000000   0.000000   0.000000
   39  C  1 XX   -0.000000  -0.000000   0.000000   0.000000
   40  C  1 YY   -0.000000  -0.000000   0.000000   0.000000
   41  C  1 ZZ   -0.000000  -0.000000   0.000000   0.000000
   42  C  1 XY   -0.000000  -0.000000   0.000000   0.000000
   43  C  1 XZ   -0.000000  -0.000000   0.000000   0.000000
   44  C  1 YZ   -0.000000  -0.000000   0.000000   0.000000
   45  C  1 XXX  -0.000000  -3.353943   0.000000   0.000000
   46  C  1 YYY  -2.610136  -0.000000   0.000000   0.000000
   47  C  1 ZZZ  -0.000000  -0.000000   4.271031   0.000000
   48  C  1 XXY  -1.167276  -0.000000   0.000000   0.000000
   49  C  1 XXZ  -0.000000  -0.000000  -2.865095   0.000000
   50  C  1 YYX  -0.000000   4.499798   0.000000   0.000000
   51  C  1 YYZ  -0.000000  -0.000000  -2.865095   0.000000
   52  C  1 ZZX  -0.000000  -0.000011   0.000000   0.000000
   53  C  1 ZZY   4.669141  -0.000000   0.000000   0.000000
   54  C  1 XYZ  -0.000000  -0.000000   0.000000   4.250142
   55  C  1 XXX  -0.000000  -0.143134   0.000000   0.000000
   56  C  1 YYY  -0.111323  -0.000000   0.000000   0.000000
   57  C  1 ZZZ  -0.000000  -0.000000   0.181544   0.000000
   58  C  1 XXY  -0.049785  -0.000000   0.000000   0.000000
   59  C  1 XXZ  -0.000000  -0.000000  -0.121783   0.000000
   60  C  1 YYX  -0.000000   0.192035   0.000000   0.000000
   61  C  1 YYZ  -0.000000  -0.000000  -0.121783   0.000000
   62  C  1 ZZX  -0.000000  -0.000000   0.000000   0.000000
   63  C  1 ZZY   0.199141  -0.000000   0.000000   0.000000
   64  C  1 XYZ  -0.000000  -0.000000   0.000000   0.181396
   65  C  1 XXX  -0.000000   2.756230   0.000000   0.000000
   66  C  1 YYY   2.148819  -0.000000   0.000000   0.000000
   67  C  1 ZZZ  -0.000000  -0.000000  -3.519155   0.000000
   68  C  1 XXY   0.960971  -0.000000   0.000000   0.000000
   69  C  1 XXZ  -0.000000  -0.000000   2.360721   0.000000
   70  C  1 YYX  -0.000000  -3.697880   0.000000   0.000000
   71  C  1 YYZ  -0.000000  -0.000000   2.360721   0.000000
   72  C  1 ZZX  -0.000000   0.000009   0.000000   0.000000
   73  C  1 ZZY  -3.843914  -0.000000   0.000000   0.000000
   74  C  1 XYZ  -0.000000  -0.000000   0.000000  -3.494936
   75  C  1XXXX  -0.000000  -0.000000   0.000000   0.000000
   76  C  1YYYY  -0.000000  -0.000000   0.000000   0.000000
   77  C  1ZZZZ  -0.000000  -0.000000   0.000000   0.000000
   78  C  1XXXY  -0.000000  -0.000000   0.000000   0.000000
   79  C  1XXXZ  -0.000000  -0.000000   0.000000   0.000000
   80  C  1YYYX  -0.000000  -0.000000   0.000000   0.000000
   81  C  1YYYZ  -0.000000  -0.000000   0.000000   0.000000
   82  C  1ZZZX  -0.000000  -0.000000   0.000000   0.000000
   83  C  1ZZZY  -0.000000  -0.000000   0.000000   0.000000
   84  C  1XXYY  -0.000000  -0.000000   0.000000   0.000000
   85  C  1XXZZ  -0.000000  -0.000000   0.000000   0.000000
   86  C  1YYZZ  -0.000000  -0.000000   0.000000   0.000000
   87  C  1XXYZ  -0.000000  -0.000000   0.000000   0.000000
   88  C  1YYXZ  -0.000000  -0.000000   0.000000   0.000000
   89  C  1ZZXY  -0.000000  -0.000000   0.000000   0.000000
   90  C  1XXXX  -0.000000  -0.000000   0.000000   0.000000
   91  C  1YYYY  -0.000000  -0.000000   0.000000   0.000000
   92  C  1ZZZZ  -0.000000  -0.000000   0.000000   0.000000
   93  C  1XXXY  -0.000000  -0.000000   0.000000   0.000000
   94  C  1XXXZ  -0.000000  -0.000000   0.000000   0.000000
   95  C  1YYYX  -0.000000  -0.000000   0.000000   0.000000
   96  C  1YYYZ  -0.000000  -0.000000   0.000000   0.000000
   97  C  1ZZZX  -0.000000  -0.000000   0.000000   0.000000
   98  C  1ZZZY  -0.000000  -0.000000   0.000000   0.000000
   99  C  1XXYY  -0.000000  -0.000000   0.000000   0.000000
  100  C  1XXZZ  -0.000000  -0.000000   0.000000   0.000000
  101  C  1YYZZ  -0.000000  -0.000000   0.000000   0.000000
  102  C  1XXYZ  -0.000000  -0.000000   0.000000   0.000000
  103  C  1YYXZ  -0.000000  -0.000000   0.000000   0.000000
  104  C  1ZZXY  -0.000000  -0.000000   0.000000   0.000000
 ...... END OF ROHF CALCULATION ......
 STEP CPU TIME =     1.83 TOTAL CPU TIME =        2.3 (    0.0 MIN)
 TOTAL WALL CLOCK TIME=        2.3 SECONDS, CPU UTILIZATION IS  99.56%

     ---------------------------------------------------------------------
     PROPERTIES FOR THE PBE      DFT FUNCTIONAL (ROHF TYPE) DENSITY MATRIX
     ---------------------------------------------------------------------

          -----------------
          ENERGY COMPONENTS
          -----------------

         WAVEFUNCTION NORMALIZATION =       1.0000000000

                ONE ELECTRON ENERGY =      -8.3340835217
                TWO ELECTRON ENERGY =       2.9259683147
           NUCLEAR REPULSION ENERGY =       0.0000000000
                                      ------------------
                       TOTAL ENERGY =      -5.4081152070

 ELECTRON-ELECTRON POTENTIAL ENERGY =       2.9259683147
  NUCLEUS-ELECTRON POTENTIAL ENERGY =     -11.8033150103
   NUCLEUS-NUCLEUS POTENTIAL ENERGY =       0.0000000000
                                      ------------------
             TOTAL POTENTIAL ENERGY =      -8.8773466957
               TOTAL KINETIC ENERGY =       3.4692314886
                 VIRIAL RATIO (V/T) =       2.5588798916

          ---------------------------------------
          MULLIKEN AND LOWDIN POPULATION ANALYSES
          ---------------------------------------

     ATOMIC MULLIKEN POPULATION IN EACH MOLECULAR ORBITAL

                      1          2          3

                  2.000000   1.000000   1.000000

    1             2.000000   1.000000   1.000000

          MULLIKEN SPHERICAL HARMONIC POPULATIONS
       ATOM           S       P       D      F      G      H      I    TOTAL
    1 C             1.00    2.00    0.00   0.00   0.00   0.00   0.00    3.00

          MULLIKEN SPHERICAL HARMONIC POPULATIONS
       ATOM           S       P       D      F      G      H      I    TOTAL
    1 C             1.00    0.00    0.00   0.00   0.00   0.00   0.00    1.00

     ATOMIC SPIN POPULATION (ALPHA MINUS BETA)
       ATOM         MULL.POP.                    LOW.POP.
    1 C             2.000000                     2.000000

               ----- POPULATIONS IN EACH AO -----
                             MULLIKEN      LOWDIN
              1  C  1  S      2.03996     0.21746
              2  C  1  S      0.00181     0.12455
              3  C  1  S     -0.02103     0.18350
              4  C  1  S     -0.03521     0.13341
              5  C  1  S      0.01418     0.05327
              6  C  1  X      1.03765     0.25406
              7  C  1  Y      1.03765     0.25406
              8  C  1  Z      0.00000     0.00000
              9  C  1  X     -0.00570     0.16788
             10  C  1  Y     -0.00570     0.16788
             11  C  1  Z      0.00000     0.00000
             12  C  1  X     -0.03932     0.11424
             13  C  1  Y     -0.03932     0.11424
             14  C  1  Z      0.00000     0.00000
             15  C  1  X     -0.00627     0.08987
             16  C  1  Y     -0.00627     0.08987
             17  C  1  Z      0.00000     0.00000
             18  C  1  X      0.01363     0.03017
             19  C  1  Y      0.01363     0.03017
             20  C  1  Z      0.00000     0.00000
             21  C  1 XX      0.00000     0.08262
             22  C  1 YY      0.00000     0.08262
             23  C  1 ZZ      0.00000     0.08552
             24  C  1 XY      0.00000     0.00000
             25  C  1 XZ      0.00000     0.00000
             26  C  1 YZ      0.00000     0.00000
             27  C  1 XX      0.00018     0.10347
             28  C  1 YY      0.00000     0.10347
             29  C  1 ZZ      0.00000     0.10965
             30  C  1 XY      0.00000     0.00000
             31  C  1 XZ      0.00000     0.00000
             32  C  1 YZ      0.00000     0.00000
             33  C  1 XX      0.00010     0.04791
             34  C  1 YY      0.00000     0.04791
             35  C  1 ZZ      0.00000     0.05158
             36  C  1 XY      0.00000     0.00000
             37  C  1 XZ      0.00000     0.00000
             38  C  1 YZ      0.00000     0.00000
             39  C  1 XX      0.00001     0.00956
             40  C  1 YY      0.00000     0.00956
             41  C  1 ZZ      0.00000     0.01051
             42  C  1 XY      0.00000     0.00000
             43  C  1 XZ      0.00000     0.00000
             44  C  1 YZ      0.00000     0.00000
             45  C  1 XXX     0.00000     0.06059
             46  C  1 YYY     0.00000     0.06059
             47  C  1 ZZZ     0.00000     0.00000
             48  C  1 XXY     0.00000     0.02741
             49  C  1 XXZ     0.00000     0.00000
             50  C  1 YYX     0.00000     0.02741
             51  C  1 YYZ     0.00000     0.00000
             52  C  1 ZZX     0.00000     0.02712
             53  C  1 ZZY     0.00000     0.02712
             54  C  1 XYZ     0.00000     0.00000
             55  C  1 XXX     0.00000     0.06623
             56  C  1 YYY     0.00000     0.06623
             57  C  1 ZZZ     0.00000     0.00000
             58  C  1 XXY     0.00000     0.03117
             59  C  1 XXZ     0.00000     0.00000
             60  C  1 YYX     0.00000     0.03117
             61  C  1 YYZ     0.00000     0.00000
             62  C  1 ZZX     0.00000     0.03098
             63  C  1 ZZY     0.00000     0.03098
             64  C  1 XYZ     0.00000     0.00000
             65  C  1 XXX     0.00000     0.05289
             66  C  1 YYY     0.00000     0.05289
             67  C  1 ZZZ    -0.00000     0.00000
             68  C  1 XXY     0.00000     0.02368
             69  C  1 XXZ    -0.00000     0.00000
             70  C  1 YYX     0.00000     0.02368
             71  C  1 YYZ     0.00000     0.00000
             72  C  1 ZZX     0.00000     0.02371
             73  C  1 ZZY     0.00000     0.02371
             74  C  1 XYZ     0.00000     0.00000
             75  C  1XXXX     0.00000     0.05822
             76  C  1YYYY     0.00000     0.05822
             77  C  1ZZZZ     0.00000     0.06340
             78  C  1XXXY     0.00000     0.00000
             79  C  1XXXZ     0.00000     0.00000
             80  C  1YYYX     0.00000     0.00000
             81  C  1YYYZ     0.00000     0.00000
             82  C  1ZZZX     0.00000     0.00000
             83  C  1ZZZY     0.00000     0.00000
             84  C  1XXYY     0.00000     0.06165
             85  C  1XXZZ     0.00000     0.06455
             86  C  1YYZZ     0.00000     0.06455
             87  C  1XXYZ     0.00000     0.00000
             88  C  1YYXZ     0.00000     0.00000
             89  C  1ZZXY     0.00000     0.00000
             90  C  1XXXX     0.00000     0.02727
             91  C  1YYYY     0.00000     0.02727
             92  C  1ZZZZ     0.00000     0.03015
             93  C  1XXXY     0.00000     0.00000
             94  C  1XXXZ     0.00000     0.00000
             95  C  1YYYX     0.00000     0.00000
             96  C  1YYYZ     0.00000     0.00000
             97  C  1ZZZX     0.00000     0.00000
             98  C  1ZZZY     0.00000     0.00000
             99  C  1XXYY     0.00000     0.02831
            100  C  1XXZZ     0.00000     0.02992
            101  C  1YYZZ     0.00000     0.02992
            102  C  1XXYZ     0.00000     0.00000
            103  C  1YYXZ     0.00000     0.00000
            104  C  1ZZXY     0.00000     0.00000

          ----- MULLIKEN ATOMIC OVERLAP POPULATIONS -----
          (OFF-DIAGONAL ELEMENTS NEED TO BE MULTIPLIED BY 2)

             1

    1    4.0000000

          TOTAL MULLIKEN AND LOWDIN ATOMIC POPULATIONS
       ATOM         MULL.POP.    CHARGE          LOW.POP.     CHARGE
    1 C             4.000000    0.000000         4.000000    0.000000

          MULLIKEN SPHERICAL HARMONIC POPULATIONS
       ATOM           S       P       D      F      G      H      I    TOTAL
    1 C             2.00    2.00    0.00   0.00   0.00   0.00   0.00    4.00

          -------------------------------
          BOND ORDER AND VALENCE ANALYSIS     BOND ORDER THRESHOLD=0.050
          -------------------------------

                   BOND                       BOND                       BOND
  ATOM PAIR DIST  ORDER      ATOM PAIR DIST  ORDER      ATOM PAIR DIST  ORDER

                       TOTAL       BONDED        FREE
      ATOM            VALENCE     VALENCE     VALENCE
    1 C                 2.000       0.000       2.000

          -----------------------------------------
          ATOMIC SPIN DENSITY AT THE NUCLEUS (A.U.)
          -----------------------------------------
                            SPIN DENS    ALPHA DENS     BETA DENS
    1  C            4.0     0.0000000       0.00288       0.00288

          ---------------------
          ELECTROSTATIC MOMENTS
          ---------------------

 POINT   1           X           Y           Z (BOHR)    CHARGE
                 0.000000    0.000000    0.000000        0.00 (A.U.)
         DX          DY          DZ         /D/  (DEBYE)
     0.000000    0.000000    0.000000    0.000000
 ...... END OF PROPERTY EVALUATION ......
 STEP CPU TIME =     0.02 TOTAL CPU TIME =        2.3 (    0.0 MIN)
 TOTAL WALL CLOCK TIME=        2.3 SECONDS, CPU UTILIZATION IS 100.00%
               809237  WORDS OF DYNAMIC MEMORY USED
 EXECUTION OF GAMESS TERMINATED NORMALLY Mon Jun 25 12:15:33 2018
 DDI: 263640 bytes (0.3 MB / 0 MWords) used by master data server.

 ----------------------------------------
 CPU timing information for all processes
 ========================================
 0: 2.240 + 0.56 = 2.296
 ----------------------------------------
Note: The following floating-point exceptions are signalling: IEEE_UNDERFLOW_FLAG IEEE_DENORMAL
 ddikick.x: exited gracefully.
unset echo
----- accounting info -----
Files used on the master node gwang18-Lenovo-Y50-70 were:
-rw-rw-r-- 1 gwang18 gwang18   135616 Jun 25 12:15 /home/gwang18/research/qwalk/ecpcorrelation/c/pbe/c.dat
-rw------- 1 gwang18 gwang18     1423 Jun 25 12:15 /home/gwang18/research/qwalk/ecpcorrelation/c/pbe/c.F05
-rw-rw-r-- 1 gwang18 gwang18 23042048 Jun 25 12:15 /home/gwang18/research/qwalk/ecpcorrelation/c/pbe/c.F08
-rw-rw-r-- 1 gwang18 gwang18  8441760 Jun 25 12:15 /home/gwang18/research/qwalk/ecpcorrelation/c/pbe/c.F10
-rw------- 1 gwang18 gwang18     1423 Jun 25 12:15 /home/gwang18/research/qwalk/ecpcorrelation/c/pbe/c.inp
-rw-rw-r-- 1 gwang18 gwang18   159629 Jun 25 12:15 /home/gwang18/research/qwalk/ecpcorrelation/c/pbe/c.out
ls: No match.
ls: No match.
ls: No match.
Mon Jun 25 12:15:36 EDT 2018
0.0u 0.0s 0:05.40 0.7% 0+0k 0+24io 0pf+0w
