
 Primary working directories    : /global/cscratch1/sd/aannabe
 Secondary working directories  : /global/cscratch1/sd/aannabe
 Wavefunction directory         : /global/homes/a/aannabe/wfu/
 Main file repository           : /global/cscratch1/sd/aannabe/

 SHA1      : 2873118e99aab1bc19f5b6fc1784693c06d15c95
 NAME      : 2015.1.8
 ARCHNAME  : linux/x86_64
 FC        : /opt/cray/pe/craype/2.5.5/bin/ftn
 BLASLIB   : -Wl,-_start-group /opt/intel/compilers_and_libraries_2016.3.210/linux/mkl/lib/intel64/libmkl_intel_ilp64.a /opt/intel/compilers_and_libraries_2016.3.210/linux/mkl/lib/intel64/libmkl_intel_thread.a /opt/intel/compilers_and_libraries_2016.3.210/linux/mkl/lib/intel64/libmkl_core.a -Wl,-_end-group
 id        : lbl

 Nodes     nprocs
 nid02288     1

 Using customized tuning parameters: mindgm=8; mindgv=16; mindgc=4; mindgr=1; noblas=0; minvec=7
 default implementation of scratch files=df  

 ***,Al
 memory,512,m
 gthresh,twoint=1.e-12
 
 gprint,basis,orbitals
 gexpec,ekin,pot
 
 angstrom
 geometry={
 1                                                                               ! Number of atoms
 Al 0.0 0.0 0.0
 }
 
 basis={
 Including file /global/homes/a/aannabe/docs/accurate/ccECP_Kh/pps/Al.pp
 Including file /global/homes/a/aannabe/docs/accurate/ccECP_Kh/basis/aug-cc-pVnZ/Al_qz.basis
 }
 
 {rhf
  start,atden
  wf,3,2,1
  occ,1,1,0,0,0,0,0,0
  open,1.2
  save,4202.2
 }
 {multi
  start,4202.2
  occ,1,1,1,0,1,0,0
  closed,1,0,0,0,0,0,0,0
  wf,3,2,1;state,1
  wf,3,3,1;state,1
  wf,3,5,1;state,1
  natorb,ci,print
  orbital,5202.2
 }
 {rhf,nitord=1,maxit=0
  start,5202.2
  wf,3,2,1
  occ,1,1,0,0,0,0,0,0
  open,1.2
 }
 
 scf(i)=energy
 
 _CC_NORM_MAX=2.0
 {ci
 maxit,100
 core
 }
 posthf(i)=energy
 
 table,scf,posthf,ekin,pot
 save,4.csv,new
 
 

 Variables initialized (889), CPU time= 0.00 sec
 Commands  initialized (702), CPU time= 0.01 sec, 572 directives.
 Default parameters read. Elapsed time= 0.15 sec

 Checking input...
 Passed
1


                                         ***  PROGRAM SYSTEM MOLPRO  ***
                                       Copyright, TTI GmbH Stuttgart, 2015
                                    Version 2015.1 linked Sep  7 2016 23:09:38


 **********************************************************************************************************************************
 LABEL *   Al                                                                            
  64 bit serial version                                                                  DATE: 30-Oct-18          TIME: 18:15:18  
 **********************************************************************************************************************************

 SHA1:             2873118e99aab1bc19f5b6fc1784693c06d15c95
 **********************************************************************************************************************************

 THRESHOLDS:

 ZERO    =  1.00D-12  ONEINT  =  1.00D-12  TWOINT  =  1.00D-12  PREFAC  =  1.00D-14  LOCALI  =  1.00D-09  EORDER  =  1.00D-04
 ENERGY  =  0.00D+00  ETEST   =  0.00D+00  EDENS   =  0.00D+00  THRDEDEF=  1.00D-06  GRADIENT=  1.00D-02  STEP    =  1.00D-03
 ORBITAL =  1.00D-05  CIVEC   =  1.00D-05  COEFF   =  1.00D-04  PRINTCI =  5.00D-02  PUNCHCI =  9.90D+01  OPTGRAD =  3.00D-04
 OPTENERG=  1.00D-06  OPTSTEP =  3.00D-04  THRGRAD =  1.00D-10  COMPRESS=  1.00D-11  VARMIN  =  1.00D-07  VARMAX  =  1.00D-03
 THRDOUB =  0.00D+00  THRDIV  =  1.00D-05  THRRED  =  1.00D-07  THRPSP  =  1.00D+00  THRDC   =  1.00D-10  THRCS   =  1.00D-10
 THRNRM  =  1.00D-08  THREQ   =  0.00D+00  THRDE   =  1.00D+00  THRREF  =  1.00D-05  SPARFAC =  1.00D+00  THRDLP  =  1.00D-07
 THRDIA  =  1.00D-10  THRDLS  =  1.00D-07  THRGPS  =  0.00D+00  THRKEX  =  0.00D+00  THRDIS  =  2.00D-01  THRVAR  =  1.00D-10
 THRLOC  =  1.00D-06  THRGAP  =  1.00D-06  THRLOCT = -1.00D+00  THRGAPT = -1.00D+00  THRORB  =  1.00D-06  THRMLTP =  0.00D+00
 THRCPQCI=  1.00D-10  KEXTA   =  0.00D+00  THRCOARS=  0.00D+00  SYMTOL  =  1.00D-06  GRADTOL =  1.00D-06  THROVL  =  1.00D-08
 THRORTH =  1.00D-08  GRID    =  1.00D-06  GRIDMAX =  1.00D-03  DTMAX   =  0.00D+00  THROCCDE=  1.00D-01  THROCCDE=  1.00D-01



 ZUNIT=ANG
 

Geometry recognized as XYZ


 Variable memory set to  512000000 words,  buffer space   230000 words

 SETTING BASIS          =    USERDEF


 Recomputing integrals since basis changed


 Using spherical harmonics



 PROGRAM * SEWARD (Integral evaluation for generally contracted gaussian basis sets)     Author: Roland Lindh, 1990

 Geometry written to block  1 of record 700

 Orientation using atomic masses  
 Molecule type: Atom
 Symmetry elements: X,Y,Z
 Rotational constants:       0.0000000      0.0000000      0.0000000 GHz  (calculated with average atomic masses)

 Point group  D2h 



 ATOMIC COORDINATES

 NR  ATOM    CHARGE       X              Y              Z

   1  AL      3.00    0.000000000    0.000000000    0.000000000


          AL  CORE POTENTIAL

          d POTENTIAL

 POWERS             1              3              2
 EXPONENTIALS   5.073893       8.607001       3.027490    
 COEFFICIENTS   3.000000       15.22168      -11.16568    

          s - d POTENTIAL

 POWERS             2              2
 EXPONENTIALS   7.863954       2.061358    
 COEFFICIENTS   14.87951       20.74686    

          p - d POTENTIAL

 POWERS             2              2
 EXPONENTIALS   3.125175       1.414930    
 COEFFICIENTS   7.786227       7.109015    


 BASIS DATA

   Nr Sym  Nuc  Type         Exponents   Contraction coefficients

    1.1 Ag    1  1s           8.257944     0.003287
                              4.514245    -0.017168
                              2.467734     0.069766
                              1.348998    -0.183475
                              0.737436    -0.147133
                              0.403123     0.046882
                              0.220369     0.308423
                              0.120466     0.451564
                              0.065853     0.302904
                              0.035999     0.079545
    2.1 Ag    1  1s           0.347290     1.000000
    3.1 Ag    1  1s           0.142082     1.000000
    4.1 Ag    1  1s           0.058128     1.000000
    5.1 Ag    1  1s           0.025443     1.000000
    6.1 Ag    1  3d0          0.641818     1.000000
    7.1 Ag    1  3d2+         0.641818     1.000000
    8.1 Ag    1  3d0          0.240140     1.000000
    9.1 Ag    1  3d2+         0.240140     1.000000
   10.1 Ag    1  3d0          0.089850     1.000000
   11.1 Ag    1  3d2+         0.089850     1.000000
   12.1 Ag    1  3d0          0.032712     1.000000
   13.1 Ag    1  3d2+         0.032712     1.000000
   14.1 Ag    1  5g0          0.351808     1.000000
   15.1 Ag    1  5g4+         0.351808     1.000000
   16.1 Ag    1  5g2+         0.351808     1.000000
   17.1 Ag    1  5g0          0.147657     1.000000
   18.1 Ag    1  5g4+         0.147657     1.000000
   19.1 Ag    1  5g2+         0.147657     1.000000
    1.2 B3u   1  2px          1.570603    -0.002645
                              0.977752    -0.037850
                              0.608683     0.006636
                              0.378925     0.089291
                              0.235893     0.134421
                              0.146851     0.256105
                              0.091420     0.238970
                              0.056912     0.260677
                              0.035429     0.112350
                              0.022056     0.052665
    2.2 B3u   1  2px          0.868497     1.000000
    3.2 B3u   1  2px          0.350263     1.000000
    4.2 B3u   1  2px          0.141260     1.000000
    5.2 B3u   1  2px          0.058377     1.000000
    6.2 B3u   1  4f1+         0.407281     1.000000
    7.2 B3u   1  4f3+         0.407281     1.000000
    8.2 B3u   1  4f1+         0.159215     1.000000
    9.2 B3u   1  4f3+         0.159215     1.000000
   10.2 B3u   1  4f1+         0.061594     1.000000
   11.2 B3u   1  4f3+         0.061594     1.000000
    1.3 B2u   1  2py          1.570603    -0.002645
                              0.977752    -0.037850
                              0.608683     0.006636
                              0.378925     0.089291
                              0.235893     0.134421
                              0.146851     0.256105
                              0.091420     0.238970
                              0.056912     0.260677
                              0.035429     0.112350
                              0.022056     0.052665
    2.3 B2u   1  2py          0.868497     1.000000
    3.3 B2u   1  2py          0.350263     1.000000
    4.3 B2u   1  2py          0.141260     1.000000
    5.3 B2u   1  2py          0.058377     1.000000
    6.3 B2u   1  4f1-         0.407281     1.000000
    7.3 B2u   1  4f3-         0.407281     1.000000
    8.3 B2u   1  4f1-         0.159215     1.000000
    9.3 B2u   1  4f3-         0.159215     1.000000
   10.3 B2u   1  4f1-         0.061594     1.000000
   11.3 B2u   1  4f3-         0.061594     1.000000
    1.4 B1g   1  3d2-         0.641818     1.000000
    2.4 B1g   1  3d2-         0.240140     1.000000
    3.4 B1g   1  3d2-         0.089850     1.000000
    4.4 B1g   1  3d2-         0.032712     1.000000
    5.4 B1g   1  5g2-         0.351808     1.000000
    6.4 B1g   1  5g4-         0.351808     1.000000
    7.4 B1g   1  5g2-         0.147657     1.000000
    8.4 B1g   1  5g4-         0.147657     1.000000
    1.5 B1u   1  2pz          1.570603    -0.002645
                              0.977752    -0.037850
                              0.608683     0.006636
                              0.378925     0.089291
                              0.235893     0.134421
                              0.146851     0.256105
                              0.091420     0.238970
                              0.056912     0.260677
                              0.035429     0.112350
                              0.022056     0.052665
    2.5 B1u   1  2pz          0.868497     1.000000
    3.5 B1u   1  2pz          0.350263     1.000000
    4.5 B1u   1  2pz          0.141260     1.000000
    5.5 B1u   1  2pz          0.058377     1.000000
    6.5 B1u   1  4f0          0.407281     1.000000
    7.5 B1u   1  4f2+         0.407281     1.000000
    8.5 B1u   1  4f0          0.159215     1.000000
    9.5 B1u   1  4f2+         0.159215     1.000000
   10.5 B1u   1  4f0          0.061594     1.000000
   11.5 B1u   1  4f2+         0.061594     1.000000
    1.6 B2g   1  3d1+         0.641818     1.000000
    2.6 B2g   1  3d1+         0.240140     1.000000
    3.6 B2g   1  3d1+         0.089850     1.000000
    4.6 B2g   1  3d1+         0.032712     1.000000
    5.6 B2g   1  5g1+         0.351808     1.000000
    6.6 B2g   1  5g3+         0.351808     1.000000
    7.6 B2g   1  5g1+         0.147657     1.000000
    8.6 B2g   1  5g3+         0.147657     1.000000
    1.7 B3g   1  3d1-         0.641818     1.000000
    2.7 B3g   1  3d1-         0.240140     1.000000
    3.7 B3g   1  3d1-         0.089850     1.000000
    4.7 B3g   1  3d1-         0.032712     1.000000
    5.7 B3g   1  5g1-         0.351808     1.000000
    6.7 B3g   1  5g3-         0.351808     1.000000
    7.7 B3g   1  5g1-         0.147657     1.000000
    8.7 B3g   1  5g3-         0.147657     1.000000
    1.8 Au    1  4f2-         0.407281     1.000000
    2.8 Au    1  4f2-         0.159215     1.000000
    3.8 Au    1  4f2-         0.061594     1.000000

 NUCLEAR CHARGE:                    3
 NUMBER OF PRIMITIVE AOS:         140
 NUMBER OF SYMMETRY AOS:          115
 NUMBER OF CONTRACTIONS:           79   (  19Ag  +  11B3u +  11B2u +   8B1g +  11B1u +   8B2g +   8B3g +   3Au  )
 NUMBER OF CORE ORBITALS:           0   (   0Ag  +   0B3u +   0B2u +   0B1g +   0B1u +   0B2g +   0B3g +   0Au  )
 NUMBER OF VALENCE ORBITALS:        4   (   1Ag  +   1B3u +   1B2u +   0B1g +   1B1u +   0B2g +   0B3g +   0Au  )


 NUCLEAR REPULSION ENERGY    0.00000000

 EXTRA SYMMETRY OF AOS IN SYMMETRY 1:   1 1 1 1 1 2 3 2 3 2   3 2 3 4 5 6 4 5 6
 EXTRA SYMMETRY OF AOS IN SYMMETRY 2:   1 1 1 1 1 2 3 2 3 2   3
 EXTRA SYMMETRY OF AOS IN SYMMETRY 3:   1 1 1 1 1 2 3 2 3 2   3
 EXTRA SYMMETRY OF AOS IN SYMMETRY 4:   1 1 1 1 2 3 2 3
 EXTRA SYMMETRY OF AOS IN SYMMETRY 5:   1 1 1 1 1 2 3 2 3 2   3
 EXTRA SYMMETRY OF AOS IN SYMMETRY 6:   1 1 1 1 2 3 2 3
 EXTRA SYMMETRY OF AOS IN SYMMETRY 7:   1 1 1 1 2 3 2 3

 Eigenvalues of metric

         1 0.383E-02 0.191E-01 0.110E+00 0.110E+00 0.170E+00 0.395E+00 0.395E+00 0.395E+00
         2 0.155E-02 0.405E-01 0.210E+00 0.210E+00 0.244E+00 0.829E+00 0.829E+00 0.115E+01
         3 0.155E-02 0.405E-01 0.210E+00 0.210E+00 0.244E+00 0.829E+00 0.829E+00 0.115E+01
         4 0.110E+00 0.395E+00 0.395E+00 0.424E+00 0.117E+01 0.160E+01 0.160E+01 0.229E+01
         5 0.155E-02 0.405E-01 0.210E+00 0.210E+00 0.244E+00 0.829E+00 0.829E+00 0.115E+01
         6 0.110E+00 0.395E+00 0.395E+00 0.424E+00 0.117E+01 0.160E+01 0.160E+01 0.229E+01
         7 0.110E+00 0.395E+00 0.395E+00 0.424E+00 0.117E+01 0.160E+01 0.160E+01 0.229E+01
         8 0.210E+00 0.829E+00 0.196E+01


 Contracted 2-electron integrals neglected if value below      1.0D-12
 AO integral compression algorithm  1   Integral accuracy      1.0D-12

     6.029 MB (compressed) written to integral file ( 61.3%)


 NUMBER OF SORTED TWO-ELECTRON INTEGRALS:     665704.     BUFFER LENGTH:  32768
 NUMBER OF SEGMENTS:   1  SEGMENT LENGTH:     665704      RECORD LENGTH: 524288

 Memory used in sort:       1.22 MW

 SORT1 READ     1222209. AND WROTE      500866. INTEGRALS IN      2 RECORDS. CPU TIME:     0.02 SEC, REAL TIME:     0.03 SEC
 SORT2 READ      500866. AND WROTE      665704. INTEGRALS IN     23 RECORDS. CPU TIME:     0.04 SEC, REAL TIME:     0.09 SEC

 FILE SIZES:   FILE 1:    25.3 MBYTE,  FILE 4:     8.4 MBYTE,   TOTAL:     33.7 MBYTE

 OPERATOR DM      FOR CENTER  0  COORDINATES:    0.000000    0.000000    0.000000
 OPERATOR EKIN    FOR CENTER  0  COORDINATES:    0.000000    0.000000    0.000000
 OPERATOR POT     FOR CENTER  0  COORDINATES:    0.000000    0.000000    0.000000


 **********************************************************************************************************************************
 DATASETS  * FILE   NREC   LENGTH (MB)   RECORD NAMES
              1      20       22.50       500      610      700      900      950      970     1000      129      960     1100   
                                          VAR    BASINP    GEOM    SYMINP    ZMAT    AOBASIS   BASIS     P2S    ABASIS      S 
                                         1400     1410     1420     1200     1210     1080     1600     1650     1300     1700   
                                         EKIN       V       ECP      H0       H01     AOSYM     SMH    MOLCAS    ERIS     OPER   

 PROGRAMS   *        TOTAL       INT
 CPU TIMES  *         0.54      0.45
 REAL TIME  *         2.02 SEC
 DISK USED  *        33.97 MB      
 **********************************************************************************************************************************


 PROGRAM * RHF-SCF (OPEN SHELL)       Authors: W. Meyer, H.-J. Werner


 NUMBER OF ELECTRONS:       2+    1-    SPACE SYMMETRY=2    SPIN SYMMETRY: Doublet 
 CONVERGENCE THRESHOLDS:    1.00E-05 (Density)    1.00E-07 (Energy)
 MAX. NUMBER OF ITERATIONS:       60
 INTERPOLATION TYPE:            DIIS
 INTERPOLATION STEPS:              2 (START)      1 (STEP)
 LEVEL SHIFTS:                 -0.60 (CLOSED) -0.30 (OPEN) 


 Singly occupied orbitals:      1.2

   Atom=AL basis=ECP10MWB_GUESS    lmin=0  lmax=1

 Orbital guess generated from atomic densities. Full valence occupancy:    1   1   1   0   1   0   0   0


 Molecular orbital dump at record        4202.2

 ITERATION    DDIFF          GRAD             ENERGY        2-EL.EN.            DIPOLE MOMENTS         DIIS   ORB.
    1      0.000D+00      0.000D+00        -1.86961151      1.652909    0.00000    0.00000    0.00000    0    start
    2      0.000D+00      0.421D-02        -1.87335206      1.691121    0.00000    0.00000    0.00000    1    diag,B
    3      0.196D+00      0.255D-02        -1.87622061      1.735686    0.00000    0.00000    0.00000    2    diag,B
    4      0.218D+00      0.121D-02        -1.87703313      1.756254    0.00000    0.00000    0.00000    3    diag,B
    5      0.113D+00      0.407D-03        -1.87708527      1.758268    0.00000    0.00000    0.00000    4    diag,B
    6      0.185D-01      0.133D-03        -1.87708980      1.759016    0.00000    0.00000    0.00000    5    diag,B
    7      0.484D-02      0.389D-04        -1.87709008      1.758842    0.00000    0.00000    0.00000    6    fixocc
    8      0.293D-03      0.104D-04        -1.87709009      1.758933    0.00000    0.00000    0.00000    7    diag,B
    9      0.103D-03      0.185D-05        -1.87709009      1.758930    0.00000    0.00000    0.00000    8    diag,B
   10      0.283D-04      0.479D-06        -1.87709009      1.758927    0.00000    0.00000    0.00000    9    orth
   11      0.249D-04      0.207D-06        -1.87709009      1.758928    0.00000    0.00000    0.00000    9    diag,B
   12      0.982D-06      0.532D-07        -1.87709009      1.758928    0.00000    0.00000    0.00000    0    orth

 Final alpha occupancy:   1   1   0   0   0   0   0   0
 Final beta  occupancy:   1   0   0   0   0   0   0   0

 !RHF STATE 1.2 Energy                 -1.877090093371
 Nuclear energy                         0.00000000
 One-electron energy                   -2.75655401
 Two-electron energy                    0.87946392
 Virial quotient                       -2.92513701
 !RHF STATE 1.2 Dipole moment           0.00000000     0.00000000     0.00000000
 Dipole moment /Debye                   0.00000000     0.00000000     0.00000000
 

 !RHF expec          <1.2|EKIN|1.2>     0.641710144874
 
 !RHF expec           <1.2|POT|1.2>    -1.245924025950

 ELECTRON ORBITALS
 =================


   Orb  Occ    Energy  Couls-En    Coefficients

                                   1 1s      1 1s      1 1s      1 1s      1 1s      1 3d0     1 3d2+    1 3d0     1 3d2+    1 3d0  
                                   1 3d2+    1 3d0     1 3d2+    1 5g0     1 5g4+    1 5g2+    1 5g0     1 5g4+    1 5g2+ 

   1.1   2    -0.3939   -1.4017  1.000015 -0.000125  0.000542 -0.000677  0.000194 -0.000316  0.000547  0.001143 -0.001980 -0.004225
                                 0.007318 -0.001873  0.003244  0.000004  0.000009 -0.000007 -0.000050 -0.000099  0.000075

                                   1 2px     1 2px     1 2px     1 2px     1 2px     1 4f1+    1 4f3+    1 4f1+    1 4f3+    1 4f1+ 
                                   1 4f3+ 

   1.2   +    -0.2098   -0.9507  1.000480  0.000032 -0.000074 -0.000557  0.000095  0.000045 -0.000059  0.000101 -0.000131 -0.000140
                                 0.000180

 HOMO      1.2    -0.209800 =      -5.7090eV
 LUMO      1.3     0.010781 =       0.2934eV
 LUMO-HOMO         0.220582 =       6.0023eV


 **********************************************************************************************************************************
 DATASETS  * FILE   NREC   LENGTH (MB)   RECORD NAMES
              1      20       22.50       500      610      700      900      950      970     1000      129      960     1100   
                                          VAR    BASINP    GEOM    SYMINP    ZMAT    AOBASIS   BASIS     P2S    ABASIS      S 
                                         1400     1410     1420     1200     1210     1080     1600     1650     1300     1700   
                                         EKIN       V       ECP      H0       H01     AOSYM     SMH    MOLCAS    ERIS     OPER   

              2       4        2.78       700     1000      520     4202   
                                         GEOM     BASIS   MCVARS     RHF  

 PROGRAMS   *        TOTAL       RHF       INT
 CPU TIMES  *         0.62      0.08      0.45
 REAL TIME  *         2.26 SEC
 DISK USED  *        33.97 MB      
 **********************************************************************************************************************************


 PROGRAM * MULTI (Direct Multiconfiguration SCF)       Authors: P.J. Knowles, H.-J. Werner (1984)     S.T. Elbert (1988)


 Number of closed-shell orbitals:   1 (   1   0   0   0   0   0   0   0 )
 Number of active  orbitals:        3 (   0   1   1   0   1   0   0   0 )
 Number of external orbitals:      75 (  18  10  10   8  10   8   8   3 )

 State symmetry 1

 Number of electrons:     1    Spin symmetry=Doublet   Space symmetry=2
 Number of states:        1
 Number of CSFs:          1   (1 determinants, 3 intermediate states)

 State symmetry 2

 Number of electrons:     1    Spin symmetry=Doublet   Space symmetry=3
 Number of states:        1
 Number of CSFs:          1   (1 determinants, 3 intermediate states)

 State symmetry 3

 Number of electrons:     1    Spin symmetry=Doublet   Space symmetry=5
 Number of states:        1
 Number of CSFs:          1   (1 determinants, 3 intermediate states)

 Molecular orbitals read from record     4202.2  Type=RHF/CANONICAL (state 1.2)
 *** IN SYMMETRY 1 ORBITAL  1 SYMMETRY CONTAMINATION OF 0.204D-01 HAS BEEN REMOVED

 EXTRA SYMMETRY OF MOS IN SYMMETRY 1:   1 1 2 3 3 2 1 4 5 6   2 3 1 2 3 4 5 6 1
 *** IN SYMMETRY 2 ORBITAL  1 SYMMETRY CONTAMINATION OF 0.655D-03 HAS BEEN REMOVED
 EXTRA SYMMETRY OF MOS IN SYMMETRY 2:   1 1 2 3 1 2 3 1 2 3   1
 *** IN SYMMETRY 3 ORBITAL  1 SYMMETRY CONTAMINATION OF 0.809D-03 HAS BEEN REMOVED
 EXTRA SYMMETRY OF MOS IN SYMMETRY 3:   1 1 2 3 1 2 3 1 2 3   1
 EXTRA SYMMETRY OF MOS IN SYMMETRY 4:   1 1 2 3 1 1 2 3
 *** IN SYMMETRY 5 ORBITAL  1 SYMMETRY CONTAMINATION OF 0.932D-03 HAS BEEN REMOVED
 EXTRA SYMMETRY OF MOS IN SYMMETRY 5:   1 1 2 3 1 2 3 1 2 3   1
 EXTRA SYMMETRY OF MOS IN SYMMETRY 6:   1 1 3 2 1 1 3 2
 EXTRA SYMMETRY OF MOS IN SYMMETRY 7:   1 1 2 3 1 1 2 3

 Wavefunction dump at record             5202.2

 Convergence thresholds  0.10E-01 (gradient)  0.10E-05 (energy)  0.10E-02 (step length)

 Weight factors for state symmetry  1:    0.33333
 Weight factors for state symmetry  2:    0.33333
 Weight factors for state symmetry  3:    0.33333

 Number of orbital rotations:       48   (     0 Core/Active     18 Core/Virtual   0 Active/Active     30 Active/Virtual)
 Total number of variables:         51


 ITER. MIC  NCI  NEG     ENERGY(VAR)     ENERGY(PROJ)   ENERGY CHANGE     GRAD(0)  GRAD(ORB)   GRAD(CI)     STEP       TIME

   1   39   12    0      -1.85998485      -1.87702034   -0.01703549    0.03690976 0.00000000 0.00000000  0.56D+00      0.02
   2   15   12    0      -1.87699375      -1.87700762   -0.00001386    0.00392774 0.00000000 0.00000000  0.44D-02      0.04
   3   15   12    0      -1.87700762      -1.87700762   -0.00000000    0.00000340 0.00000000 0.00000000  0.81D-05      0.05

 ** WVFN ****  CONVERGENCE REACHED, FINAL GRADIENT:  0.48D-11



 Results for state 1.2
 =====================

 !MCSCF STATE 1.2 Energy               -1.877007624956
 Nuclear energy                         0.00000000
 Kinetic energy                         0.64168290
 One electron energy                   -2.75666531
 Two electron energy                    0.87965768
 Virial ratio                           3.92513267

 !MCSCF STATE 1.2 Dipole moment         0.00000000     0.00000000     0.00000000
 Dipole moment /Debye                   0.00000000     0.00000000     0.00000000



 Results for state 1.3
 =====================

 !MCSCF STATE 1.3 Energy               -1.877007624956
 Nuclear energy                         0.00000000
 Kinetic energy                         0.64168290
 One electron energy                   -2.75666531
 Two electron energy                    0.87965768
 Virial ratio                           3.92513267

 !MCSCF STATE 1.3 Dipole moment         0.00000000     0.00000000     0.00000000
 Dipole moment /Debye                   0.00000000     0.00000000     0.00000000



 Results for state 1.5
 =====================

 !MCSCF STATE 1.5 Energy               -1.877007624956
 Nuclear energy                         0.00000000
 Kinetic energy                         0.64168290
 One electron energy                   -2.75666531
 Two electron energy                    0.87965768
 Virial ratio                           3.92513267

 !MCSCF STATE 1.5 Dipole moment         0.00000000     0.00000000     0.00000000
 Dipole moment /Debye                   0.00000000     0.00000000     0.00000000

 State-averaged charge density matrix saved on record  5202.2 (density set 1)

 !MCSCF expec        <1.2|EKIN|1.2>     0.641682904568
 !MCSCF expec        <1.3|EKIN|1.3>     0.641682904568
 !MCSCF expec        <1.5|EKIN|1.5>     0.641682904568

 !MCSCF expec         <1.2|POT|1.2>    -1.245947164929
 !MCSCF expec         <1.3|POT|1.3>    -1.245947164929
 !MCSCF expec         <1.5|POT|1.5>    -1.245947164929


 NATURAL ORBITALS (state averaged)
 =================================

   Orb     Occ        Energy       Coefficients

                                   1 1s      1 1s      1 1s      1 1s      1 1s      1 3d0     1 3d2+    1 3d0     1 3d2+    1 3d0  
                                   1 3d2+    1 3d0     1 3d2+    1 5g0     1 5g4+    1 5g2+    1 5g0     1 5g4+    1 5g2+ 

   1.1  2.00000    -0.393851     0.999964 -0.000057  0.000212 -0.000310  0.000224  0.000000  0.000000  0.000000  0.000000  0.000000
                                 0.000000  0.000000  0.000000  0.000000  0.000000  0.000000  0.000000  0.000000  0.000000

                                   1 2px     1 2px     1 2px     1 2px     1 2px     1 4f1+    1 4f3+    1 4f1+    1 4f3+    1 4f1+ 
                                   1 4f3+ 

   1.2  0.33333     0.001398     0.999894 -0.000009  0.000027  0.000036  0.000061  0.000000  0.000000  0.000000  0.000000  0.000000
                                 0.000000

                                   1 2py     1 2py     1 2py     1 2py     1 2py     1 4f1-    1 4f3-    1 4f1-    1 4f3-    1 4f1- 
                                   1 4f3- 

   1.3  0.33333     0.001398     0.999894 -0.000009  0.000027  0.000036  0.000061  0.000000  0.000000  0.000000  0.000000  0.000000
                                 0.000000

                                   1 2pz     1 2pz     1 2pz     1 2pz     1 2pz     1 4f0     1 4f2+    1 4f0     1 4f2+    1 4f0  
                                   1 4f2+ 

   1.5  0.33333     0.001398     0.999894 -0.000009  0.000027  0.000036  0.000061  0.000000  0.000000  0.000000  0.000000  0.000000
                                 0.000000
 

 EXTRA SYMMETRY OF MOS IN SYMMETRY 1:   1 1 2 3 2 3 1 6 4 5   2 3 1 2 3 6 4 5 1
 EXTRA SYMMETRY OF MOS IN SYMMETRY 5:   1 1 3 2 1 3 2 1 3 2   1
 EXTRA SYMMETRY OF MOS IN SYMMETRY 7:   1 1 3 2 1 1 3 2

 Natural orbital dump (state averaged) at molpro section  5202.2    (Orbital set 2)


 CI vector for state symmetry 1
 ==============================

 a 0 0           1.0000000

 TOTAL ENERGIES                        -1.87700762

 CI vector for state symmetry 2
 ==============================

 0 a 0           1.0000000

 TOTAL ENERGIES                        -1.87700762

 CI vector for state symmetry 3
 ==============================

 0 0 a           1.0000000

 TOTAL ENERGIES                        -1.87700762



 **********************************************************************************************************************************
 DATASETS  * FILE   NREC   LENGTH (MB)   RECORD NAMES
              1      21       22.62       500      610      700      900      950      970     1000      129      960     1100   
                                          VAR    BASINP    GEOM    SYMINP    ZMAT    AOBASIS   BASIS     P2S    ABASIS      S 
                                         1400     1410     1420     1200     1210     1080     1600     1650     1300     1700   
                                         EKIN       V       ECP      H0       H01     AOSYM     SMH    MOLCAS    ERIS     OPER   
                                         1380   
                                         JKOP   

              2       5        5.31       700     1000      520     4202     5202   
                                         GEOM     BASIS   MCVARS     RHF     MCSCF   

 PROGRAMS   *        TOTAL     MULTI       RHF       INT
 CPU TIMES  *         0.69      0.07      0.08      0.45
 REAL TIME  *         3.07 SEC
 DISK USED  *        37.47 MB      
 **********************************************************************************************************************************


 PROGRAM * RHF-SCF (OPEN SHELL)       Authors: W. Meyer, H.-J. Werner


 NUMBER OF ELECTRONS:       2+    1-    SPACE SYMMETRY=2    SPIN SYMMETRY: Doublet 
 CONVERGENCE THRESHOLDS:    1.00E-05 (Density)    1.00E-07 (Energy)
 MAX. NUMBER OF ITERATIONS:        0
 INTERPOLATION TYPE:            DIIS
 INTERPOLATION STEPS:              2 (START)      1 (STEP)
 LEVEL SHIFTS:                 -0.60 (CLOSED) -0.30 (OPEN) 


 Singly occupied orbitals:      1.2
 Molecular orbitals read from record     5202.2  Type=MCSCF/NATURAL (state averaged)

 Molecular orbital dump at record        2101.2

 ITERATION    DDIFF          GRAD             ENERGY        2-EL.EN.            DIPOLE MOMENTS         DIIS   ORB.
    1      0.000D+00      0.000D+00        -1.87700762      1.759315    0.00000    0.00000    0.00000    0    start

 Final alpha occupancy:   1   1   0   0   0   0   0   0
 Final beta  occupancy:   1   0   0   0   0   0   0   0

 !RHF STATE 1.2 Energy                 -1.877007624956
 Nuclear energy                         0.00000000
 One-electron energy                   -2.75666531
 Two-electron energy                    0.87965768
 Virial quotient                       -2.92513267
 !RHF STATE 1.2 Dipole moment           0.00000000     0.00000000     0.00000000
 Dipole moment /Debye                   0.00000000     0.00000000     0.00000000
 

 !RHF expec          <1.2|EKIN|1.2>     0.641682904568
 
 !RHF expec           <1.2|POT|1.2>    -1.245947164929

 ELECTRON ORBITALS
 =================


   Orb  Occ    Energy  Couls-En    Coefficients

                                   1 1s      1 1s      1 1s      1 1s      1 1s      1 3d0     1 3d2+    1 3d0     1 3d2+    1 3d0  
                                   1 3d2+    1 3d0     1 3d2+    1 5g0     1 5g4+    1 5g2+    1 5g0     1 5g4+    1 5g2+ 

   1.1   2    -0.3939   -1.4017  0.999964 -0.000057  0.000212 -0.000310  0.000224  0.000000  0.000000  0.000000  0.000000  0.000000
                                 0.000000  0.000000  0.000000  0.000000  0.000000  0.000000  0.000000  0.000000  0.000000

                                   1 2px     1 2px     1 2px     1 2px     1 2px     1 4f1+    1 4f3+    1 4f1+    1 4f3+    1 4f1+ 
                                   1 4f3+ 

   1.2   +     0.0014   -0.7396  0.999894 -0.000009  0.000027  0.000036  0.000061  0.000000  0.000000  0.000000  0.000000  0.000000
                                 0.000000

 HOMO      1.2     0.001398 =       0.0380eV
 LUMO      1.3     0.001398 =       0.0380eV
 LUMO-HOMO         0.000000 =       0.0000eV


 **********************************************************************************************************************************
 DATASETS  * FILE   NREC   LENGTH (MB)   RECORD NAMES
              1      21       22.62       500      610      700      900      950      970     1000      129      960     1100   
                                          VAR    BASINP    GEOM    SYMINP    ZMAT    AOBASIS   BASIS     P2S    ABASIS      S 
                                         1400     1410     1420     1200     1210     1080     1600     1650     1300     1700   
                                         EKIN       V       ECP      H0       H01     AOSYM     SMH    MOLCAS    ERIS     OPER   
                                         1380   
                                         JKOP   

              2       6        7.84       700     1000      520     4202     5202     2101   
                                         GEOM     BASIS   MCVARS     RHF     MCSCF     RHF  

 PROGRAMS   *        TOTAL       RHF     MULTI       RHF       INT
 CPU TIMES  *         0.69      0.00      0.07      0.08      0.45
 REAL TIME  *         3.18 SEC
 DISK USED  *        37.47 MB      
 **********************************************************************************************************************************
 SETTING SCF(I)         =        -1.87700762  AU                              
 SETTING _CC_NORM_MAX   =         2.00000000                                  


 PROGRAM * CI (Multireference internally contracted CI)     Authors: H.-J. Werner, P.J. Knowles, 1987


 Convergence thresholds:  THRVAR = 1.00D-08  THRDEN = 1.00D-06

 Number of optimized states:  1  Roots:   1
 Number of reference states:  1  Roots:   1

 Reference symmetry:                   2   Doublet 
 Number of electrons:                  3
 Maximum number of shells:             2
 Maximum number of spin couplings:     2

 Reference space:        1 conf        1 CSFs
 N elec internal:        2 conf        2 CSFs
 N-1 el internal:        3 conf        4 CSFs
 N-2 el internal:        2 conf        4 CSFs

 Number of electrons in valence space:                      3
 Maximum number of open shell orbitals in reference space:  1
 Maximum number of open shell orbitals in internal spaces:  3


 Number of closed-shell orbitals:   1 (   1   0   0   0   0   0   0   0 )
 Number of active  orbitals:        1 (   0   1   0   0   0   0   0   0 )
 Number of external orbitals:      77 (  18  10  11   8  11   8   8   3 )

 Molecular orbitals read from record     2101.2  Type=RHF/CANONICAL (state 1.2)

 Coulomb and exchange operators available. No transformation done.

 Number of p-space configurations:   1

 Reference wavefunction optimized for reference space (refopt=1)

 State     Reference Energy 
   1          -1.87700762

 Number of blocks in overlap matrix:     3   Smallest eigenvalue:  0.10D+01
 Number of N-2 electron functions:       3
 Number of N-1 electron functions:       4

 Number of internal configurations:                    1
 Number of singly external configurations:            56
 Number of doubly external configurations:          1232
 Total number of contracted configurations:         1289
 Total number of uncontracted configurations:       1684

 Diagonal Coupling coefficients finished.               Storage:     176 words, CPU-Time:      0.00 seconds.
 Energy denominators for pairs finished in 1 passes.    Storage:    4053 words, CPU-time:      0.00 seconds.

  ITER. STATE  ROOT     SQ.NORM     CORR.ENERGY   TOTAL ENERGY   ENERGY CHANGE       DEN1      VAR(S)    VAR(P)      TIME
    1     1     1     1.00000000     0.00000000    -1.87700762    -0.00000000    -0.05511520  0.10D-01  0.49D-01     0.01
    2     1     1     1.05826355    -0.05465450    -1.93166212    -0.05465450    -0.00221375  0.59D-03  0.11D-02     0.01
    3     1     1     1.07536115    -0.05739565    -1.93440328    -0.00274115    -0.00010512  0.16D-04  0.67D-04     0.01
    4     1     1     1.07684597    -0.05753513    -1.93454275    -0.00013947    -0.00000808  0.15D-05  0.51D-05     0.02
    5     1     1     1.07710241    -0.05754536    -1.93455299    -0.00001024    -0.00000055  0.13D-06  0.36D-06     0.02
    6     1     1     1.07714546    -0.05754609    -1.93455371    -0.00000073    -0.00000003  0.83D-08  0.17D-07     0.02
    7     1     1     1.07715344    -0.05754613    -1.93455375    -0.00000004    -0.00000000  0.99D-09  0.83D-09     0.03


 =====================================
 Analysis of CPU times by interactions
 =====================================

       I      S      P

 I   0.0%
 S   0.0%   0.0%
 P   0.0%   0.0%   0.0%

 Initialization:  33.3%
 Other:           66.7%

 Total CPU:        0.0 seconds
 =====================================



 Reference coefficients greater than 0.0500000
 =============================================
 2/           0.9635211

 Coefficients of singly external configurations greater than 0.0500000
 =====================================================================

 \/   6.1    -0.0592347

 Coefficients of doubly external configurations greater than 0.0500000
 =====================================================================

 PAIR    I     J   ->   K     L     NP  SYM  REF     COEFFICIENTS

   1    1.1   1.1      1.5   1.5     1   1    1   -0.11327453
   1    1.1   1.1      1.3   1.3     1   1    1   -0.11327396



 RESULTS FOR STATE 1.2
 =====================

 Coefficient of reference function:   C(0) = 0.96352107 (fixed)   0.96352107 (relaxed)

 Energy contributions of configuration classes

 CLASS          SQ.NORM        ECORR1        ECORR2
 +++++++++++++++++++++++++++++++++++++++++++++++++++
 Internals    0.00000000    0.00000000   -0.00000000
 Singles      0.01371760   -0.00852374   -0.00864613
 Pairs        0.06343584   -0.04902238   -0.04889999
 Total        1.07715344   -0.05754613   -0.05754613
 +++++++++++++++++++++++++++++++++++++++++++++++++++


 Reference energy                      -1.87700762
 Nuclear energy                         0.00000000
 Kinetic energy                         0.69837653
 One electron energy                   -2.72959565
 Two electron energy                    0.79504190
 Virial quotient                       -2.77007270
 Correlation energy                    -0.05754613
 !CI(SD) STATE 1.2 Energy              -1.934553753217

 Properties without orbital relaxation:

 !CI(SD) STATE 1.2 Dipole moment        0.00000000     0.00000000     0.00000000
 Dipole moment /Debye                   0.00000000     0.00000000     0.00000000

 Cluster corrected energies            -1.93899363 (Davidson, fixed reference)
 Cluster corrected energies            -1.93899363 (Davidson, relaxed reference)

 Cluster corrected energies            -1.93455375 (Pople, fixed reference)
 Cluster corrected energies            -1.93455375 (Pople, relaxed reference)

 

 !CI(SD) expec       <1.2|EKIN|1.2>     0.698376526464
 
 !CI(SD) expec        <1.2|POT|1.2>    -1.256137591885


 **********************************************************************************************************************************
 DATASETS  * FILE   NREC   LENGTH (MB)   RECORD NAMES
              1      21       22.62       500      610      700      900      950      970     1000      129      960     1100   
                                          VAR    BASINP    GEOM    SYMINP    ZMAT    AOBASIS   BASIS     P2S    ABASIS      S 
                                         1400     1410     1420     1200     1210     1080     1600     1650     1300     1700   
                                         EKIN       V       ECP      H0       H01     AOSYM     SMH    MOLCAS    ERIS     OPER   
                                         1380   
                                         JKOP   

              2       6        7.84       700     1000      520     4202     5202     2101   
                                         GEOM     BASIS   MCVARS     RHF     MCSCF     RHF  

 PROGRAMS   *        TOTAL        CI       RHF     MULTI       RHF       INT
 CPU TIMES  *         0.74      0.05      0.00      0.07      0.08      0.45
 REAL TIME  *         3.77 SEC
 DISK USED  *        37.47 MB      
 **********************************************************************************************************************************
 SETTING POSTHF(I)      =        -1.93455375  AU                              
                                                                                                                                                                                                                                                                

       SCF           POSTHF       EKIN          POT
    -1.87700762   -1.93455375   0.69837653   -1.25613759
                                                  

 CI/USERDEF energy=     -1.934553753217

        CI              RHF-SCF         MULTI           RHF-SCF 
     -1.93455375     -1.87700762     -1.87700762     -1.87709009
 **********************************************************************************************************************************
 Variable memory released
