
 Primary working directories    : /global/cscratch1/sd/aannabe
 Secondary working directories  : /global/cscratch1/sd/aannabe
 Wavefunction directory         : /global/homes/a/aannabe/wfu/
 Main file repository           : /global/cscratch1/sd/aannabe/

 SHA1      : 2873118e99aab1bc19f5b6fc1784693c06d15c95
 NAME      : 2015.1.8
 ARCHNAME  : linux/x86_64
 FC        : /opt/cray/pe/craype/2.5.5/bin/ftn
 BLASLIB   : -Wl,-_start-group /opt/intel/compilers_and_libraries_2016.3.210/linux/mkl/lib/intel64/libmkl_intel_ilp64.a /opt/intel/compilers_and_libraries_2016.3.210/linux/mkl/lib/intel64/libmkl_intel_thread.a /opt/intel/compilers_and_libraries_2016.3.210/linux/mkl/lib/intel64/libmkl_core.a -Wl,-_end-group
 id        : lbl

 Nodes     nprocs
 nid00447     1

 Using customized tuning parameters: mindgm=8; mindgv=16; mindgc=4; mindgr=1; noblas=0; minvec=7
 default implementation of scratch files=df  

 ***,Al
 memory,512,m
 gthresh,twoint=1.e-12
 
 gprint,basis,orbitals
 gexpec,ekin,pot
 
 angstrom
 geometry={
 1                                                                               ! Number of atoms
 Al 0.0 0.0 0.0
 }
 
 basis={
 Including file /global/homes/a/aannabe/docs/accurate/ccECP_Kh/pps/Al.pp
 Including file /global/homes/a/aannabe/docs/accurate/ccECP_Kh/basis/aug-cc-pVnZ/Al_6z.basis
 }
 
 {rhf
  start,atden
  wf,3,2,1
  occ,1,1,0,0,0,0,0,0
  open,1.2
  save,4202.2
 }
 {multi
  start,4202.2
  occ,1,1,1,0,1,0,0
  closed,1,0,0,0,0,0,0,0
  wf,3,2,1;state,1
  wf,3,3,1;state,1
  wf,3,5,1;state,1
  natorb,ci,print
  orbital,5202.2
 }
 {rhf,nitord=1,maxit=0
  start,5202.2
  wf,3,2,1
  occ,1,1,0,0,0,0,0,0
  open,1.2
 }
 
 scf(i)=energy
 
 _CC_NORM_MAX=2.0
 {ci
 maxit,100
 core
 }
 posthf(i)=energy
 
 table,scf,posthf,ekin,pot
 save,6.csv,new
 
 

 Variables initialized (889), CPU time= 0.01 sec
 Commands  initialized (702), CPU time= 0.03 sec, 572 directives.
 Default parameters read. Elapsed time= 0.22 sec

 Checking input...
 Passed
1


                                         ***  PROGRAM SYSTEM MOLPRO  ***
                                       Copyright, TTI GmbH Stuttgart, 2015
                                    Version 2015.1 linked Sep  7 2016 23:09:38


 **********************************************************************************************************************************
 LABEL *   Al                                                                            
  64 bit serial version                                                                  DATE: 30-Oct-18          TIME: 11:47:21  
 **********************************************************************************************************************************

 SHA1:             2873118e99aab1bc19f5b6fc1784693c06d15c95
 **********************************************************************************************************************************

 THRESHOLDS:

 ZERO    =  1.00D-12  ONEINT  =  1.00D-12  TWOINT  =  1.00D-12  PREFAC  =  1.00D-14  LOCALI  =  1.00D-09  EORDER  =  1.00D-04
 ENERGY  =  0.00D+00  ETEST   =  0.00D+00  EDENS   =  0.00D+00  THRDEDEF=  1.00D-06  GRADIENT=  1.00D-02  STEP    =  1.00D-03
 ORBITAL =  1.00D-05  CIVEC   =  1.00D-05  COEFF   =  1.00D-04  PRINTCI =  5.00D-02  PUNCHCI =  9.90D+01  OPTGRAD =  3.00D-04
 OPTENERG=  1.00D-06  OPTSTEP =  3.00D-04  THRGRAD =  1.00D-10  COMPRESS=  1.00D-11  VARMIN  =  1.00D-07  VARMAX  =  1.00D-03
 THRDOUB =  0.00D+00  THRDIV  =  1.00D-05  THRRED  =  1.00D-07  THRPSP  =  1.00D+00  THRDC   =  1.00D-10  THRCS   =  1.00D-10
 THRNRM  =  1.00D-08  THREQ   =  0.00D+00  THRDE   =  1.00D+00  THRREF  =  1.00D-05  SPARFAC =  1.00D+00  THRDLP  =  1.00D-07
 THRDIA  =  1.00D-10  THRDLS  =  1.00D-07  THRGPS  =  0.00D+00  THRKEX  =  0.00D+00  THRDIS  =  2.00D-01  THRVAR  =  1.00D-10
 THRLOC  =  1.00D-06  THRGAP  =  1.00D-06  THRLOCT = -1.00D+00  THRGAPT = -1.00D+00  THRORB  =  1.00D-06  THRMLTP =  0.00D+00
 THRCPQCI=  1.00D-10  KEXTA   =  0.00D+00  THRCOARS=  0.00D+00  SYMTOL  =  1.00D-06  GRADTOL =  1.00D-06  THROVL  =  1.00D-08
 THRORTH =  1.00D-08  GRID    =  1.00D-06  GRIDMAX =  1.00D-03  DTMAX   =  0.00D+00  THROCCDE=  1.00D-01  THROCCDE=  1.00D-01



 ZUNIT=ANG
 

Geometry recognized as XYZ


 Variable memory set to  512000000 words,  buffer space   230000 words

 SETTING BASIS          =    USERDEF


 Recomputing integrals since basis changed


 Using spherical harmonics



 PROGRAM * SEWARD (Integral evaluation for generally contracted gaussian basis sets)     Author: Roland Lindh, 1990

 Geometry written to block  1 of record 700

 Orientation using atomic masses  
 Molecule type: Atom
 Symmetry elements: X,Y,Z
 Rotational constants:       0.0000000      0.0000000      0.0000000 GHz  (calculated with average atomic masses)

 Point group  D2h 



 ATOMIC COORDINATES

 NR  ATOM    CHARGE       X              Y              Z

   1  AL      3.00    0.000000000    0.000000000    0.000000000


          AL  CORE POTENTIAL

          d POTENTIAL

 POWERS             1              3              2
 EXPONENTIALS   2.978096       9.968130       2.721415    
 COEFFICIENTS   3.000000       8.934288      -9.402794    

          s - d POTENTIAL

 POWERS             2
 EXPONENTIALS   1.910508    
 COEFFICIENTS   17.57180    

          p - d POTENTIAL

 POWERS             2
 EXPONENTIALS   1.698219    
 COEFFICIENTS   12.14866    


 BASIS DATA

   Nr Sym  Nuc  Type         Exponents   Contraction coefficients

    1.1 Ag    1  1s          57.235801    -0.000002
                             25.924172    -0.000006
                             11.741998     0.000395
                              5.318377    -0.003539
                              2.408886     0.040296
                              1.091072    -0.240905
                              0.494186    -0.050811
                              0.223835     0.400848
                              0.101383     0.564749
                              0.045920     0.214083
    2.1 Ag    1  1s           0.022178     1.000000
    3.1 Ag    1  1s           0.048609     1.000000
    4.1 Ag    1  1s           0.106537     1.000000
    5.1 Ag    1  1s           0.233501     1.000000
    6.1 Ag    1  1s           0.511769     1.000000
    7.1 Ag    1  1s           1.121657     1.000000
    8.1 Ag    1  3d0          0.030910     1.000000
    9.1 Ag    1  3d2+         0.030910     1.000000
   10.1 Ag    1  3d0          0.069487     1.000000
   11.1 Ag    1  3d2+         0.069487     1.000000
   12.1 Ag    1  3d0          0.156209     1.000000
   13.1 Ag    1  3d2+         0.156209     1.000000
   14.1 Ag    1  3d0          0.351162     1.000000
   15.1 Ag    1  3d2+         0.351162     1.000000
   16.1 Ag    1  3d0          0.789424     1.000000
   17.1 Ag    1  3d2+         0.789424     1.000000
   18.1 Ag    1  3d0          1.774650     1.000000
   19.1 Ag    1  3d2+         1.774650     1.000000
   20.1 Ag    1  5g0          0.117253     1.000000
   21.1 Ag    1  5g4+         0.117253     1.000000
   22.1 Ag    1  5g2+         0.117253     1.000000
   23.1 Ag    1  5g0          0.212610     1.000000
   24.1 Ag    1  5g4+         0.212610     1.000000
   25.1 Ag    1  5g2+         0.212610     1.000000
   26.1 Ag    1  5g0          0.385518     1.000000
   27.1 Ag    1  5g4+         0.385518     1.000000
   28.1 Ag    1  5g2+         0.385518     1.000000
   29.1 Ag    1  5g0          0.699044     1.000000
   30.1 Ag    1  5g4+         0.699044     1.000000
   31.1 Ag    1  5g2+         0.699044     1.000000
   32.1 Ag    1  7i6+         0.204378     1.000000
   33.1 Ag    1  7i4+         0.204378     1.000000
   34.1 Ag    1  7i2+         0.204378     1.000000
   35.1 Ag    1  7i0          0.204378     1.000000
   36.1 Ag    1  7i6+         0.510945     1.000000
   37.1 Ag    1  7i4+         0.510945     1.000000
   38.1 Ag    1  7i2+         0.510945     1.000000
   39.1 Ag    1  7i0          0.510945     1.000000
    1.2 B3u   1  2px          8.647956    -0.000159
                              4.468163    -0.000538
                              2.308578     0.006271
                              1.192780    -0.051237
                              0.616277     0.014611
                              0.318413     0.144648
                              0.164516     0.299819
                              0.085001     0.373586
                              0.043918     0.253917
                              0.022691     0.063644
    2.2 B3u   1  2px          0.013042     1.000000
    3.2 B3u   1  2px          0.028704     1.000000
    4.2 B3u   1  2px          0.063175     1.000000
    5.2 B3u   1  2px          0.139042     1.000000
    6.2 B3u   1  2px          0.306017     1.000000
    7.2 B3u   1  2px          0.673514     1.000000
    8.2 B3u   1  4f1+         0.061864     1.000000
    9.2 B3u   1  4f3+         0.061864     1.000000
   10.2 B3u   1  4f1+         0.114291     1.000000
   11.2 B3u   1  4f3+         0.114291     1.000000
   12.2 B3u   1  4f1+         0.211149     1.000000
   13.2 B3u   1  4f3+         0.211149     1.000000
   14.2 B3u   1  4f1+         0.390092     1.000000
   15.2 B3u   1  4f3+         0.390092     1.000000
   16.2 B3u   1  4f1+         0.720683     1.000000
   17.2 B3u   1  4f3+         0.720683     1.000000
   18.2 B3u   1  6h1+         0.179123     1.000000
   19.2 B3u   1  6h3+         0.179123     1.000000
   20.2 B3u   1  6h5+         0.179123     1.000000
   21.2 B3u   1  6h1+         0.338765     1.000000
   22.2 B3u   1  6h3+         0.338765     1.000000
   23.2 B3u   1  6h5+         0.338765     1.000000
   24.2 B3u   1  6h1+         0.640686     1.000000
   25.2 B3u   1  6h3+         0.640686     1.000000
   26.2 B3u   1  6h5+         0.640686     1.000000
    1.3 B2u   1  2py          8.647956    -0.000159
                              4.468163    -0.000538
                              2.308578     0.006271
                              1.192780    -0.051237
                              0.616277     0.014611
                              0.318413     0.144648
                              0.164516     0.299819
                              0.085001     0.373586
                              0.043918     0.253917
                              0.022691     0.063644
    2.3 B2u   1  2py          0.013042     1.000000
    3.3 B2u   1  2py          0.028704     1.000000
    4.3 B2u   1  2py          0.063175     1.000000
    5.3 B2u   1  2py          0.139042     1.000000
    6.3 B2u   1  2py          0.306017     1.000000
    7.3 B2u   1  2py          0.673514     1.000000
    8.3 B2u   1  4f1-         0.061864     1.000000
    9.3 B2u   1  4f3-         0.061864     1.000000
   10.3 B2u   1  4f1-         0.114291     1.000000
   11.3 B2u   1  4f3-         0.114291     1.000000
   12.3 B2u   1  4f1-         0.211149     1.000000
   13.3 B2u   1  4f3-         0.211149     1.000000
   14.3 B2u   1  4f1-         0.390092     1.000000
   15.3 B2u   1  4f3-         0.390092     1.000000
   16.3 B2u   1  4f1-         0.720683     1.000000
   17.3 B2u   1  4f3-         0.720683     1.000000
   18.3 B2u   1  6h1-         0.179123     1.000000
   19.3 B2u   1  6h3-         0.179123     1.000000
   20.3 B2u   1  6h5-         0.179123     1.000000
   21.3 B2u   1  6h1-         0.338765     1.000000
   22.3 B2u   1  6h3-         0.338765     1.000000
   23.3 B2u   1  6h5-         0.338765     1.000000
   24.3 B2u   1  6h1-         0.640686     1.000000
   25.3 B2u   1  6h3-         0.640686     1.000000
   26.3 B2u   1  6h5-         0.640686     1.000000
    1.4 B1g   1  3d2-         0.030910     1.000000
    2.4 B1g   1  3d2-         0.069487     1.000000
    3.4 B1g   1  3d2-         0.156209     1.000000
    4.4 B1g   1  3d2-         0.351162     1.000000
    5.4 B1g   1  3d2-         0.789424     1.000000
    6.4 B1g   1  3d2-         1.774650     1.000000
    7.4 B1g   1  5g2-         0.117253     1.000000
    8.4 B1g   1  5g4-         0.117253     1.000000
    9.4 B1g   1  5g2-         0.212610     1.000000
   10.4 B1g   1  5g4-         0.212610     1.000000
   11.4 B1g   1  5g2-         0.385518     1.000000
   12.4 B1g   1  5g4-         0.385518     1.000000
   13.4 B1g   1  5g2-         0.699044     1.000000
   14.4 B1g   1  5g4-         0.699044     1.000000
   15.4 B1g   1  7i2-         0.204378     1.000000
   16.4 B1g   1  7i6-         0.204378     1.000000
   17.4 B1g   1  7i4-         0.204378     1.000000
   18.4 B1g   1  7i2-         0.510945     1.000000
   19.4 B1g   1  7i6-         0.510945     1.000000
   20.4 B1g   1  7i4-         0.510945     1.000000
    1.5 B1u   1  2pz          8.647956    -0.000159
                              4.468163    -0.000538
                              2.308578     0.006271
                              1.192780    -0.051237
                              0.616277     0.014611
                              0.318413     0.144648
                              0.164516     0.299819
                              0.085001     0.373586
                              0.043918     0.253917
                              0.022691     0.063644
    2.5 B1u   1  2pz          0.013042     1.000000
    3.5 B1u   1  2pz          0.028704     1.000000
    4.5 B1u   1  2pz          0.063175     1.000000
    5.5 B1u   1  2pz          0.139042     1.000000
    6.5 B1u   1  2pz          0.306017     1.000000
    7.5 B1u   1  2pz          0.673514     1.000000
    8.5 B1u   1  4f0          0.061864     1.000000
    9.5 B1u   1  4f2+         0.061864     1.000000
   10.5 B1u   1  4f0          0.114291     1.000000
   11.5 B1u   1  4f2+         0.114291     1.000000
   12.5 B1u   1  4f0          0.211149     1.000000
   13.5 B1u   1  4f2+         0.211149     1.000000
   14.5 B1u   1  4f0          0.390092     1.000000
   15.5 B1u   1  4f2+         0.390092     1.000000
   16.5 B1u   1  4f0          0.720683     1.000000
   17.5 B1u   1  4f2+         0.720683     1.000000
   18.5 B1u   1  6h2+         0.179123     1.000000
   19.5 B1u   1  6h4+         0.179123     1.000000
   20.5 B1u   1  6h0          0.179123     1.000000
   21.5 B1u   1  6h2+         0.338765     1.000000
   22.5 B1u   1  6h4+         0.338765     1.000000
   23.5 B1u   1  6h0          0.338765     1.000000
   24.5 B1u   1  6h2+         0.640686     1.000000
   25.5 B1u   1  6h4+         0.640686     1.000000
   26.5 B1u   1  6h0          0.640686     1.000000
    1.6 B2g   1  3d1+         0.030910     1.000000
    2.6 B2g   1  3d1+         0.069487     1.000000
    3.6 B2g   1  3d1+         0.156209     1.000000
    4.6 B2g   1  3d1+         0.351162     1.000000
    5.6 B2g   1  3d1+         0.789424     1.000000
    6.6 B2g   1  3d1+         1.774650     1.000000
    7.6 B2g   1  5g1+         0.117253     1.000000
    8.6 B2g   1  5g3+         0.117253     1.000000
    9.6 B2g   1  5g1+         0.212610     1.000000
   10.6 B2g   1  5g3+         0.212610     1.000000
   11.6 B2g   1  5g1+         0.385518     1.000000
   12.6 B2g   1  5g3+         0.385518     1.000000
   13.6 B2g   1  5g1+         0.699044     1.000000
   14.6 B2g   1  5g3+         0.699044     1.000000
   15.6 B2g   1  7i5+         0.204378     1.000000
   16.6 B2g   1  7i3+         0.204378     1.000000
   17.6 B2g   1  7i1+         0.204378     1.000000
   18.6 B2g   1  7i5+         0.510945     1.000000
   19.6 B2g   1  7i3+         0.510945     1.000000
   20.6 B2g   1  7i1+         0.510945     1.000000
    1.7 B3g   1  3d1-         0.030910     1.000000
    2.7 B3g   1  3d1-         0.069487     1.000000
    3.7 B3g   1  3d1-         0.156209     1.000000
    4.7 B3g   1  3d1-         0.351162     1.000000
    5.7 B3g   1  3d1-         0.789424     1.000000
    6.7 B3g   1  3d1-         1.774650     1.000000
    7.7 B3g   1  5g1-         0.117253     1.000000
    8.7 B3g   1  5g3-         0.117253     1.000000
    9.7 B3g   1  5g1-         0.212610     1.000000
   10.7 B3g   1  5g3-         0.212610     1.000000
   11.7 B3g   1  5g1-         0.385518     1.000000
   12.7 B3g   1  5g3-         0.385518     1.000000
   13.7 B3g   1  5g1-         0.699044     1.000000
   14.7 B3g   1  5g3-         0.699044     1.000000
   15.7 B3g   1  7i5-         0.204378     1.000000
   16.7 B3g   1  7i3-         0.204378     1.000000
   17.7 B3g   1  7i1-         0.204378     1.000000
   18.7 B3g   1  7i5-         0.510945     1.000000
   19.7 B3g   1  7i3-         0.510945     1.000000
   20.7 B3g   1  7i1-         0.510945     1.000000
    1.8 Au    1  4f2-         0.061864     1.000000
    2.8 Au    1  4f2-         0.114291     1.000000
    3.8 Au    1  4f2-         0.211149     1.000000
    4.8 Au    1  4f2-         0.390092     1.000000
    5.8 Au    1  4f2-         0.720683     1.000000
    6.8 Au    1  6h4-         0.179123     1.000000
    7.8 Au    1  6h2-         0.179123     1.000000
    8.8 Au    1  6h4-         0.338765     1.000000
    9.8 Au    1  6h2-         0.338765     1.000000
   10.8 Au    1  6h4-         0.640686     1.000000
   11.8 Au    1  6h2-         0.640686     1.000000

 NUCLEAR CHARGE:                    3
 NUMBER OF PRIMITIVE AOS:         329
 NUMBER OF SYMMETRY AOS:          224
 NUMBER OF CONTRACTIONS:          188   (  39Ag  +  26B3u +  26B2u +  20B1g +  26B1u +  20B2g +  20B3g +  11Au  )
 NUMBER OF CORE ORBITALS:           0   (   0Ag  +   0B3u +   0B2u +   0B1g +   0B1u +   0B2g +   0B3g +   0Au  )
 NUMBER OF VALENCE ORBITALS:        4   (   1Ag  +   1B3u +   1B2u +   0B1g +   1B1u +   0B2g +   0B3g +   0Au  )


 NUCLEAR REPULSION ENERGY    0.00000000

 EXTRA SYMMETRY OF AOS IN SYMMETRY 1:   1 1 1 1 1 1 1 2 3 2   3 2 3 2 3 2 3 2 3 4   5 6 4 5 6 4 5 6 4 5   6 7 8 910 7 8 910
 EXTRA SYMMETRY OF AOS IN SYMMETRY 2:   1 1 1 1 1 1 1 2 3 2   3 2 3 2 3 2 3 4 5 6   4 5 6 4 5 6
 EXTRA SYMMETRY OF AOS IN SYMMETRY 3:   1 1 1 1 1 1 1 2 3 2   3 2 3 2 3 2 3 4 5 6   4 5 6 4 5 6
 EXTRA SYMMETRY OF AOS IN SYMMETRY 4:   1 1 1 1 1 1 2 3 2 3   2 3 2 3 4 5 6 4 5 6
 EXTRA SYMMETRY OF AOS IN SYMMETRY 5:   1 1 1 1 1 1 1 2 3 2   3 2 3 2 3 2 3 4 5 6   4 5 6 4 5 6
 EXTRA SYMMETRY OF AOS IN SYMMETRY 6:   1 1 1 1 1 1 2 3 2 3   2 3 2 3 4 5 6 4 5 6
 EXTRA SYMMETRY OF AOS IN SYMMETRY 7:   1 1 1 1 1 1 2 3 2 3   2 3 2 3 4 5 6 4 5 6
 EXTRA SYMMETRY OF AOS IN SYMMETRY 8:   1 1 1 1 1 2 3 2 3 2   3

 Eigenvalues of metric

         1 0.456E-04 0.221E-02 0.158E-01 0.230E-01 0.230E-01 0.307E-01 0.307E-01 0.307E-01
         2 0.684E-04 0.817E-02 0.121E-01 0.121E-01 0.432E-01 0.883E-01 0.883E-01 0.112E+00
         3 0.684E-04 0.817E-02 0.121E-01 0.121E-01 0.432E-01 0.883E-01 0.883E-01 0.112E+00
         4 0.230E-01 0.307E-01 0.307E-01 0.921E-01 0.237E+00 0.237E+00 0.303E+00 0.533E+00
         5 0.684E-04 0.817E-02 0.121E-01 0.121E-01 0.432E-01 0.883E-01 0.883E-01 0.112E+00
         6 0.230E-01 0.307E-01 0.307E-01 0.921E-01 0.237E+00 0.237E+00 0.303E+00 0.533E+00
         7 0.230E-01 0.307E-01 0.307E-01 0.921E-01 0.237E+00 0.237E+00 0.303E+00 0.533E+00
         8 0.121E-01 0.883E-01 0.112E+00 0.112E+00 0.420E+00 0.710E+00 0.710E+00 0.140E+01


 Contracted 2-electron integrals neglected if value below      1.0D-12
 AO integral compression algorithm  1   Integral accuracy      1.0D-12

     116.654 MB (compressed) written to integral file ( 45.9%)


 NUMBER OF SORTED TWO-ELECTRON INTEGRALS:   20212815.     BUFFER LENGTH:  32768
 NUMBER OF SEGMENTS:   2  SEGMENT LENGTH:   15998787      RECORD LENGTH: 524288

 Memory used in sort:      16.56 MW

 SORT1 READ    31710950. AND WROTE    13213985. INTEGRALS IN     39 RECORDS. CPU TIME:     1.16 SEC, REAL TIME:     1.57 SEC
 SORT2 READ    13213985. AND WROTE    20212815. INTEGRALS IN    445 RECORDS. CPU TIME:     0.78 SEC, REAL TIME:     1.32 SEC

 FILE SIZES:   FILE 1:   136.6 MBYTE,  FILE 4:   163.6 MBYTE,   TOTAL:    300.2 MBYTE

 OPERATOR DM      FOR CENTER  0  COORDINATES:    0.000000    0.000000    0.000000
 OPERATOR EKIN    FOR CENTER  0  COORDINATES:    0.000000    0.000000    0.000000
 OPERATOR POT     FOR CENTER  0  COORDINATES:    0.000000    0.000000    0.000000


 **********************************************************************************************************************************
 DATASETS  * FILE   NREC   LENGTH (MB)   RECORD NAMES
              1      20       95.18       500      610      700      900      950      970     1000      129      960     1100   
                                          VAR    BASINP    GEOM    SYMINP    ZMAT    AOBASIS   BASIS     P2S    ABASIS      S 
                                         1400     1410     1420     1200     1210     1080     1600     1650     1300     1700   
                                         EKIN       V       ECP      H0       H01     AOSYM     SMH    MOLCAS    ERIS     OPER   

 PROGRAMS   *        TOTAL       INT
 CPU TIMES  *         9.18      8.95
 REAL TIME  *        12.58 SEC
 DISK USED  *       300.50 MB      
 **********************************************************************************************************************************


 PROGRAM * RHF-SCF (OPEN SHELL)       Authors: W. Meyer, H.-J. Werner


 NUMBER OF ELECTRONS:       2+    1-    SPACE SYMMETRY=2    SPIN SYMMETRY: Doublet 
 CONVERGENCE THRESHOLDS:    1.00E-05 (Density)    1.00E-07 (Energy)
 MAX. NUMBER OF ITERATIONS:       60
 INTERPOLATION TYPE:            DIIS
 INTERPOLATION STEPS:              2 (START)      1 (STEP)
 LEVEL SHIFTS:                 -0.60 (CLOSED) -0.30 (OPEN) 


 Singly occupied orbitals:      1.2

   Atom=AL basis=ECP10MWB_GUESS    lmin=0  lmax=1

 Orbital guess generated from atomic densities. Full valence occupancy:    1   1   1   0   1   0   0   0


 Molecular orbital dump at record        4202.2

 ITERATION    DDIFF          GRAD             ENERGY        2-EL.EN.            DIPOLE MOMENTS         DIIS   ORB.
    1      0.000D+00      0.000D+00        -1.86666815      1.643150    0.00000    0.00000    0.00000    0    start
    2      0.000D+00      0.300D-02        -1.87080105      1.684325    0.00000    0.00000    0.00000    1    diag,B
    3      0.258D-02      0.178D-02        -1.87396592      1.729889    0.00000    0.00000    0.00000    2    diag,B
    4      0.294D-02      0.902D-03        -1.87506300      1.753299    0.00000    0.00000    0.00000    3    diag,B
    5      0.211D-02      0.366D-03        -1.87519332      1.758016    0.00000    0.00000    0.00000    4    diag,B
    6      0.903D-03      0.114D-03        -1.87520077      1.758658    0.00000    0.00000    0.00000    5    diag,B
    7      0.384D-03      0.334D-04        -1.87520118      1.758574    0.00000    0.00000    0.00000    6    fixocc
    8      0.160D-03      0.989D-05        -1.87520122      1.758616    0.00000    0.00000    0.00000    7    diag,B
    9      0.305D-04      0.412D-05        -1.87520122      1.758604    0.00000    0.00000    0.00000    8    diag,B
   10      0.242D-04      0.326D-06        -1.87520122      1.758607    0.00000    0.00000    0.00000    9    orth
   11      0.168D-05      0.137D-06        -1.87520122      1.758607    0.00000    0.00000    0.00000    0    orth

 Final alpha occupancy:   1   1   0   0   0   0   0   0
 Final beta  occupancy:   1   0   0   0   0   0   0   0

 !RHF STATE 1.2 Energy                 -1.875201223336
 Nuclear energy                         0.00000000
 One-electron energy                   -2.75450467
 Two-electron energy                    0.87930344
 Virial quotient                       -2.99715251
 !RHF STATE 1.2 Dipole moment           0.00000000     0.00000000     0.00000000
 Dipole moment /Debye                   0.00000000     0.00000000     0.00000000
 

 !RHF expec          <1.2|EKIN|1.2>     0.625660929078
 
 !RHF expec           <1.2|POT|1.2>    -1.249445802956

 ELECTRON ORBITALS
 =================


   Orb  Occ    Energy  Couls-En    Coefficients

                                   1 1s      1 1s      1 1s      1 1s      1 1s      1 1s      1 1s      1 3d0     1 3d2+    1 3d0  
                                   1 3d2+    1 3d0     1 3d2+    1 3d0     1 3d2+    1 3d0     1 3d2+    1 3d0     1 3d2+    1 5g0  
                                   1 5g4+    1 5g2+    1 5g0     1 5g4+    1 5g2+    1 5g0     1 5g4+    1 5g2+    1 5g0     1 5g4+ 
                                   1 5g2+    1 7i6+    1 7i4+    1 7i2+    1 7i0     1 7i6+    1 7i4+    1 7i2+    1 7i0  

   1.1   2    -0.3929   -1.3996  1.003481  0.003625 -0.007877  0.004037 -0.004636  0.001796  0.000206 -0.000979  0.001695 -0.004260
                                 0.007378 -0.000342  0.000592  0.000706 -0.001223 -0.000312  0.000540 -0.000031  0.000054 -0.000053
                                -0.000104  0.000079  0.000002  0.000004 -0.000003 -0.000004 -0.000008  0.000006  0.000001  0.000002
                                -0.000002  0.000001 -0.000001  0.000001 -0.000000 -0.000000  0.000000 -0.000000  0.000000

                                   1 2px     1 2px     1 2px     1 2px     1 2px     1 2px     1 2px     1 4f1+    1 4f3+    1 4f1+ 
                                   1 4f3+    1 4f1+    1 4f3+    1 4f1+    1 4f3+    1 4f1+    1 4f3+    1 6h1+    1 6h3+    1 6h5+ 
                                   1 6h1+    1 6h3+    1 6h5+    1 6h1+    1 6h3+    1 6h5+ 

   1.2   +    -0.2102   -0.9511  0.999285  0.000859 -0.001026  0.001482 -0.000583  0.000362 -0.000070 -0.000147  0.000190  0.000049
                                -0.000063  0.000067 -0.000086  0.000039 -0.000051 -0.000003  0.000003 -0.000002  0.000002 -0.000003
                                 0.000001 -0.000001  0.000001 -0.000000  0.000000 -0.000000

 HOMO      1.2    -0.210152 =      -5.7185eV
 LUMO      1.3     0.006897 =       0.1877eV
 LUMO-HOMO         0.217049 =       5.9062eV


 **********************************************************************************************************************************
 DATASETS  * FILE   NREC   LENGTH (MB)   RECORD NAMES
              1      20       95.18       500      610      700      900      950      970     1000      129      960     1100   
                                          VAR    BASINP    GEOM    SYMINP    ZMAT    AOBASIS   BASIS     P2S    ABASIS      S 
                                         1400     1410     1420     1200     1210     1080     1600     1650     1300     1700   
                                         EKIN       V       ECP      H0       H01     AOSYM     SMH    MOLCAS    ERIS     OPER   

              2       4        2.92       700     1000      520     4202   
                                         GEOM     BASIS   MCVARS     RHF  

 PROGRAMS   *        TOTAL       RHF       INT
 CPU TIMES  *         9.96      0.79      8.95
 REAL TIME  *        13.63 SEC
 DISK USED  *       300.50 MB      
 **********************************************************************************************************************************


 PROGRAM * MULTI (Direct Multiconfiguration SCF)       Authors: P.J. Knowles, H.-J. Werner (1984)     S.T. Elbert (1988)


 Number of closed-shell orbitals:   1 (   1   0   0   0   0   0   0   0 )
 Number of active  orbitals:        3 (   0   1   1   0   1   0   0   0 )
 Number of external orbitals:     184 (  38  25  25  20  25  20  20  11 )

 State symmetry 1

 Number of electrons:     1    Spin symmetry=Doublet   Space symmetry=2
 Number of states:        1
 Number of CSFs:          1   (1 determinants, 3 intermediate states)

 State symmetry 2

 Number of electrons:     1    Spin symmetry=Doublet   Space symmetry=3
 Number of states:        1
 Number of CSFs:          1   (1 determinants, 3 intermediate states)

 State symmetry 3

 Number of electrons:     1    Spin symmetry=Doublet   Space symmetry=5
 Number of states:        1
 Number of CSFs:          1   (1 determinants, 3 intermediate states)

 Molecular orbitals read from record     4202.2  Type=RHF/CANONICAL (state 1.2)
 *** IN SYMMETRY 1 ORBITAL  1 SYMMETRY CONTAMINATION OF 0.176D-01 HAS BEEN REMOVED

 EXTRA SYMMETRY OF MOS IN SYMMETRY 1:   1 1 2 3 1 3 2 4 5 6   3 2 1 2 4 3 5 6 9 8   710 1 4 5 6 2 3 9 8   710 4 5 6 1 2 3 1
 *** IN SYMMETRY 2 ORBITAL  1 SYMMETRY CONTAMINATION OF 0.705D-03 HAS BEEN REMOVED
 EXTRA SYMMETRY OF MOS IN SYMMETRY 2:   1 1 1 2 3 1 2 3 5 6   4 1 2 3 2 3 5 6 4 1   2 3 5 6 4 1
 *** IN SYMMETRY 3 ORBITAL  1 SYMMETRY CONTAMINATION OF 0.168D-01 HAS BEEN REMOVED
 EXTRA SYMMETRY OF MOS IN SYMMETRY 3:   1 1 1 2 3 1 2 3 4 5   6 1 2 3 2 3 4 5 6 1   2 3 4 5 6 1
 EXTRA SYMMETRY OF MOS IN SYMMETRY 4:   1 1 2 3 1 1 2 3 4 6   5 2 3 1 4 6 5 2 3 1
 *** IN SYMMETRY 5 ORBITAL  1 SYMMETRY CONTAMINATION OF 0.193D-01 HAS BEEN REMOVED
 EXTRA SYMMETRY OF MOS IN SYMMETRY 5:   1 1 1 2 3 1 2 3 6 5   4 1 2 3 2 3 6 5 4 1   2 3 6 5 4 1
 EXTRA SYMMETRY OF MOS IN SYMMETRY 6:   1 1 3 2 1 1 3 2 5 4   6 3 2 1 5 4 6 3 2 1
 EXTRA SYMMETRY OF MOS IN SYMMETRY 7:   1 1 2 3 1 1 2 3 6 5   4 2 3 1 6 5 4 2 3 1
 EXTRA SYMMETRY OF MOS IN SYMMETRY 8:   1 1 3 2 1 1 3 2 1 3   2

 Wavefunction dump at record             5202.2

 Convergence thresholds  0.10E-01 (gradient)  0.10E-05 (energy)  0.10E-02 (step length)

 Weight factors for state symmetry  1:    0.33333
 Weight factors for state symmetry  2:    0.33333
 Weight factors for state symmetry  3:    0.33333

 Number of orbital rotations:      113   (     0 Core/Active     38 Core/Virtual   0 Active/Active     75 Active/Virtual)
 Total number of variables:        116


 ITER. MIC  NCI  NEG     ENERGY(VAR)     ENERGY(PROJ)   ENERGY CHANGE     GRAD(0)  GRAD(ORB)   GRAD(CI)     STEP       TIME

   1   32   12    0      -1.84515702      -1.87516144   -0.03000442    0.04500243 0.00000000 0.00000000  0.79D+00      0.19
   2   15   12    0      -1.87507404      -1.87511880   -0.00004475    0.00704278 0.00000000 0.00000000  0.78D-02      0.35
   3   16   12    0      -1.87511883      -1.87511883   -0.00000000    0.00001141 0.00000000 0.00000000  0.27D-04      0.54

 ** WVFN ****  CONVERGENCE REACHED, FINAL GRADIENT:  0.54D-10



 Results for state 1.2
 =====================

 !MCSCF STATE 1.2 Energy               -1.875118834626
 Nuclear energy                         0.00000000
 Kinetic energy                         0.62563615
 One electron energy                   -2.75461596
 Two electron energy                    0.87949713
 Virial ratio                           3.99713950

 !MCSCF STATE 1.2 Dipole moment         0.00000000     0.00000000     0.00000000
 Dipole moment /Debye                   0.00000000     0.00000000     0.00000000



 Results for state 1.3
 =====================

 !MCSCF STATE 1.3 Energy               -1.875118834626
 Nuclear energy                         0.00000000
 Kinetic energy                         0.62563615
 One electron energy                   -2.75461596
 Two electron energy                    0.87949713
 Virial ratio                           3.99713950

 !MCSCF STATE 1.3 Dipole moment         0.00000000     0.00000000     0.00000000
 Dipole moment /Debye                   0.00000000     0.00000000     0.00000000



 Results for state 1.5
 =====================

 !MCSCF STATE 1.5 Energy               -1.875118834626
 Nuclear energy                         0.00000000
 Kinetic energy                         0.62563615
 One electron energy                   -2.75461596
 Two electron energy                    0.87949713
 Virial ratio                           3.99713950

 !MCSCF STATE 1.5 Dipole moment         0.00000000     0.00000000     0.00000000
 Dipole moment /Debye                   0.00000000     0.00000000     0.00000000

 State-averaged charge density matrix saved on record  5202.2 (density set 1)

 !MCSCF expec        <1.2|EKIN|1.2>     0.625636154791
 !MCSCF expec        <1.3|EKIN|1.3>     0.625636154796
 !MCSCF expec        <1.5|EKIN|1.5>     0.625636154796

 !MCSCF expec         <1.2|POT|1.2>    -1.249467824519
 !MCSCF expec         <1.3|POT|1.3>    -1.249467824522
 !MCSCF expec         <1.5|POT|1.5>    -1.249467824522


 NATURAL ORBITALS (state averaged)
 =================================

   Orb     Occ        Energy       Coefficients

                                   1 1s      1 1s      1 1s      1 1s      1 1s      1 1s      1 1s      1 3d0     1 3d2+    1 3d0  
                                   1 3d2+    1 3d0     1 3d2+    1 3d0     1 3d2+    1 3d0     1 3d2+    1 3d0     1 3d2+    1 5g0  
                                   1 5g4+    1 5g2+    1 5g0     1 5g4+    1 5g2+    1 5g0     1 5g4+    1 5g2+    1 5g0     1 5g4+ 
                                   1 5g2+    1 7i6+    1 7i4+    1 7i2+    1 7i0     1 7i6+    1 7i4+    1 7i2+    1 7i0  

   1.1  2.00000    -0.392811     1.003527  0.003615 -0.007527  0.003814 -0.004801  0.001890  0.000207  0.000000  0.000000  0.000000
                                 0.000000  0.000000  0.000000  0.000000  0.000000  0.000000  0.000000  0.000000  0.000000  0.000000
                                 0.000000  0.000000  0.000000  0.000000  0.000000  0.000000  0.000000  0.000000  0.000000  0.000000
                                 0.000000  0.000000  0.000000  0.000000  0.000000  0.000000  0.000000  0.000000  0.000000

                                   1 2px     1 2px     1 2px     1 2px     1 2px     1 2px     1 2px     1 4f1+    1 4f3+    1 4f1+ 
                                   1 4f3+    1 4f1+    1 4f3+    1 4f1+    1 4f3+    1 4f1+    1 4f3+    1 6h1+    1 6h3+    1 6h5+ 
                                   1 6h1+    1 6h3+    1 6h5+    1 6h1+    1 6h3+    1 6h5+ 

   1.2  0.33333     0.000846     0.999253  0.000896 -0.001167  0.001257 -0.000246  0.000393 -0.000098  0.000000  0.000000  0.000000
                                 0.000000  0.000000  0.000000  0.000000  0.000000  0.000000  0.000000  0.000000  0.000000  0.000000
                                 0.000000  0.000000  0.000000  0.000000  0.000000  0.000000

                                   1 2py     1 2py     1 2py     1 2py     1 2py     1 2py     1 2py     1 4f1-    1 4f3-    1 4f1- 
                                   1 4f3-    1 4f1-    1 4f3-    1 4f1-    1 4f3-    1 4f1-    1 4f3-    1 6h1-    1 6h3-    1 6h5- 
                                   1 6h1-    1 6h3-    1 6h5-    1 6h1-    1 6h3-    1 6h5- 

   1.3  0.33333     0.000846     0.999253  0.000896 -0.001167  0.001257 -0.000246  0.000393 -0.000098  0.000000  0.000000  0.000000
                                 0.000000  0.000000  0.000000  0.000000  0.000000  0.000000  0.000000  0.000000  0.000000  0.000000
                                 0.000000  0.000000  0.000000  0.000000  0.000000  0.000000

                                   1 2pz     1 2pz     1 2pz     1 2pz     1 2pz     1 2pz     1 2pz     1 4f0     1 4f2+    1 4f0  
                                   1 4f2+    1 4f0     1 4f2+    1 4f0     1 4f2+    1 4f0     1 4f2+    1 6h2+    1 6h4+    1 6h0  
                                   1 6h2+    1 6h4+    1 6h0     1 6h2+    1 6h4+    1 6h0  

   1.5  0.33333     0.000846     0.999253  0.000896 -0.001167  0.001257 -0.000246  0.000393 -0.000098  0.000000  0.000000  0.000000
                                 0.000000  0.000000  0.000000  0.000000  0.000000  0.000000  0.000000  0.000000  0.000000  0.000000
                                 0.000000  0.000000  0.000000  0.000000  0.000000  0.000000
 

 EXTRA SYMMETRY OF MOS IN SYMMETRY 1:   1 1 3 2 1 3 2 4 6 5   3 2 1 3 2 4 6 510 7   8 9 1 4 6 5 3 2 7 8  10 9 4 6 5 1 3 2 1
 EXTRA SYMMETRY OF MOS IN SYMMETRY 2:   1 1 1 3 2 1 2 3 5 4   6 1 2 3 2 3 5 4 6 1   2 3 4 5 6 1
 EXTRA SYMMETRY OF MOS IN SYMMETRY 3:   1 1 1 3 2 1 2 3 5 4   6 1 2 3 2 3 5 6 4 1   2 3 4 5 6 1
 EXTRA SYMMETRY OF MOS IN SYMMETRY 4:   1 1 2 3 1 1 2 3 5 6   4 2 3 1 5 6 4 2 3 1
 EXTRA SYMMETRY OF MOS IN SYMMETRY 5:   1 1 1 3 2 1 3 2 4 5   6 1 3 2 3 2 4 6 5 1   3 2 4 6 5 1
 EXTRA SYMMETRY OF MOS IN SYMMETRY 6:   1 1 3 2 1 1 3 2 4 6   5 3 2 1 6 5 4 3 2 1
 EXTRA SYMMETRY OF MOS IN SYMMETRY 7:   1 1 3 2 1 1 3 2 4 6   5 3 2 1 5 6 4 3 2 1

 Natural orbital dump (state averaged) at molpro section  5202.2    (Orbital set 2)


 CI vector for state symmetry 1
 ==============================

 a 0 0           1.0000000

 TOTAL ENERGIES                        -1.87511883

 CI vector for state symmetry 2
 ==============================

 0 a 0           1.0000000

 TOTAL ENERGIES                        -1.87511883

 CI vector for state symmetry 3
 ==============================

 0 0 a           1.0000000

 TOTAL ENERGIES                        -1.87511883



 **********************************************************************************************************************************
 DATASETS  * FILE   NREC   LENGTH (MB)   RECORD NAMES
              1      21       95.83       500      610      700      900      950      970     1000      129      960     1100   
                                          VAR    BASINP    GEOM    SYMINP    ZMAT    AOBASIS   BASIS     P2S    ABASIS      S 
                                         1400     1410     1420     1200     1210     1080     1600     1650     1300     1700   
                                         EKIN       V       ECP      H0       H01     AOSYM     SMH    MOLCAS    ERIS     OPER   
                                         1380   
                                         JKOP   

              2       5        5.60       700     1000      520     4202     5202   
                                         GEOM     BASIS   MCVARS     RHF     MCSCF   

 PROGRAMS   *        TOTAL     MULTI       RHF       INT
 CPU TIMES  *        10.69      0.72      0.79      8.95
 REAL TIME  *        15.23 SEC
 DISK USED  *       300.50 MB      
 **********************************************************************************************************************************


 PROGRAM * RHF-SCF (OPEN SHELL)       Authors: W. Meyer, H.-J. Werner


 NUMBER OF ELECTRONS:       2+    1-    SPACE SYMMETRY=2    SPIN SYMMETRY: Doublet 
 CONVERGENCE THRESHOLDS:    1.00E-05 (Density)    1.00E-07 (Energy)
 MAX. NUMBER OF ITERATIONS:        0
 INTERPOLATION TYPE:            DIIS
 INTERPOLATION STEPS:              2 (START)      1 (STEP)
 LEVEL SHIFTS:                 -0.60 (CLOSED) -0.30 (OPEN) 


 Singly occupied orbitals:      1.2
 Molecular orbitals read from record     5202.2  Type=MCSCF/NATURAL (state averaged)

 Molecular orbital dump at record        2101.2

 ITERATION    DDIFF          GRAD             ENERGY        2-EL.EN.            DIPOLE MOMENTS         DIIS   ORB.
    1      0.000D+00      0.000D+00        -1.87511883      1.758994    0.00000    0.00000    0.00000    0    start

 Final alpha occupancy:   1   1   0   0   0   0   0   0
 Final beta  occupancy:   1   0   0   0   0   0   0   0

 !RHF STATE 1.2 Energy                 -1.875118834626
 Nuclear energy                         0.00000000
 One-electron energy                   -2.75461596
 Two-electron energy                    0.87949713
 Virial quotient                       -2.99713950
 !RHF STATE 1.2 Dipole moment           0.00000000     0.00000000     0.00000000
 Dipole moment /Debye                   0.00000000     0.00000000     0.00000000
 

 !RHF expec          <1.2|EKIN|1.2>     0.625636154791
 
 !RHF expec           <1.2|POT|1.2>    -1.249467824519

 ELECTRON ORBITALS
 =================


   Orb  Occ    Energy  Couls-En    Coefficients

                                   1 1s      1 1s      1 1s      1 1s      1 1s      1 1s      1 1s      1 3d0     1 3d2+    1 3d0  
                                   1 3d2+    1 3d0     1 3d2+    1 3d0     1 3d2+    1 3d0     1 3d2+    1 3d0     1 3d2+    1 5g0  
                                   1 5g4+    1 5g2+    1 5g0     1 5g4+    1 5g2+    1 5g0     1 5g4+    1 5g2+    1 5g0     1 5g4+ 
                                   1 5g2+    1 7i6+    1 7i4+    1 7i2+    1 7i0     1 7i6+    1 7i4+    1 7i2+    1 7i0  

   1.1   2    -0.3928   -1.3996  1.003527  0.003615 -0.007527  0.003814 -0.004801  0.001890  0.000207  0.000000  0.000000  0.000000
                                 0.000000  0.000000  0.000000  0.000000  0.000000  0.000000  0.000000  0.000000  0.000000  0.000000
                                 0.000000  0.000000  0.000000  0.000000  0.000000  0.000000  0.000000  0.000000  0.000000  0.000000
                                 0.000000  0.000000  0.000000  0.000000  0.000000  0.000000  0.000000  0.000000  0.000000

                                   1 2px     1 2px     1 2px     1 2px     1 2px     1 2px     1 2px     1 4f1+    1 4f3+    1 4f1+ 
                                   1 4f3+    1 4f1+    1 4f3+    1 4f1+    1 4f3+    1 4f1+    1 4f3+    1 6h1+    1 6h3+    1 6h5+ 
                                   1 6h1+    1 6h3+    1 6h5+    1 6h1+    1 6h3+    1 6h5+ 

   1.2   +     0.0008   -0.7402  0.999253  0.000896 -0.001167  0.001257 -0.000246  0.000393 -0.000098  0.000000  0.000000  0.000000
                                 0.000000  0.000000  0.000000  0.000000  0.000000  0.000000  0.000000  0.000000  0.000000  0.000000
                                 0.000000  0.000000  0.000000  0.000000  0.000000  0.000000

 HOMO      1.2     0.000846 =       0.0230eV
 LUMO      1.3     0.000846 =       0.0230eV
 LUMO-HOMO         0.000000 =       0.0000eV


 **********************************************************************************************************************************
 DATASETS  * FILE   NREC   LENGTH (MB)   RECORD NAMES
              1      21       95.83       500      610      700      900      950      970     1000      129      960     1100   
                                          VAR    BASINP    GEOM    SYMINP    ZMAT    AOBASIS   BASIS     P2S    ABASIS      S 
                                         1400     1410     1420     1200     1210     1080     1600     1650     1300     1700   
                                         EKIN       V       ECP      H0       H01     AOSYM     SMH    MOLCAS    ERIS     OPER   
                                         1380   
                                         JKOP   

              2       6        8.31       700     1000      520     4202     5202     2101   
                                         GEOM     BASIS   MCVARS     RHF     MCSCF     RHF  

 PROGRAMS   *        TOTAL       RHF     MULTI       RHF       INT
 CPU TIMES  *        10.77      0.08      0.72      0.79      8.95
 REAL TIME  *        15.40 SEC
 DISK USED  *       300.50 MB      
 **********************************************************************************************************************************
 SETTING SCF(I)         =        -1.87511883  AU                              
 SETTING _CC_NORM_MAX   =         2.00000000                                  


 PROGRAM * CI (Multireference internally contracted CI)     Authors: H.-J. Werner, P.J. Knowles, 1987


 Convergence thresholds:  THRVAR = 1.00D-08  THRDEN = 1.00D-06

 Number of optimized states:  1  Roots:   1
 Number of reference states:  1  Roots:   1

 Reference symmetry:                   2   Doublet 
 Number of electrons:                  3
 Maximum number of shells:             2
 Maximum number of spin couplings:     2

 Reference space:        1 conf        1 CSFs
 N elec internal:        2 conf        2 CSFs
 N-1 el internal:        3 conf        4 CSFs
 N-2 el internal:        2 conf        4 CSFs

 Number of electrons in valence space:                      3
 Maximum number of open shell orbitals in reference space:  1
 Maximum number of open shell orbitals in internal spaces:  3


 Number of closed-shell orbitals:   1 (   1   0   0   0   0   0   0   0 )
 Number of active  orbitals:        1 (   0   1   0   0   0   0   0   0 )
 Number of external orbitals:     186 (  38  25  26  20  26  20  20  11 )

 Molecular orbitals read from record     2101.2  Type=RHF/CANONICAL (state 1.2)

 Coulomb and exchange operators available. No transformation done.

 Number of p-space configurations:   1

 Reference wavefunction optimized for reference space (refopt=1)

 State     Reference Energy 
   1          -1.87511883

 Number of blocks in overlap matrix:     3   Smallest eigenvalue:  0.10D+01
 Number of N-2 electron functions:       3
 Number of N-1 electron functions:       4

 Number of internal configurations:                    1
 Number of singly external configurations:           126
 Number of doubly external configurations:          6884
 Total number of contracted configurations:         7011
 Total number of uncontracted configurations:       9289

 Diagonal Coupling coefficients finished.               Storage:     176 words, CPU-Time:      0.00 seconds.
 Energy denominators for pairs finished in 1 passes.    Storage:   20316 words, CPU-time:      0.00 seconds.

  ITER. STATE  ROOT     SQ.NORM     CORR.ENERGY   TOTAL ENERGY   ENERGY CHANGE       DEN1      VAR(S)    VAR(P)      TIME
    1     1     1     1.00000000     0.00000000    -1.87511883    -0.00000000    -0.05560670  0.10D-01  0.48D-01     0.01
    2     1     1     1.05575752    -0.05455328    -1.92967212    -0.05455328    -0.00269516  0.59D-03  0.12D-02     0.23
    3     1     1     1.07477313    -0.05775774    -1.93287657    -0.00320446    -0.00013448  0.20D-04  0.77D-04     0.42
    4     1     1     1.07663258    -0.05793855    -1.93305738    -0.00018081    -0.00000973  0.14D-05  0.55D-05     0.61
    5     1     1     1.07689136    -0.05795085    -1.93306969    -0.00001231    -0.00000088  0.16D-06  0.48D-06     0.82
    6     1     1     1.07695229    -0.05795193    -1.93307076    -0.00000108    -0.00000006  0.21D-07  0.28D-07     0.96
    7     1     1     1.07696861    -0.05795201    -1.93307084    -0.00000008    -0.00000000  0.21D-08  0.15D-08     1.10


 =====================================
 Analysis of CPU times by interactions
 =====================================

       I      S      P

 I   0.0%
 S   0.0%   0.9%
 P   0.0%   0.9%   0.0%

 Initialization:   0.9%
 Other:           97.3%

 Total CPU:        1.1 seconds
 =====================================



 Reference coefficients greater than 0.0500000
 =============================================
 2/           0.9636037

 Coefficients of singly external configurations greater than 0.0500000
 =====================================================================

 \/   6.1    -0.0548983

 Coefficients of doubly external configurations greater than 0.0500000
 =====================================================================

 PAIR    I     J   ->   K     L     NP  SYM  REF     COEFFICIENTS

   1    1.1   1.1      1.5   1.5     1   1    1   -0.11332981
   1    1.1   1.1      1.3   1.3     1   1    1   -0.11332900



 RESULTS FOR STATE 1.2
 =====================

 Coefficient of reference function:   C(0) = 0.96360374 (fixed)   0.96360374 (relaxed)

 Energy contributions of configuration classes

 CLASS          SQ.NORM        ECORR1        ECORR2
 +++++++++++++++++++++++++++++++++++++++++++++++++++
 Internals    0.00000000    0.00000000   -0.00000000
 Singles      0.01370583   -0.00850956   -0.00863953
 Pairs        0.06326278   -0.04944245   -0.04931248
 Total        1.07696861   -0.05795201   -0.05795201
 +++++++++++++++++++++++++++++++++++++++++++++++++++


 Reference energy                      -1.87511883
 Nuclear energy                         0.00000000
 Kinetic energy                         0.68346397
 One electron energy                   -2.72778169
 Two electron energy                    0.79471085
 Virial quotient                       -2.82834343
 Correlation energy                    -0.05795201
 !CI(SD) STATE 1.2 Energy              -1.933070841924

 Properties without orbital relaxation:

 !CI(SD) STATE 1.2 Dipole moment        0.00000000     0.00000000     0.00000000
 Dipole moment /Debye                   0.00000000     0.00000000     0.00000000

 Cluster corrected energies            -1.93753133 (Davidson, fixed reference)
 Cluster corrected energies            -1.93753133 (Davidson, relaxed reference)

 Cluster corrected energies            -1.93307084 (Pople, fixed reference)
 Cluster corrected energies            -1.93307084 (Pople, relaxed reference)

 

 !CI(SD) expec       <1.2|EKIN|1.2>     0.683463974913
 
 !CI(SD) expec        <1.2|POT|1.2>    -1.259271465431


 **********************************************************************************************************************************
 DATASETS  * FILE   NREC   LENGTH (MB)   RECORD NAMES
              1      21       95.83       500      610      700      900      950      970     1000      129      960     1100   
                                          VAR    BASINP    GEOM    SYMINP    ZMAT    AOBASIS   BASIS     P2S    ABASIS      S 
                                         1400     1410     1420     1200     1210     1080     1600     1650     1300     1700   
                                         EKIN       V       ECP      H0       H01     AOSYM     SMH    MOLCAS    ERIS     OPER   
                                         1380   
                                         JKOP   

              2       6        8.31       700     1000      520     4202     5202     2101   
                                         GEOM     BASIS   MCVARS     RHF     MCSCF     RHF  

 PROGRAMS   *        TOTAL        CI       RHF     MULTI       RHF       INT
 CPU TIMES  *        11.92      1.14      0.08      0.72      0.79      8.95
 REAL TIME  *        17.35 SEC
 DISK USED  *       300.50 MB      
 **********************************************************************************************************************************
 SETTING POSTHF(I)      =        -1.93307084  AU                              
                                                                                                                                                                                                                                                                

       SCF           POSTHF       EKIN          POT
    -1.87511883   -1.93307084   0.68346397   -1.25927147
                                                  

 CI/USERDEF energy=     -1.933070841924

        CI              RHF-SCF         MULTI           RHF-SCF 
     -1.93307084     -1.87511883     -1.87511883     -1.87520122
 **********************************************************************************************************************************
 Variable memory released
