
 Primary working directories    : /global/cscratch1/sd/aannabe
 Secondary working directories  : /global/cscratch1/sd/aannabe
 Wavefunction directory         : /global/homes/a/aannabe/wfu/
 Main file repository           : /global/cscratch1/sd/aannabe/

 SHA1      : 19cd028119e0e09f93f0674bd8af7968d9b3eff6
 NAME      : 2015.1.36
 ARCHNAME  : linux/x86_64
 FC        : /opt/cray/pe/craype/2.5.14/bin/ftn
 BLASLIB   : -L/opt/intel/compilers_and_libraries_2018.1.163/linux/mkl/lib/intel64 -Wl,-_start-group -lmkl_intel_ilp64 -lmkl_intel_thread -lmkl_core -Wl,-_end-group -liomp5
 id        : lbl

 Nodes     nprocs
 nid00461     1

 Using customized tuning parameters: mindgm=7; mindgv=16; mindgc=1; mindgr=1; noblas=0; minvec=7
 default implementation of scratch files=df  

 ***,Mg
 memory,512,m
 gthresh,twoint=1.e-12
 
 gprint,basis,orbitals
 gexpec,ekin,pot
 
 angstrom
 geometry={
 1                                                                               ! Number of atoms
 Mg 0.0 0.0 0.0
 }
 
 basis={
 Including file /global/homes/a/aannabe/repos/pseudopotentiallibrary/recipes/Mg/ccECP_He_core/Mg.ccECP.molpro
 Including file /global/homes/a/aannabe/repos/pseudopotentiallibrary/recipes/Mg/ccECP_He_core/cc-pCVTZ.molpro
 }
 
 {hf
  wf,10,1,0
 }
 scf(i)=energy
 
 _CC_NORM_MAX=2.0
 {ci
 maxit,100
 core
 }
 posthf(i)=energy
 
 table,scf,posthf,ekin,pot
 save,3.csv,new
 
 

 Variables initialized (889), CPU time= 0.01 sec
 Commands  initialized (702), CPU time= 0.00 sec, 572 directives.
 Default parameters read. Elapsed time= 0.22 sec

 Checking input...
 Passed
1


                                         ***  PROGRAM SYSTEM MOLPRO  ***
                                       Copyright, TTI GmbH Stuttgart, 2015
                                    Version 2015.1 linked Dec 29 2018 15:55:43


 **********************************************************************************************************************************
 LABEL *   Mg                                                                            
  64 bit serial version                                                                  DATE: 03-Jan-19          TIME: 16:15:20  
 **********************************************************************************************************************************

 SHA1:             19cd028119e0e09f93f0674bd8af7968d9b3eff6
 **********************************************************************************************************************************

 THRESHOLDS:

 ZERO    =  1.00D-12  ONEINT  =  1.00D-12  TWOINT  =  1.00D-12  PREFAC  =  1.00D-14  LOCALI  =  1.00D-09  EORDER  =  1.00D-04
 ENERGY  =  0.00D+00  ETEST   =  0.00D+00  EDENS   =  0.00D+00  THRDEDEF=  1.00D-06  GRADIENT=  1.00D-02  STEP    =  1.00D-03
 ORBITAL =  1.00D-05  CIVEC   =  1.00D-05  COEFF   =  1.00D-04  PRINTCI =  5.00D-02  PUNCHCI =  9.90D+01  OPTGRAD =  3.00D-04
 OPTENERG=  1.00D-06  OPTSTEP =  3.00D-04  THRGRAD =  1.00D-10  COMPRESS=  1.00D-11  VARMIN  =  1.00D-07  VARMAX  =  1.00D-03
 THRDOUB =  0.00D+00  THRDIV  =  1.00D-05  THRRED  =  1.00D-07  THRPSP  =  1.00D+00  THRDC   =  1.00D-10  THRCS   =  1.00D-10
 THRNRM  =  1.00D-08  THREQ   =  0.00D+00  THRDE   =  1.00D+00  THRREF  =  1.00D-05  SPARFAC =  1.00D+00  THRDLP  =  1.00D-07
 THRDIA  =  1.00D-10  THRDLS  =  1.00D-07  THRGPS  =  0.00D+00  THRKEX  =  0.00D+00  THRDIS  =  2.00D-01  THRVAR  =  1.00D-10
 THRLOC  =  1.00D-06  THRGAP  =  1.00D-06  THRLOCT = -1.00D+00  THRGAPT = -1.00D+00  THRORB  =  1.00D-06  THRMLTP =  0.00D+00
 THRCPQCI=  1.00D-10  KEXTA   =  0.00D+00  THRCOARS=  0.00D+00  SYMTOL  =  1.00D-06  GRADTOL =  1.00D-06  THROVL  =  1.00D-08
 THRORTH =  1.00D-08  GRID    =  1.00D-06  GRIDMAX =  1.00D-03  DTMAX   =  0.00D+00  THROCCDE=  1.00D-01  THROCCDE=  1.00D-01



 ZUNIT=ANG
 

Geometry recognized as XYZ


 Variable memory set to  512000000 words,  buffer space   230000 words

 SETTING BASIS          =    USERDEF


 Recomputing integrals since basis changed


 Using spherical harmonics



 PROGRAM * SEWARD (Integral evaluation for generally contracted gaussian basis sets)     Author: Roland Lindh, 1990

 Geometry written to block  1 of record 700

 Orientation using atomic masses  
 Molecule type: Atom
 Symmetry elements: X,Y,Z
 Rotational constants:       0.0000000      0.0000000      0.0000000 GHz  (calculated with average atomic masses)

 Point group  D2h 



 ATOMIC COORDINATES

 NR  ATOM    CHARGE       X              Y              Z

   1  MG      2.00    0.000000000    0.000000000    0.000000000


          MG  CORE POTENTIAL

          d POTENTIAL

 POWERS             1              3              2              1              1
 EXPONENTIALS   10.13682       10.45765       10.10960       0.000000       0.000000    
 COEFFICIENTS   10.00000       101.3683      -68.59640       2.000000      -10.00000    

          s - d POTENTIAL

 POWERS             2              2
 EXPONENTIALS   72.71876       19.37565    
 COEFFICIENTS   25.15210       84.96993    

          p - d POTENTIAL

 POWERS             2
 EXPONENTIALS   1.000000    
 COEFFICIENTS   0.000000    


 BASIS DATA

   Nr Sym  Nuc  Type         Exponents   Contraction coefficients

    1.1 Ag    1  1s          63.931893    -0.000794    0.000106
    2.1 Ag                   31.602596     0.007479   -0.001086
                             15.621687    -0.136246    0.028676
                              7.722059    -0.032033    0.005781
                              3.817142     0.216823   -0.050653
                              1.886877     0.451364   -0.116877
                              0.932714     0.377599   -0.165121
                              0.461056     0.094319   -0.118016
                              0.227908     0.001703    0.108365
                              0.112659     0.000485    0.414755
                              0.055689    -0.000151    0.477633
                              0.027528     0.000031    0.173476
    3.1 Ag    1  1s          15.766964     1.000000
    4.1 Ag    1  1s           3.605149     1.000000
    5.1 Ag    1  1s           0.244655     1.000000
    6.1 Ag    1  1s           0.038921     1.000000
    7.1 Ag    1  3d0          7.278986     1.000000
    8.1 Ag    1  3d2+         7.278986     1.000000
    9.1 Ag    1  3d0          2.181399     1.000000
   10.1 Ag    1  3d2+         2.181399     1.000000
   11.1 Ag    1  3d0          0.301585     1.000000
   12.1 Ag    1  3d2+         0.301585     1.000000
   13.1 Ag    1  3d0          0.124814     1.000000
   14.1 Ag    1  3d2+         0.124814     1.000000
    1.2 B3u   1  2px         28.231094     0.011317   -0.001822
    2.2 B3u                  14.891993     0.087039   -0.013603
                              7.855575     0.162683   -0.025700
                              4.143841     0.241386   -0.039076
                              2.185889     0.290064   -0.048779
                              1.153064     0.252991   -0.045990
                              0.608245     0.133097   -0.031658
                              0.320851     0.028941    0.049178
                              0.169250     0.003209    0.186909
                              0.089280     0.000268    0.379396
                              0.047095     0.000257    0.335431
                              0.024843    -0.000037    0.184058
    3.2 B3u   1  2px         11.717419     1.000000
    4.2 B3u   1  2px          3.753444     1.000000
    5.2 B3u   1  2px          0.183646     1.000000
    6.2 B3u   1  2px          0.085242     1.000000
    7.2 B3u   1  4f1+         4.614535     1.000000
    8.2 B3u   1  4f3+         4.614535     1.000000
    9.2 B3u   1  4f1+         0.243874     1.000000
   10.2 B3u   1  4f3+         0.243874     1.000000
    1.3 B2u   1  2py         28.231094     0.011317   -0.001822
    2.3 B2u                  14.891993     0.087039   -0.013603
                              7.855575     0.162683   -0.025700
                              4.143841     0.241386   -0.039076
                              2.185889     0.290064   -0.048779
                              1.153064     0.252991   -0.045990
                              0.608245     0.133097   -0.031658
                              0.320851     0.028941    0.049178
                              0.169250     0.003209    0.186909
                              0.089280     0.000268    0.379396
                              0.047095     0.000257    0.335431
                              0.024843    -0.000037    0.184058
    3.3 B2u   1  2py         11.717419     1.000000
    4.3 B2u   1  2py          3.753444     1.000000
    5.3 B2u   1  2py          0.183646     1.000000
    6.3 B2u   1  2py          0.085242     1.000000
    7.3 B2u   1  4f1-         4.614535     1.000000
    8.3 B2u   1  4f3-         4.614535     1.000000
    9.3 B2u   1  4f1-         0.243874     1.000000
   10.3 B2u   1  4f3-         0.243874     1.000000
    1.4 B1g   1  3d2-         7.278986     1.000000
    2.4 B1g   1  3d2-         2.181399     1.000000
    3.4 B1g   1  3d2-         0.301585     1.000000
    4.4 B1g   1  3d2-         0.124814     1.000000
    1.5 B1u   1  2pz         28.231094     0.011317   -0.001822
    2.5 B1u                  14.891993     0.087039   -0.013603
                              7.855575     0.162683   -0.025700
                              4.143841     0.241386   -0.039076
                              2.185889     0.290064   -0.048779
                              1.153064     0.252991   -0.045990
                              0.608245     0.133097   -0.031658
                              0.320851     0.028941    0.049178
                              0.169250     0.003209    0.186909
                              0.089280     0.000268    0.379396
                              0.047095     0.000257    0.335431
                              0.024843    -0.000037    0.184058
    3.5 B1u   1  2pz         11.717419     1.000000
    4.5 B1u   1  2pz          3.753444     1.000000
    5.5 B1u   1  2pz          0.183646     1.000000
    6.5 B1u   1  2pz          0.085242     1.000000
    7.5 B1u   1  4f0          4.614535     1.000000
    8.5 B1u   1  4f2+         4.614535     1.000000
    9.5 B1u   1  4f0          0.243874     1.000000
   10.5 B1u   1  4f2+         0.243874     1.000000
    1.6 B2g   1  3d1+         7.278986     1.000000
    2.6 B2g   1  3d1+         2.181399     1.000000
    3.6 B2g   1  3d1+         0.301585     1.000000
    4.6 B2g   1  3d1+         0.124814     1.000000
    1.7 B3g   1  3d1-         7.278986     1.000000
    2.7 B3g   1  3d1-         2.181399     1.000000
    3.7 B3g   1  3d1-         0.301585     1.000000
    4.7 B3g   1  3d1-         0.124814     1.000000
    1.8 Au    1  4f2-         4.614535     1.000000
    2.8 Au    1  4f2-         0.243874     1.000000

 NUCLEAR CHARGE:                    2
 NUMBER OF PRIMITIVE AOS:         108
 NUMBER OF SYMMETRY AOS:           98
 NUMBER OF CONTRACTIONS:           58   (  14Ag  +  10B3u +  10B2u +   4B1g +  10B1u +   4B2g +   4B3g +   2Au  )
 NUMBER OF CORE ORBITALS:           0   (   0Ag  +   0B3u +   0B2u +   0B1g +   0B1u +   0B2g +   0B3g +   0Au  )
 NUMBER OF VALENCE ORBITALS:        4   (   1Ag  +   1B3u +   1B2u +   0B1g +   1B1u +   0B2g +   0B3g +   0Au  )


 NUCLEAR REPULSION ENERGY    0.00000000

 EXTRA SYMMETRY OF AOS IN SYMMETRY 1:   1 1 1 1 1 1 2 3 2 3   2 3 2 3
 EXTRA SYMMETRY OF AOS IN SYMMETRY 2:   1 1 1 1 1 1 2 3 2 3
 EXTRA SYMMETRY OF AOS IN SYMMETRY 3:   1 1 1 1 1 1 2 3 2 3
 EXTRA SYMMETRY OF AOS IN SYMMETRY 5:   1 1 1 1 1 1 2 3 2 3

 Eigenvalues of metric

         1 0.691E-02 0.477E-01 0.250E+00 0.250E+00 0.293E+00 0.464E+00 0.464E+00 0.759E+00
         2 0.202E-01 0.470E-01 0.229E+00 0.445E+00 0.976E+00 0.976E+00 0.102E+01 0.102E+01
         3 0.202E-01 0.470E-01 0.229E+00 0.445E+00 0.976E+00 0.976E+00 0.102E+01 0.102E+01
         4 0.250E+00 0.464E+00 0.146E+01 0.183E+01
         5 0.202E-01 0.470E-01 0.229E+00 0.445E+00 0.976E+00 0.976E+00 0.102E+01 0.102E+01
         6 0.250E+00 0.464E+00 0.146E+01 0.183E+01
         7 0.250E+00 0.464E+00 0.146E+01 0.183E+01
         8 0.976E+00 0.102E+01


 Contracted 2-electron integrals neglected if value below      1.0D-12
 AO integral compression algorithm  1   Integral accuracy      1.0D-12

     2.097 MB (compressed) written to integral file ( 68.3%)


 NUMBER OF SORTED TWO-ELECTRON INTEGRALS:     203904.     BUFFER LENGTH:  32768
 NUMBER OF SEGMENTS:   1  SEGMENT LENGTH:     203904      RECORD LENGTH: 524288

 Memory used in sort:       0.76 MW

 SORT1 READ      417520. AND WROTE      167428. INTEGRALS IN      1 RECORDS. CPU TIME:     0.01 SEC, REAL TIME:     0.02 SEC
 SORT2 READ      167428. AND WROTE      203904. INTEGRALS IN      8 RECORDS. CPU TIME:     0.03 SEC, REAL TIME:     0.05 SEC

 FILE SIZES:   FILE 1:    22.1 MBYTE,  FILE 4:     4.2 MBYTE,   TOTAL:     26.3 MBYTE

 OPERATOR DM      FOR CENTER  0  COORDINATES:    0.000000    0.000000    0.000000
 OPERATOR EKIN    FOR CENTER  0  COORDINATES:    0.000000    0.000000    0.000000
 OPERATOR POT     FOR CENTER  0  COORDINATES:    0.000000    0.000000    0.000000


 **********************************************************************************************************************************
 DATASETS  * FILE   NREC   LENGTH (MB)   RECORD NAMES
              1      20       20.99       500      610      700      900      950      970     1000      129      960     1100   
                                          VAR    BASINP    GEOM    SYMINP    ZMAT    AOBASIS   BASIS     P2S    ABASIS      S 
                                         1400     1410     1420     1200     1210     1080     1600     1650     1300     1700   
                                         EKIN       V       ECP      H0       H01     AOSYM     SMH    MOLCAS    ERIS     OPER   

 PROGRAMS   *        TOTAL       INT
 CPU TIMES  *         0.51      0.40
 REAL TIME  *        10.31 SEC
 DISK USED  *        26.57 MB      
 **********************************************************************************************************************************


 PROGRAM * RHF-SCF (CLOSED SHELL)       Authors: W. Meyer, H.-J. Werner


 NUMBER OF ELECTRONS:       5+    5-    SPACE SYMMETRY=1    SPIN SYMMETRY: Singlet 
 CONVERGENCE THRESHOLDS:    1.00E-05 (Density)    1.00E-07 (Energy)
 MAX. NUMBER OF ITERATIONS:       60
 INTERPOLATION TYPE:            DIIS
 INTERPOLATION STEPS:              2 (START)      1 (STEP)
 LEVEL SHIFTS:                  0.00 (CLOSED)  0.00 (OPEN) 




   Atom=MG basis=ECP10SDF_GUESS    lmin=0  lmax=0

 Orbital guess generated from atomic densities. Full valence occupancy:    1   0   0   0   0   0   0   0


 Molecular orbital dump at record        2100.2

 Initial occupancy:   2   1   1   0   1   0   0   0

 ITERATION    DDIFF          GRAD             ENERGY        2-EL.EN.            DIPOLE MOMENTS         DIIS   ORB.
    1      0.000D+00      0.000D+00       -54.11933641    119.674480    0.00000    0.00000    0.00000    0    start
    2      0.000D+00      0.788D+00       -60.67848774     63.502234    0.00000    0.00000    0.00000    1    diag
    3      0.532D+00      0.339D+00       -62.89475852     83.311880    0.00000    0.00000    0.00000    2    diag
    4      0.374D+00      0.475D-01       -62.92671103     82.189237    0.00000    0.00000    0.00000    3    diag
    5      0.695D-01      0.526D-02       -62.92741976     82.012639    0.00000    0.00000    0.00000    4    diag
    6      0.226D-01      0.333D-03       -62.92742510     82.018572    0.00000    0.00000    0.00000    5    diag
    7      0.243D-02      0.324D-04       -62.92742515     82.019958    0.00000    0.00000    0.00000    6    diag
    8      0.267D-03      0.168D-05       -62.92742515     82.020016    0.00000    0.00000    0.00000    7    diag
    9      0.141D-04      0.245D-06       -62.92742515     82.020045    0.00000    0.00000    0.00000    8    diag
   10      0.438D-05      0.172D-07       -62.92742515     82.020046    0.00000    0.00000    0.00000    0    orth

 Final occupancy:   2   1   1   0   1   0   0   0

 !RHF STATE 1.1 Energy                -62.927425153815
 Nuclear energy                         0.00000000
 One-electron energy                 -103.93744834
 Two-electron energy                   41.01002319
 Virial quotient                       -1.29604221
 !RHF STATE 1.1 Dipole moment           0.00000000     0.00000000     0.00000000
 Dipole moment /Debye                   0.00000000     0.00000000     0.00000000
 

 !RHF expec          <1.1|EKIN|1.1>    48.553530545904
 
 !RHF expec           <1.1|POT|1.1>   -15.674540301185

 ELECTRON ORBITALS
 =================


   Orb  Occ    Energy  Couls-En    Coefficients

                                   1 1s      1 1s      1 1s      1 1s      1 1s      1 1s      1 3d0     1 3d2+    1 3d0     1 3d2+ 
                                   1 3d0     1 3d2+    1 3d0     1 3d2+ 

   1.1   2    -3.7500  -16.6283  0.999998 -0.000002  0.000000  0.000001  0.000002  0.000003  0.000000  0.000000 -0.000000 -0.000000
                                 0.000000  0.000000 -0.000000 -0.000000

   2.1   2    -0.2532   -3.7398  0.000087  1.000211  0.000007 -0.000015 -0.000057 -0.000192 -0.000000 -0.000000  0.000000  0.000000
                                -0.000000  0.000000  0.000000  0.000000

                                   1 2px     1 2px     1 2px     1 2px     1 2px     1 2px     1 4f1+    1 4f3+    1 4f1+    1 4f3+ 


   1.2   2    -2.3185  -14.1864  0.999994  0.000001  0.000001  0.000005  0.000004 -0.000003  0.000000  0.000000 -0.000000 -0.000000

                                   1 2py     1 2py     1 2py     1 2py     1 2py     1 2py     1 4f1-    1 4f3-    1 4f1-    1 4f3- 


   1.3   2    -2.3185  -14.1864  0.999994  0.000001  0.000001  0.000005  0.000004 -0.000003  0.000000 -0.000000 -0.000000  0.000000

                                   1 2pz     1 2pz     1 2pz     1 2pz     1 2pz     1 2pz     1 4f0     1 4f2+    1 4f0     1 4f2+ 


   1.5   2    -2.3185  -14.1864  0.999994  0.000001  0.000001  0.000005  0.000004 -0.000003  0.000000 -0.000000 -0.000000 -0.000000

 HOMO      2.1    -0.253248 =      -6.8912eV
 LUMO      2.2     0.037259 =       1.0139eV
 LUMO-HOMO         0.290507 =       7.9051eV


 **********************************************************************************************************************************
 DATASETS  * FILE   NREC   LENGTH (MB)   RECORD NAMES
              1      20       20.99       500      610      700      900      950      970     1000      129      960     1100   
                                          VAR    BASINP    GEOM    SYMINP    ZMAT    AOBASIS   BASIS     P2S    ABASIS      S 
                                         1400     1410     1420     1200     1210     1080     1600     1650     1300     1700   
                                         EKIN       V       ECP      H0       H01     AOSYM     SMH    MOLCAS    ERIS     OPER   

              2       4        2.76       700     1000      520     2100   
                                         GEOM     BASIS   MCVARS     RHF  

 PROGRAMS   *        TOTAL        HF       INT
 CPU TIMES  *         0.57      0.06      0.40
 REAL TIME  *        11.70 SEC
 DISK USED  *        26.57 MB      
 **********************************************************************************************************************************
 SETTING SCF(I)         =       -62.92742515  AU                              
 SETTING _CC_NORM_MAX   =         2.00000000                                  


 PROGRAM * CI (Multireference internally contracted CI)     Authors: H.-J. Werner, P.J. Knowles, 1987


 Convergence thresholds:  THRVAR = 1.00D-08  THRDEN = 1.00D-06

 Number of optimized states:  1  Roots:   1
 Number of reference states:  1  Roots:   1

 Reference symmetry:                   1   Singlet 
 Number of electrons:                 10
 Maximum number of shells:             3
 Maximum number of spin couplings:     2

 Reference space:        1 conf        1 CSFs
 N elec internal:        1 conf        1 CSFs
 N-1 el internal:        5 conf        5 CSFs
 N-2 el internal:       15 conf       25 CSFs

 Number of electrons in valence space:                     10
 Maximum number of open shell orbitals in reference space:  0
 Maximum number of open shell orbitals in internal spaces:  4


 Number of closed-shell orbitals:   5 (   2   1   1   0   1   0   0   0 )
 Number of external orbitals:      53 (  12   9   9   4   9   4   4   2 )

 Molecular orbitals read from record     2100.2  Type=RHF/CANONICAL (state 1.1)

 Integral transformation finished. Total CPU:   0.00 sec, npass=  1  Memory used:   0.07 MW

 Number of p-space configurations:   1

 Reference wavefunction optimized for reference space (refopt=1)

 State     Reference Energy 
   1         -62.92742515

 Number of blocks in overlap matrix:    25   Smallest eigenvalue:  0.10D+01
 Number of N-2 electron functions:      25
 Number of N-1 electron functions:       5

 Number of internal configurations:                    1
 Number of singly external configurations:            51
 Number of doubly external configurations:          4903
 Total number of contracted configurations:         4955
 Total number of uncontracted configurations:       4955

 Diagonal Coupling coefficients finished.               Storage:    1146 words, CPU-Time:      0.00 seconds.
 Energy denominators for pairs finished in 1 passes.    Storage:    5647 words, CPU-time:      0.00 seconds.

  ITER. STATE  ROOT     SQ.NORM     CORR.ENERGY   TOTAL ENERGY   ENERGY CHANGE       DEN1      VAR(S)    VAR(P)      TIME
    1     1     1     1.00000000     0.00000000   -62.92742515    -0.00000000    -0.31428208  0.72D-14  0.56D-01     0.02
    2     1     1     1.04739704    -0.28976270   -63.21718785    -0.28976270    -0.00297644  0.39D-03  0.99D-03     0.03
    3     1     1     1.04308651    -0.29272630   -63.22015146    -0.00296361    -0.00006807  0.55D-05  0.22D-04     0.03
    4     1     1     1.04419838    -0.29280620   -63.22023135    -0.00007989    -0.00000212  0.66D-06  0.45D-06     0.03
    5     1     1     1.04440172    -0.29280855   -63.22023371    -0.00000236    -0.00000007  0.45D-08  0.21D-07     0.04
    6     1     1     1.04443461    -0.29280863   -63.22023379    -0.00000008    -0.00000000  0.14D-09  0.53D-09     0.05


 =====================================
 Analysis of CPU times by interactions
 =====================================

       I      S      P

 I   0.0%
 S   0.0%   0.0%
 P   0.0%   0.0%  20.0%

 Initialization:  40.0%
 Other:           40.0%

 Total CPU:        0.1 seconds
 =====================================



 Reference coefficients greater than 0.0500000
 =============================================
 22222           0.9784967



 RESULTS FOR STATE 1.1
 =====================

 Coefficient of reference function:   C(0) = 0.97849671 (fixed)   0.97849671 (relaxed)

 Energy contributions of configuration classes

 CLASS          SQ.NORM        ECORR1        ECORR2
 +++++++++++++++++++++++++++++++++++++++++++++++++++
 Internals    0.00000000    0.00000000   -0.00000000
 Singles      0.00059113   -0.00000000   -0.00016566
 Pairs        0.04384348   -0.29280863   -0.29264297
 Total        1.04443461   -0.29280863   -0.29280863
 +++++++++++++++++++++++++++++++++++++++++++++++++++


 Reference energy                     -62.92742515
 Nuclear energy                         0.00000000
 Kinetic energy                        48.76011138
 One electron energy                 -103.72030356
 Two electron energy                   40.50006978
 Virial quotient                       -1.29655639
 Correlation energy                    -0.29280863
 !CI(SD) STATE 1.1 Energy             -63.220233785975

 Properties without orbital relaxation:

 !CI(SD) STATE 1.1 Dipole moment        0.00000000     0.00000000     0.00000000
 Dipole moment /Debye                   0.00000000     0.00000000     0.00000000

 Cluster corrected energies           -63.23324462 (Davidson, fixed reference)
 Cluster corrected energies           -63.23324462 (Davidson, relaxed reference)

 Cluster corrected energies           -63.23092400 (Pople, fixed reference)
 Cluster corrected energies           -63.23092400 (Pople, relaxed reference)

 

 !CI(SD) expec       <1.1|EKIN|1.1>    48.760111382749
 
 !CI(SD) expec        <1.1|POT|1.1>   -15.675818034129


 **********************************************************************************************************************************
 DATASETS  * FILE   NREC   LENGTH (MB)   RECORD NAMES
              1      21       21.10       500      610      700      900      950      970     1000      129      960     1100   
                                          VAR    BASINP    GEOM    SYMINP    ZMAT    AOBASIS   BASIS     P2S    ABASIS      S 
                                         1400     1410     1420     1200     1210     1080     1600     1650     1300     1700   
                                         EKIN       V       ECP      H0       H01     AOSYM     SMH    MOLCAS    ERIS     OPER   
                                         1380   
                                         JKOP   

              2       4        2.76       700     1000      520     2100   
                                         GEOM     BASIS   MCVARS     RHF  

 PROGRAMS   *        TOTAL        CI        HF       INT
 CPU TIMES  *         0.65      0.08      0.06      0.40
 REAL TIME  *        14.22 SEC
 DISK USED  *        26.57 MB      
 **********************************************************************************************************************************
 SETTING POSTHF(I)      =       -63.22023379  AU                              
                                                                                                                                                                                                                                                                

        SCF            POSTHF        EKIN           POT
    -62.92742515   -63.22023379   48.76011138   -15.67581803
                                                  

 CI/USERDEF energy=    -63.220233785975

        CI              HF-SCF  
    -63.22023379    -62.92742515
 **********************************************************************************************************************************
 Molpro calculation terminated
 Variable memory released
