
 Primary working directories    : /global/cscratch1/sd/aannabe
 Secondary working directories  : /global/cscratch1/sd/aannabe
 Wavefunction directory         : /global/homes/a/aannabe/wfu/
 Main file repository           : /global/cscratch1/sd/aannabe/

 SHA1      : 19cd028119e0e09f93f0674bd8af7968d9b3eff6
 NAME      : 2015.1.36
 ARCHNAME  : linux/x86_64
 FC        : /opt/cray/pe/craype/2.5.14/bin/ftn
 BLASLIB   : -L/opt/intel/compilers_and_libraries_2018.1.163/linux/mkl/lib/intel64 -Wl,-_start-group -lmkl_intel_ilp64 -lmkl_intel_thread -lmkl_core -Wl,-_end-group -liomp5
 id        : lbl

 Nodes     nprocs
 nid00461     1

 Using customized tuning parameters: mindgm=7; mindgv=16; mindgc=1; mindgr=1; noblas=0; minvec=7
 default implementation of scratch files=df  

 ***,Mg
 memory,512,m
 gthresh,twoint=1.e-12
 
 gprint,basis,orbitals
 gexpec,ekin,pot
 
 angstrom
 geometry={
 1                                                                               ! Number of atoms
 Mg 0.0 0.0 0.0
 }
 
 basis={
 Including file /global/homes/a/aannabe/repos/pseudopotentiallibrary/recipes/Mg/ccECP_He_core/Mg.ccECP.molpro
 Including file /global/homes/a/aannabe/repos/pseudopotentiallibrary/recipes/Mg/ccECP_He_core/cc-pCV6Z.molpro
 }
 
 {hf
  wf,10,1,0
 }
 scf(i)=energy
 
 _CC_NORM_MAX=2.0
 {ci
 maxit,100
 core
 }
 posthf(i)=energy
 
 table,scf,posthf,ekin,pot
 save,6.csv,new
 
 

 Variables initialized (889), CPU time= 0.00 sec
 Commands  initialized (702), CPU time= 0.01 sec, 572 directives.
 Default parameters read. Elapsed time= 0.28 sec

 Checking input...
 Passed
1


                                         ***  PROGRAM SYSTEM MOLPRO  ***
                                       Copyright, TTI GmbH Stuttgart, 2015
                                    Version 2015.1 linked Dec 29 2018 15:55:43


 **********************************************************************************************************************************
 LABEL *   Mg                                                                            
  64 bit serial version                                                                  DATE: 03-Jan-19          TIME: 16:19:03  
 **********************************************************************************************************************************

 SHA1:             19cd028119e0e09f93f0674bd8af7968d9b3eff6
 **********************************************************************************************************************************

 THRESHOLDS:

 ZERO    =  1.00D-12  ONEINT  =  1.00D-12  TWOINT  =  1.00D-12  PREFAC  =  1.00D-14  LOCALI  =  1.00D-09  EORDER  =  1.00D-04
 ENERGY  =  0.00D+00  ETEST   =  0.00D+00  EDENS   =  0.00D+00  THRDEDEF=  1.00D-06  GRADIENT=  1.00D-02  STEP    =  1.00D-03
 ORBITAL =  1.00D-05  CIVEC   =  1.00D-05  COEFF   =  1.00D-04  PRINTCI =  5.00D-02  PUNCHCI =  9.90D+01  OPTGRAD =  3.00D-04
 OPTENERG=  1.00D-06  OPTSTEP =  3.00D-04  THRGRAD =  1.00D-10  COMPRESS=  1.00D-11  VARMIN  =  1.00D-07  VARMAX  =  1.00D-03
 THRDOUB =  0.00D+00  THRDIV  =  1.00D-05  THRRED  =  1.00D-07  THRPSP  =  1.00D+00  THRDC   =  1.00D-10  THRCS   =  1.00D-10
 THRNRM  =  1.00D-08  THREQ   =  0.00D+00  THRDE   =  1.00D+00  THRREF  =  1.00D-05  SPARFAC =  1.00D+00  THRDLP  =  1.00D-07
 THRDIA  =  1.00D-10  THRDLS  =  1.00D-07  THRGPS  =  0.00D+00  THRKEX  =  0.00D+00  THRDIS  =  2.00D-01  THRVAR  =  1.00D-10
 THRLOC  =  1.00D-06  THRGAP  =  1.00D-06  THRLOCT = -1.00D+00  THRGAPT = -1.00D+00  THRORB  =  1.00D-06  THRMLTP =  0.00D+00
 THRCPQCI=  1.00D-10  KEXTA   =  0.00D+00  THRCOARS=  0.00D+00  SYMTOL  =  1.00D-06  GRADTOL =  1.00D-06  THROVL  =  1.00D-08
 THRORTH =  1.00D-08  GRID    =  1.00D-06  GRIDMAX =  1.00D-03  DTMAX   =  0.00D+00  THROCCDE=  1.00D-01  THROCCDE=  1.00D-01



 ZUNIT=ANG
 

Geometry recognized as XYZ


 Variable memory set to  512000000 words,  buffer space   230000 words

 SETTING BASIS          =    USERDEF


 Recomputing integrals since basis changed


 Using spherical harmonics



 PROGRAM * SEWARD (Integral evaluation for generally contracted gaussian basis sets)     Author: Roland Lindh, 1990

 Geometry written to block  1 of record 700

 Orientation using atomic masses  
 Molecule type: Atom
 Symmetry elements: X,Y,Z
 Rotational constants:       0.0000000      0.0000000      0.0000000 GHz  (calculated with average atomic masses)

 Point group  D2h 



 ATOMIC COORDINATES

 NR  ATOM    CHARGE       X              Y              Z

   1  MG      2.00    0.000000000    0.000000000    0.000000000


          MG  CORE POTENTIAL

          d POTENTIAL

 POWERS             1              3              2              1              1
 EXPONENTIALS   10.13682       10.45765       10.10960       0.000000       0.000000    
 COEFFICIENTS   10.00000       101.3683      -68.59640       2.000000      -10.00000    

          s - d POTENTIAL

 POWERS             2              2
 EXPONENTIALS   72.71876       19.37565    
 COEFFICIENTS   25.15210       84.96993    

          p - d POTENTIAL

 POWERS             2
 EXPONENTIALS   1.000000    
 COEFFICIENTS   0.000000    


 BASIS DATA

   Nr Sym  Nuc  Type         Exponents   Contraction coefficients

    1.1 Ag    1  1s          63.931893    -0.000794    0.000106
    2.1 Ag                   31.602596     0.007479   -0.001086
                             15.621687    -0.136246    0.028676
                              7.722059    -0.032033    0.005781
                              3.817142     0.216823   -0.050653
                              1.886877     0.451364   -0.116877
                              0.932714     0.377599   -0.165121
                              0.461056     0.094319   -0.118016
                              0.227908     0.001703    0.108365
                              0.112659     0.000485    0.414755
                              0.055689    -0.000151    0.477633
                              0.027528     0.000031    0.173476
    3.1 Ag    1  1s           0.028783     1.000000
    4.1 Ag    1  1s           0.060933     1.000000
    5.1 Ag    1  1s           0.128995     1.000000
    6.1 Ag    1  1s           0.273082     1.000000
    7.1 Ag    1  1s           0.578112     1.000000
    8.1 Ag    1  1s           1.908427     1.000000
    9.1 Ag    1  1s           3.543390     1.000000
   10.1 Ag    1  1s           6.579037     1.000000
   11.1 Ag    1  1s          12.215343     1.000000
   12.1 Ag    1  1s          22.680313     1.000000
   13.1 Ag    1  3d0          0.073685     1.000000
   14.1 Ag    1  3d2+         0.073685     1.000000
   15.1 Ag    1  3d0          0.149931     1.000000
   16.1 Ag    1  3d2+         0.149931     1.000000
   17.1 Ag    1  3d0          0.305073     1.000000
   18.1 Ag    1  3d2+         0.305073     1.000000
   19.1 Ag    1  3d0          0.620748     1.000000
   20.1 Ag    1  3d2+         0.620748     1.000000
   21.1 Ag    1  3d0          1.263070     1.000000
   22.1 Ag    1  3d2+         1.263070     1.000000
   23.1 Ag    1  3d0          1.493771     1.000000
   24.1 Ag    1  3d2+         1.493771     1.000000
   25.1 Ag    1  3d0          2.940330     1.000000
   26.1 Ag    1  3d2+         2.940330     1.000000
   27.1 Ag    1  3d0          5.787728     1.000000
   28.1 Ag    1  3d2+         5.787728     1.000000
   29.1 Ag    1  3d0         11.392528     1.000000
   30.1 Ag    1  3d2+        11.392528     1.000000
   31.1 Ag    1  3d0         22.424985     1.000000
   32.1 Ag    1  3d2+        22.424985     1.000000
   33.1 Ag    1  5g0          0.181086     1.000000
   34.1 Ag    1  5g4+         0.181086     1.000000
   35.1 Ag    1  5g2+         0.181086     1.000000
   36.1 Ag    1  5g0          0.314876     1.000000
   37.1 Ag    1  5g4+         0.314876     1.000000
   38.1 Ag    1  5g2+         0.314876     1.000000
   39.1 Ag    1  5g0          0.547514     1.000000
   40.1 Ag    1  5g4+         0.547514     1.000000
   41.1 Ag    1  5g2+         0.547514     1.000000
   42.1 Ag    1  5g0          2.906102     1.000000
   43.1 Ag    1  5g4+         2.906102     1.000000
   44.1 Ag    1  5g2+         2.906102     1.000000
   45.1 Ag    1  5g0          6.444197     1.000000
   46.1 Ag    1  5g4+         6.444197     1.000000
   47.1 Ag    1  5g2+         6.444197     1.000000
   48.1 Ag    1  5g0         14.289820     1.000000
   49.1 Ag    1  5g4+        14.289820     1.000000
   50.1 Ag    1  5g2+        14.289820     1.000000
   51.1 Ag    1  7i6+         0.372272     1.000000
   52.1 Ag    1  7i4+         0.372272     1.000000
   53.1 Ag    1  7i2+         0.372272     1.000000
   54.1 Ag    1  7i0          0.372272     1.000000
   55.1 Ag    1  7i6+         8.086635     1.000000
   56.1 Ag    1  7i4+         8.086635     1.000000
   57.1 Ag    1  7i2+         8.086635     1.000000
   58.1 Ag    1  7i0          8.086635     1.000000
    1.2 B3u   1  2px         28.231094     0.011317   -0.001822
    2.2 B3u                  14.891993     0.087039   -0.013603
                              7.855575     0.162683   -0.025700
                              4.143841     0.241386   -0.039076
                              2.185889     0.290064   -0.048779
                              1.153064     0.252991   -0.045990
                              0.608245     0.133097   -0.031658
                              0.320851     0.028941    0.049178
                              0.169250     0.003209    0.186909
                              0.089280     0.000268    0.379396
                              0.047095     0.000257    0.335431
                              0.024843    -0.000037    0.184058
    3.2 B3u   1  2px          0.071508     1.000000
    4.2 B3u   1  2px          0.147663     1.000000
    5.2 B3u   1  2px          0.304921     1.000000
    6.2 B3u   1  2px          0.629657     1.000000
    7.2 B3u   1  2px          1.300231     1.000000
    8.2 B3u   1  2px          1.944207     1.000000
    9.2 B3u   1  2px          4.151389     1.000000
   10.2 B3u   1  2px          8.864300     1.000000
   11.2 B3u   1  2px         18.927594     1.000000
   12.2 B3u   1  2px         40.415353     1.000000
   13.2 B3u   1  4f1+         0.111488     1.000000
   14.2 B3u   1  4f3+         0.111488     1.000000
   15.2 B3u   1  4f1+         0.183750     1.000000
   16.2 B3u   1  4f3+         0.183750     1.000000
   17.2 B3u   1  4f1+         0.302850     1.000000
   18.2 B3u   1  4f3+         0.302850     1.000000
   19.2 B3u   1  4f1+         0.499146     1.000000
   20.2 B3u   1  4f3+         0.499146     1.000000
   21.2 B3u   1  4f1+         2.047513     1.000000
   22.2 B3u   1  4f3+         2.047513     1.000000
   23.2 B3u   1  4f1+         4.219509     1.000000
   24.2 B3u   1  4f3+         4.219509     1.000000
   25.2 B3u   1  4f1+         8.695551     1.000000
   26.2 B3u   1  4f3+         8.695551     1.000000
   27.2 B3u   1  4f1+        17.919765     1.000000
   28.2 B3u   1  4f3+        17.919765     1.000000
   29.2 B3u   1  6h1+         0.256504     1.000000
   30.2 B3u   1  6h3+         0.256504     1.000000
   31.2 B3u   1  6h5+         0.256504     1.000000
   32.2 B3u   1  6h1+         0.465986     1.000000
   33.2 B3u   1  6h3+         0.465986     1.000000
   34.2 B3u   1  6h5+         0.465986     1.000000
   35.2 B3u   1  6h1+         4.659839     1.000000
   36.2 B3u   1  6h3+         4.659839     1.000000
   37.2 B3u   1  6h5+         4.659839     1.000000
   38.2 B3u   1  6h1+        11.254327     1.000000
   39.2 B3u   1  6h3+        11.254327     1.000000
   40.2 B3u   1  6h5+        11.254327     1.000000
    1.3 B2u   1  2py         28.231094     0.011317   -0.001822
    2.3 B2u                  14.891993     0.087039   -0.013603
                              7.855575     0.162683   -0.025700
                              4.143841     0.241386   -0.039076
                              2.185889     0.290064   -0.048779
                              1.153064     0.252991   -0.045990
                              0.608245     0.133097   -0.031658
                              0.320851     0.028941    0.049178
                              0.169250     0.003209    0.186909
                              0.089280     0.000268    0.379396
                              0.047095     0.000257    0.335431
                              0.024843    -0.000037    0.184058
    3.3 B2u   1  2py          0.071508     1.000000
    4.3 B2u   1  2py          0.147663     1.000000
    5.3 B2u   1  2py          0.304921     1.000000
    6.3 B2u   1  2py          0.629657     1.000000
    7.3 B2u   1  2py          1.300231     1.000000
    8.3 B2u   1  2py          1.944207     1.000000
    9.3 B2u   1  2py          4.151389     1.000000
   10.3 B2u   1  2py          8.864300     1.000000
   11.3 B2u   1  2py         18.927594     1.000000
   12.3 B2u   1  2py         40.415353     1.000000
   13.3 B2u   1  4f1-         0.111488     1.000000
   14.3 B2u   1  4f3-         0.111488     1.000000
   15.3 B2u   1  4f1-         0.183750     1.000000
   16.3 B2u   1  4f3-         0.183750     1.000000
   17.3 B2u   1  4f1-         0.302850     1.000000
   18.3 B2u   1  4f3-         0.302850     1.000000
   19.3 B2u   1  4f1-         0.499146     1.000000
   20.3 B2u   1  4f3-         0.499146     1.000000
   21.3 B2u   1  4f1-         2.047513     1.000000
   22.3 B2u   1  4f3-         2.047513     1.000000
   23.3 B2u   1  4f1-         4.219509     1.000000
   24.3 B2u   1  4f3-         4.219509     1.000000
   25.3 B2u   1  4f1-         8.695551     1.000000
   26.3 B2u   1  4f3-         8.695551     1.000000
   27.3 B2u   1  4f1-        17.919765     1.000000
   28.3 B2u   1  4f3-        17.919765     1.000000
   29.3 B2u   1  6h1-         0.256504     1.000000
   30.3 B2u   1  6h3-         0.256504     1.000000
   31.3 B2u   1  6h5-         0.256504     1.000000
   32.3 B2u   1  6h1-         0.465986     1.000000
   33.3 B2u   1  6h3-         0.465986     1.000000
   34.3 B2u   1  6h5-         0.465986     1.000000
   35.3 B2u   1  6h1-         4.659839     1.000000
   36.3 B2u   1  6h3-         4.659839     1.000000
   37.3 B2u   1  6h5-         4.659839     1.000000
   38.3 B2u   1  6h1-        11.254327     1.000000
   39.3 B2u   1  6h3-        11.254327     1.000000
   40.3 B2u   1  6h5-        11.254327     1.000000
    1.4 B1g   1  3d2-         0.073685     1.000000
    2.4 B1g   1  3d2-         0.149931     1.000000
    3.4 B1g   1  3d2-         0.305073     1.000000
    4.4 B1g   1  3d2-         0.620748     1.000000
    5.4 B1g   1  3d2-         1.263070     1.000000
    6.4 B1g   1  3d2-         1.493771     1.000000
    7.4 B1g   1  3d2-         2.940330     1.000000
    8.4 B1g   1  3d2-         5.787728     1.000000
    9.4 B1g   1  3d2-        11.392528     1.000000
   10.4 B1g   1  3d2-        22.424985     1.000000
   11.4 B1g   1  5g2-         0.181086     1.000000
   12.4 B1g   1  5g4-         0.181086     1.000000
   13.4 B1g   1  5g2-         0.314876     1.000000
   14.4 B1g   1  5g4-         0.314876     1.000000
   15.4 B1g   1  5g2-         0.547514     1.000000
   16.4 B1g   1  5g4-         0.547514     1.000000
   17.4 B1g   1  5g2-         2.906102     1.000000
   18.4 B1g   1  5g4-         2.906102     1.000000
   19.4 B1g   1  5g2-         6.444197     1.000000
   20.4 B1g   1  5g4-         6.444197     1.000000
   21.4 B1g   1  5g2-        14.289820     1.000000
   22.4 B1g   1  5g4-        14.289820     1.000000
   23.4 B1g   1  7i2-         0.372272     1.000000
   24.4 B1g   1  7i6-         0.372272     1.000000
   25.4 B1g   1  7i4-         0.372272     1.000000
   26.4 B1g   1  7i2-         8.086635     1.000000
   27.4 B1g   1  7i6-         8.086635     1.000000
   28.4 B1g   1  7i4-         8.086635     1.000000
    1.5 B1u   1  2pz         28.231094     0.011317   -0.001822
    2.5 B1u                  14.891993     0.087039   -0.013603
                              7.855575     0.162683   -0.025700
                              4.143841     0.241386   -0.039076
                              2.185889     0.290064   -0.048779
                              1.153064     0.252991   -0.045990
                              0.608245     0.133097   -0.031658
                              0.320851     0.028941    0.049178
                              0.169250     0.003209    0.186909
                              0.089280     0.000268    0.379396
                              0.047095     0.000257    0.335431
                              0.024843    -0.000037    0.184058
    3.5 B1u   1  2pz          0.071508     1.000000
    4.5 B1u   1  2pz          0.147663     1.000000
    5.5 B1u   1  2pz          0.304921     1.000000
    6.5 B1u   1  2pz          0.629657     1.000000
    7.5 B1u   1  2pz          1.300231     1.000000
    8.5 B1u   1  2pz          1.944207     1.000000
    9.5 B1u   1  2pz          4.151389     1.000000
   10.5 B1u   1  2pz          8.864300     1.000000
   11.5 B1u   1  2pz         18.927594     1.000000
   12.5 B1u   1  2pz         40.415353     1.000000
   13.5 B1u   1  4f0          0.111488     1.000000
   14.5 B1u   1  4f2+         0.111488     1.000000
   15.5 B1u   1  4f0          0.183750     1.000000
   16.5 B1u   1  4f2+         0.183750     1.000000
   17.5 B1u   1  4f0          0.302850     1.000000
   18.5 B1u   1  4f2+         0.302850     1.000000
   19.5 B1u   1  4f0          0.499146     1.000000
   20.5 B1u   1  4f2+         0.499146     1.000000
   21.5 B1u   1  4f0          2.047513     1.000000
   22.5 B1u   1  4f2+         2.047513     1.000000
   23.5 B1u   1  4f0          4.219509     1.000000
   24.5 B1u   1  4f2+         4.219509     1.000000
   25.5 B1u   1  4f0          8.695551     1.000000
   26.5 B1u   1  4f2+         8.695551     1.000000
   27.5 B1u   1  4f0         17.919765     1.000000
   28.5 B1u   1  4f2+        17.919765     1.000000
   29.5 B1u   1  6h2+         0.256504     1.000000
   30.5 B1u   1  6h4+         0.256504     1.000000
   31.5 B1u   1  6h0          0.256504     1.000000
   32.5 B1u   1  6h2+         0.465986     1.000000
   33.5 B1u   1  6h4+         0.465986     1.000000
   34.5 B1u   1  6h0          0.465986     1.000000
   35.5 B1u   1  6h2+         4.659839     1.000000
   36.5 B1u   1  6h4+         4.659839     1.000000
   37.5 B1u   1  6h0          4.659839     1.000000
   38.5 B1u   1  6h2+        11.254327     1.000000
   39.5 B1u   1  6h4+        11.254327     1.000000
   40.5 B1u   1  6h0         11.254327     1.000000
    1.6 B2g   1  3d1+         0.073685     1.000000
    2.6 B2g   1  3d1+         0.149931     1.000000
    3.6 B2g   1  3d1+         0.305073     1.000000
    4.6 B2g   1  3d1+         0.620748     1.000000
    5.6 B2g   1  3d1+         1.263070     1.000000
    6.6 B2g   1  3d1+         1.493771     1.000000
    7.6 B2g   1  3d1+         2.940330     1.000000
    8.6 B2g   1  3d1+         5.787728     1.000000
    9.6 B2g   1  3d1+        11.392528     1.000000
   10.6 B2g   1  3d1+        22.424985     1.000000
   11.6 B2g   1  5g1+         0.181086     1.000000
   12.6 B2g   1  5g3+         0.181086     1.000000
   13.6 B2g   1  5g1+         0.314876     1.000000
   14.6 B2g   1  5g3+         0.314876     1.000000
   15.6 B2g   1  5g1+         0.547514     1.000000
   16.6 B2g   1  5g3+         0.547514     1.000000
   17.6 B2g   1  5g1+         2.906102     1.000000
   18.6 B2g   1  5g3+         2.906102     1.000000
   19.6 B2g   1  5g1+         6.444197     1.000000
   20.6 B2g   1  5g3+         6.444197     1.000000
   21.6 B2g   1  5g1+        14.289820     1.000000
   22.6 B2g   1  5g3+        14.289820     1.000000
   23.6 B2g   1  7i5+         0.372272     1.000000
   24.6 B2g   1  7i3+         0.372272     1.000000
   25.6 B2g   1  7i1+         0.372272     1.000000
   26.6 B2g   1  7i5+         8.086635     1.000000
   27.6 B2g   1  7i3+         8.086635     1.000000
   28.6 B2g   1  7i1+         8.086635     1.000000
    1.7 B3g   1  3d1-         0.073685     1.000000
    2.7 B3g   1  3d1-         0.149931     1.000000
    3.7 B3g   1  3d1-         0.305073     1.000000
    4.7 B3g   1  3d1-         0.620748     1.000000
    5.7 B3g   1  3d1-         1.263070     1.000000
    6.7 B3g   1  3d1-         1.493771     1.000000
    7.7 B3g   1  3d1-         2.940330     1.000000
    8.7 B3g   1  3d1-         5.787728     1.000000
    9.7 B3g   1  3d1-        11.392528     1.000000
   10.7 B3g   1  3d1-        22.424985     1.000000
   11.7 B3g   1  5g1-         0.181086     1.000000
   12.7 B3g   1  5g3-         0.181086     1.000000
   13.7 B3g   1  5g1-         0.314876     1.000000
   14.7 B3g   1  5g3-         0.314876     1.000000
   15.7 B3g   1  5g1-         0.547514     1.000000
   16.7 B3g   1  5g3-         0.547514     1.000000
   17.7 B3g   1  5g1-         2.906102     1.000000
   18.7 B3g   1  5g3-         2.906102     1.000000
   19.7 B3g   1  5g1-         6.444197     1.000000
   20.7 B3g   1  5g3-         6.444197     1.000000
   21.7 B3g   1  5g1-        14.289820     1.000000
   22.7 B3g   1  5g3-        14.289820     1.000000
   23.7 B3g   1  7i5-         0.372272     1.000000
   24.7 B3g   1  7i3-         0.372272     1.000000
   25.7 B3g   1  7i1-         0.372272     1.000000
   26.7 B3g   1  7i5-         8.086635     1.000000
   27.7 B3g   1  7i3-         8.086635     1.000000
   28.7 B3g   1  7i1-         8.086635     1.000000
    1.8 Au    1  4f2-         0.111488     1.000000
    2.8 Au    1  4f2-         0.183750     1.000000
    3.8 Au    1  4f2-         0.302850     1.000000
    4.8 Au    1  4f2-         0.499146     1.000000
    5.8 Au    1  4f2-         2.047513     1.000000
    6.8 Au    1  4f2-         4.219509     1.000000
    7.8 Au    1  4f2-         8.695551     1.000000
    8.8 Au    1  4f2-        17.919765     1.000000
    9.8 Au    1  6h4-         0.256504     1.000000
   10.8 Au    1  6h2-         0.256504     1.000000
   11.8 Au    1  6h4-         0.465986     1.000000
   12.8 Au    1  6h2-         0.465986     1.000000
   13.8 Au    1  6h4-         4.659839     1.000000
   14.8 Au    1  6h2-         4.659839     1.000000
   15.8 Au    1  6h4-        11.254327     1.000000
   16.8 Au    1  6h2-        11.254327     1.000000

 NUCLEAR CHARGE:                    2
 NUMBER OF PRIMITIVE AOS:         458
 NUMBER OF SYMMETRY AOS:          318
 NUMBER OF CONTRACTIONS:          278   (  58Ag  +  40B3u +  40B2u +  28B1g +  40B1u +  28B2g +  28B3g +  16Au  )
 NUMBER OF CORE ORBITALS:           0   (   0Ag  +   0B3u +   0B2u +   0B1g +   0B1u +   0B2g +   0B3g +   0Au  )
 NUMBER OF VALENCE ORBITALS:        4   (   1Ag  +   1B3u +   1B2u +   0B1g +   1B1u +   0B2g +   0B3g +   0Au  )


 NUCLEAR REPULSION ENERGY    0.00000000

 EXTRA SYMMETRY OF AOS IN SYMMETRY 1:   1 1 1 1 1 1 1 1 1 1   1 1 2 3 2 3 2 3 2 3   2 3 2 3 2 3 2 3 2 3   2 3 4 5 6 4 5 6 4 5
                                        6 4 5 6 4 5 6 4 5 6   7 8 910 7 8 910
 EXTRA SYMMETRY OF AOS IN SYMMETRY 2:   1 1 1 1 1 1 1 1 1 1   1 1 2 3 2 3 2 3 2 3   2 3 2 3 2 3 2 3 4 5   6 4 5 6 4 5 6 4 5 6
 EXTRA SYMMETRY OF AOS IN SYMMETRY 3:   1 1 1 1 1 1 1 1 1 1   1 1 2 3 2 3 2 3 2 3   2 3 2 3 2 3 2 3 4 5   6 4 5 6 4 5 6 4 5 6
 EXTRA SYMMETRY OF AOS IN SYMMETRY 4:   1 1 1 1 1 1 1 1 1 1   2 3 2 3 2 3 2 3 2 3   2 3 4 5 6 4 5 6
 EXTRA SYMMETRY OF AOS IN SYMMETRY 5:   1 1 1 1 1 1 1 1 1 1   1 1 2 3 2 3 2 3 2 3   2 3 2 3 2 3 2 3 4 5   6 4 5 6 4 5 6 4 5 6
 EXTRA SYMMETRY OF AOS IN SYMMETRY 6:   1 1 1 1 1 1 1 1 1 1   2 3 2 3 2 3 2 3 2 3   2 3 4 5 6 4 5 6
 EXTRA SYMMETRY OF AOS IN SYMMETRY 7:   1 1 1 1 1 1 1 1 1 1   2 3 2 3 2 3 2 3 2 3   2 3 4 5 6 4 5 6
 EXTRA SYMMETRY OF AOS IN SYMMETRY 8:   1 1 1 1 1 1 1 1 2 3   2 3 2 3 2 3

 Eigenvalues of metric

         1 0.421E-07 0.189E-04 0.141E-03 0.141E-03 0.420E-03 0.172E-02 0.600E-02 0.640E-02
         2 0.119E-05 0.544E-03 0.379E-02 0.650E-02 0.650E-02 0.910E-02 0.190E-01 0.420E-01
         3 0.119E-05 0.544E-03 0.379E-02 0.650E-02 0.650E-02 0.910E-02 0.190E-01 0.420E-01
         4 0.141E-03 0.640E-02 0.169E-01 0.502E-01 0.502E-01 0.600E-01 0.142E+00 0.169E+00
         5 0.119E-05 0.544E-03 0.379E-02 0.650E-02 0.650E-02 0.910E-02 0.190E-01 0.420E-01
         6 0.141E-03 0.640E-02 0.169E-01 0.502E-01 0.502E-01 0.600E-01 0.142E+00 0.169E+00
         7 0.141E-03 0.640E-02 0.169E-01 0.502E-01 0.502E-01 0.600E-01 0.142E+00 0.169E+00
         8 0.650E-02 0.420E-01 0.994E-01 0.248E+00 0.248E+00 0.279E+00 0.458E+00 0.458E+00


 Contracted 2-electron integrals neglected if value below      1.0D-13
 AO integral compression algorithm  1   Integral accuracy      1.0D-13

     593.756 MB (compressed) written to integral file ( 49.3%)


 NUMBER OF SORTED TWO-ELECTRON INTEGRALS:   95770403.     BUFFER LENGTH:  32768
 NUMBER OF SEGMENTS:   6  SEGMENT LENGTH:   15998880      RECORD LENGTH: 524288

 Memory used in sort:      16.56 MW

 SORT1 READ   150490528. AND WROTE    63713105. INTEGRALS IN    185 RECORDS. CPU TIME:     3.80 SEC, REAL TIME:     5.18 SEC
 SORT2 READ    63713105. AND WROTE    95770403. INTEGRALS IN   2265 RECORDS. CPU TIME:     1.90 SEC, REAL TIME:     3.47 SEC

 FILE SIZES:   FILE 1:   615.4 MBYTE,  FILE 4:   776.0 MBYTE,   TOTAL:   1391.4 MBYTE

 OPERATOR DM      FOR CENTER  0  COORDINATES:    0.000000    0.000000    0.000000
 OPERATOR EKIN    FOR CENTER  0  COORDINATES:    0.000000    0.000000    0.000000
 OPERATOR POT     FOR CENTER  0  COORDINATES:    0.000000    0.000000    0.000000


 **********************************************************************************************************************************
 DATASETS  * FILE   NREC   LENGTH (MB)   RECORD NAMES
              1      20      398.85       500      610      700      900      950      970     1000      129      960     1100   
                                          VAR    BASINP    GEOM    SYMINP    ZMAT    AOBASIS   BASIS     P2S    ABASIS      S 
                                         1400     1410     1420     1200     1210     1080     1600     1650     1300     1700   
                                         EKIN       V       ECP      H0       H01     AOSYM     SMH    MOLCAS    ERIS     OPER   

 PROGRAMS   *        TOTAL       INT
 CPU TIMES  *        31.96     31.85
 REAL TIME  *        72.03 SEC
 DISK USED  *         1.39 GB      
 **********************************************************************************************************************************


 PROGRAM * RHF-SCF (CLOSED SHELL)       Authors: W. Meyer, H.-J. Werner


 NUMBER OF ELECTRONS:       5+    5-    SPACE SYMMETRY=1    SPIN SYMMETRY: Singlet 
 CONVERGENCE THRESHOLDS:    1.00E-05 (Density)    1.00E-07 (Energy)
 MAX. NUMBER OF ITERATIONS:       60
 INTERPOLATION TYPE:            DIIS
 INTERPOLATION STEPS:              2 (START)      1 (STEP)
 LEVEL SHIFTS:                  0.00 (CLOSED)  0.00 (OPEN) 




   Atom=MG basis=ECP10SDF_GUESS    lmin=0  lmax=0

 Orbital guess generated from atomic densities. Full valence occupancy:    1   0   0   0   0   0   0   0


 Molecular orbital dump at record        2100.2

 Initial occupancy:   2   1   1   0   1   0   0   0

 ITERATION    DDIFF          GRAD             ENERGY        2-EL.EN.            DIPOLE MOMENTS         DIIS   ORB.
    1      0.000D+00      0.000D+00       -54.17622477    120.223634    0.00000    0.00000    0.00000    0    start
    2      0.000D+00      0.364D+00       -60.46452195     61.234983    0.00000    0.00000    0.00000    1    diag
    3      0.419D+01      0.163D+00       -62.88634473     83.565575    0.00000    0.00000    0.00000    2    diag
    4      0.316D+00      0.238D-01       -62.92597982     82.250326    0.00000    0.00000    0.00000    3    diag
    5      0.363D-01      0.269D-02       -62.92738425     82.009970    0.00000    0.00000    0.00000    4    diag
    6      0.123D-01      0.261D-03       -62.92742427     82.014873    0.00000    0.00000    0.00000    5    diag
    7      0.177D-02      0.289D-04       -62.92742524     82.018936    0.00000    0.00000    0.00000    6    diag
    8      0.304D-03      0.445D-05       -62.92742527     82.019649    0.00000    0.00000    0.00000    7    diag
    9      0.428D-04      0.575D-06       -62.92742527     82.019808    0.00000    0.00000    0.00000    8    diag
   10      0.323D-05      0.335D-07       -62.92742527     82.019814    0.00000    0.00000    0.00000    0    orth

 Final occupancy:   2   1   1   0   1   0   0   0

 !RHF STATE 1.1 Energy                -62.927425267847
 Nuclear energy                         0.00000000
 One-electron energy                 -103.93733230
 Two-electron energy                   41.00990703
 Virial quotient                       -1.29604563
 !RHF STATE 1.1 Dipole moment           0.00000000     0.00000000     0.00000000
 Dipole moment /Debye                   0.00000000     0.00000000     0.00000000
 

 !RHF expec          <1.1|EKIN|1.1>    48.553402453775
 
 !RHF expec           <1.1|POT|1.1>   -15.674523938878

 ELECTRON ORBITALS
 =================


   Orb  Occ    Energy  Couls-En    Coefficients

                                   1 1s      1 1s      1 1s      1 1s      1 1s      1 1s      1 1s      1 1s      1 1s      1 1s   
                                   1 1s      1 1s      1 3d0     1 3d2+    1 3d0     1 3d2+    1 3d0     1 3d2+    1 3d0     1 3d2+ 
                                   1 3d0     1 3d2+    1 3d0     1 3d2+    1 3d0     1 3d2+    1 3d0     1 3d2+    1 3d0     1 3d2+ 
                                   1 3d0     1 3d2+    1 5g0     1 5g4+    1 5g2+    1 5g0     1 5g4+    1 5g2+    1 5g0     1 5g4+ 
                                   1 5g2+    1 5g0     1 5g4+    1 5g2+    1 5g0     1 5g4+    1 5g2+    1 5g0     1 5g4+    1 5g2+ 
                                   1 7i6+    1 7i4+    1 7i2+    1 7i0     1 7i6+    1 7i4+    1 7i2+    1 7i0  

   1.1   2    -3.7500  -16.6283  0.996817 -0.013577  0.002784  0.007247  0.005046  0.000824 -0.001994 -0.000655  0.000308 -0.000149
                                -0.000006 -0.000007 -0.000000 -0.000000  0.000000  0.000000 -0.000000 -0.000000  0.000000  0.000000
                                -0.000000 -0.000000  0.000000  0.000000 -0.000000 -0.000000  0.000000  0.000000 -0.000000 -0.000000
                                 0.000000  0.000000  0.000000 -0.000000  0.000000 -0.000000  0.000000  0.000000  0.000000 -0.000000
                                 0.000000  0.000000 -0.000000 -0.000000  0.000000  0.000000  0.000000 -0.000000 -0.000000 -0.000000
                                -0.000000 -0.000000  0.000000  0.000000 -0.000000 -0.000000 -0.000000  0.000000

   2.1   2    -0.2533   -3.7398 -0.033044  0.912705  0.017819  0.046535  0.033123  0.003772 -0.007621  0.004762  0.001624  0.001339
                                -0.002774 -0.000115  0.000000  0.000000 -0.000000 -0.000000  0.000000  0.000000 -0.000000 -0.000000
                                 0.000000  0.000000 -0.000000 -0.000000  0.000000  0.000000 -0.000000 -0.000000  0.000000  0.000000
                                -0.000000  0.000000  0.000000 -0.000000  0.000000 -0.000000  0.000000 -0.000000  0.000000 -0.000000
                                 0.000000 -0.000000  0.000000 -0.000000  0.000000 -0.000000  0.000000 -0.000000  0.000000 -0.000000
                                -0.000000 -0.000000  0.000000 -0.000000 -0.000000  0.000000 -0.000000  0.000000

                                   1 2px     1 2px     1 2px     1 2px     1 2px     1 2px     1 2px     1 2px     1 2px     1 2px  
                                   1 2px     1 2px     1 4f1+    1 4f3+    1 4f1+    1 4f3+    1 4f1+    1 4f3+    1 4f1+    1 4f3+ 
                                   1 4f1+    1 4f3+    1 4f1+    1 4f3+    1 4f1+    1 4f3+    1 4f1+    1 4f3+    1 6h1+    1 6h3+ 
                                   1 6h5+    1 6h1+    1 6h3+    1 6h5+    1 6h1+    1 6h3+    1 6h5+    1 6h1+    1 6h3+    1 6h5+ 


   1.2   2    -2.3185  -14.1864  1.012988 -0.000065  0.000103 -0.000169 -0.000098 -0.002541 -0.002350 -0.003681 -0.003826 -0.002284
                                -0.000829  0.000002  0.000000  0.000000 -0.000000 -0.000000  0.000000  0.000000 -0.000000 -0.000000
                                 0.000000 -0.000000 -0.000000 -0.000000  0.000000 -0.000000 -0.000000 -0.000000  0.000000  0.000000
                                 0.000000 -0.000000 -0.000000 -0.000000 -0.000000 -0.000000 -0.000000 -0.000000 -0.000000  0.000000

                                   1 2py     1 2py     1 2py     1 2py     1 2py     1 2py     1 2py     1 2py     1 2py     1 2py  
                                   1 2py     1 2py     1 4f1-    1 4f3-    1 4f1-    1 4f3-    1 4f1-    1 4f3-    1 4f1-    1 4f3- 
                                   1 4f1-    1 4f3-    1 4f1-    1 4f3-    1 4f1-    1 4f3-    1 4f1-    1 4f3-    1 6h1-    1 6h3- 
                                   1 6h5-    1 6h1-    1 6h3-    1 6h5-    1 6h1-    1 6h3-    1 6h5-    1 6h1-    1 6h3-    1 6h5- 


   1.3   2    -2.3185  -14.1864  1.012988 -0.000065  0.000103 -0.000169 -0.000098 -0.002541 -0.002350 -0.003681 -0.003826 -0.002284
                                -0.000829  0.000002  0.000000 -0.000000 -0.000000  0.000000  0.000000 -0.000000 -0.000000 -0.000000
                                 0.000000  0.000000 -0.000000 -0.000000  0.000000  0.000000 -0.000000 -0.000000  0.000000  0.000000
                                 0.000000 -0.000000 -0.000000 -0.000000 -0.000000 -0.000000 -0.000000  0.000000  0.000000  0.000000

                                   1 2pz     1 2pz     1 2pz     1 2pz     1 2pz     1 2pz     1 2pz     1 2pz     1 2pz     1 2pz  
                                   1 2pz     1 2pz     1 4f0     1 4f2+    1 4f0     1 4f2+    1 4f0     1 4f2+    1 4f0     1 4f2+ 
                                   1 4f0     1 4f2+    1 4f0     1 4f2+    1 4f0     1 4f2+    1 4f0     1 4f2+    1 6h2+    1 6h4+ 
                                   1 6h0     1 6h2+    1 6h4+    1 6h0     1 6h2+    1 6h4+    1 6h0     1 6h2+    1 6h4+    1 6h0  


   1.5   2    -2.3185  -14.1864  1.012988 -0.000065  0.000103 -0.000169 -0.000098 -0.002541 -0.002350 -0.003681 -0.003826 -0.002284
                                -0.000829  0.000002 -0.000000  0.000000  0.000000 -0.000000 -0.000000  0.000000  0.000000 -0.000000
                                -0.000000  0.000000  0.000000 -0.000000 -0.000000  0.000000  0.000000 -0.000000  0.000000 -0.000000
                                 0.000000 -0.000000 -0.000000 -0.000000 -0.000000 -0.000000 -0.000000 -0.000000 -0.000000  0.000000

 HOMO      2.1    -0.253251 =      -6.8913eV
 LUMO      2.2     0.033192 =       0.9032eV
 LUMO-HOMO         0.286443 =       7.7945eV


 **********************************************************************************************************************************
 DATASETS  * FILE   NREC   LENGTH (MB)   RECORD NAMES
              1      20      398.85       500      610      700      900      950      970     1000      129      960     1100   
                                          VAR    BASINP    GEOM    SYMINP    ZMAT    AOBASIS   BASIS     P2S    ABASIS      S 
                                         1400     1410     1420     1200     1210     1080     1600     1650     1300     1700   
                                         EKIN       V       ECP      H0       H01     AOSYM     SMH    MOLCAS    ERIS     OPER   

              2       4        3.02       700     1000      520     2100   
                                         GEOM     BASIS   MCVARS     RHF  

 PROGRAMS   *        TOTAL        HF       INT
 CPU TIMES  *        34.66      2.70     31.85
 REAL TIME  *        76.49 SEC
 DISK USED  *         1.39 GB      
 **********************************************************************************************************************************
 SETTING SCF(I)         =       -62.92742527  AU                              
 SETTING _CC_NORM_MAX   =         2.00000000                                  


 PROGRAM * CI (Multireference internally contracted CI)     Authors: H.-J. Werner, P.J. Knowles, 1987


 Convergence thresholds:  THRVAR = 1.00D-08  THRDEN = 1.00D-06

 Number of optimized states:  1  Roots:   1
 Number of reference states:  1  Roots:   1

 Reference symmetry:                   1   Singlet 
 Number of electrons:                 10
 Maximum number of shells:             3
 Maximum number of spin couplings:     2

 Reference space:        1 conf        1 CSFs
 N elec internal:        1 conf        1 CSFs
 N-1 el internal:        5 conf        5 CSFs
 N-2 el internal:       15 conf       25 CSFs

 Number of electrons in valence space:                     10
 Maximum number of open shell orbitals in reference space:  0
 Maximum number of open shell orbitals in internal spaces:  4


 Number of closed-shell orbitals:   5 (   2   1   1   0   1   0   0   0 )
 Number of external orbitals:     273 (  56  39  39  28  39  28  28  16 )

 Molecular orbitals read from record     2100.2  Type=RHF/CANONICAL (state 1.1)

 Integral transformation finished. Total CPU:   0.81 sec, npass=  1  Memory used:   0.29 MW

 Number of p-space configurations:   1

 Reference wavefunction optimized for reference space (refopt=1)

 State     Reference Energy 
   1         -62.92742527

 Number of blocks in overlap matrix:    25   Smallest eigenvalue:  0.10D+01
 Number of N-2 electron functions:      25
 Number of N-1 electron functions:       5

 Number of internal configurations:                    1
 Number of singly external configurations:           229
 Number of doubly external configurations:        121531
 Total number of contracted configurations:       121761
 Total number of uncontracted configurations:     121761

 Diagonal Coupling coefficients finished.               Storage:    1146 words, CPU-Time:      0.00 seconds.
 Energy denominators for pairs finished in 1 passes.    Storage:   91851 words, CPU-time:      0.00 seconds.

  ITER. STATE  ROOT     SQ.NORM     CORR.ENERGY   TOTAL ENERGY   ENERGY CHANGE       DEN1      VAR(S)    VAR(P)      TIME
    1     1     1     1.00000000     0.00000000   -62.92742527    -0.00000000    -0.34976878  0.57D-13  0.53D-01     0.83
    2     1     1     1.04803860    -0.33189072   -63.25931599    -0.33189072    -0.00420606  0.47D-03  0.14D-02     2.43
    3     1     1     1.04253048    -0.33585246   -63.26327773    -0.00396174    -0.00012544  0.10D-04  0.25D-04     4.02
    4     1     1     1.04298460    -0.33599164   -63.26341690    -0.00013918    -0.00000346  0.59D-06  0.50D-06     5.63
    5     1     1     1.04309282    -0.33599560   -63.26342087    -0.00000397    -0.00000009  0.88D-08  0.23D-07     7.23
    6     1     1     1.04310751    -0.33599570   -63.26342097    -0.00000010    -0.00000000  0.57D-09  0.80D-09     8.84


 =====================================
 Analysis of CPU times by interactions
 =====================================

       I      S      P

 I   0.0%
 S   0.0%   0.1%
 P   0.1%   0.0%   1.6%

 Initialization:   9.4%
 Other:           88.8%

 Total CPU:        8.8 seconds
 =====================================



 Reference coefficients greater than 0.0500000
 =============================================
 22222           0.9791190



 RESULTS FOR STATE 1.1
 =====================

 Coefficient of reference function:   C(0) = 0.97911897 (fixed)   0.97911897 (relaxed)

 Energy contributions of configuration classes

 CLASS          SQ.NORM        ECORR1        ECORR2
 +++++++++++++++++++++++++++++++++++++++++++++++++++
 Internals    0.00000000    0.00000000    0.00000000
 Singles      0.00068418   -0.00000000   -0.00022060
 Pairs        0.04242333   -0.33599570   -0.33577510
 Total        1.04310751   -0.33599570   -0.33599570
 +++++++++++++++++++++++++++++++++++++++++++++++++++


 Reference energy                     -62.92742527
 Nuclear energy                         0.00000000
 Kinetic energy                        48.78598715
 One electron energy                 -103.68990823
 Two electron energy                   40.42648726
 Virial quotient                       -1.29675394
 Correlation energy                    -0.33599570
 !CI(SD) STATE 1.1 Energy             -63.263420970038

 Properties without orbital relaxation:

 !CI(SD) STATE 1.1 Dipole moment        0.00000000     0.00000000     0.00000000
 Dipole moment /Debye                   0.00000000     0.00000000     0.00000000

 Cluster corrected energies           -63.27790491 (Davidson, fixed reference)
 Cluster corrected energies           -63.27790491 (Davidson, relaxed reference)

 Cluster corrected energies           -63.27531205 (Pople, fixed reference)
 Cluster corrected energies           -63.27531205 (Pople, relaxed reference)

 

 !CI(SD) expec       <1.1|EKIN|1.1>    48.785987154165
 
 !CI(SD) expec        <1.1|POT|1.1>   -15.675733823804


 **********************************************************************************************************************************
 DATASETS  * FILE   NREC   LENGTH (MB)   RECORD NAMES
              1      21      400.93       500      610      700      900      950      970     1000      129      960     1100   
                                          VAR    BASINP    GEOM    SYMINP    ZMAT    AOBASIS   BASIS     P2S    ABASIS      S 
                                         1400     1410     1420     1200     1210     1080     1600     1650     1300     1700   
                                         EKIN       V       ECP      H0       H01     AOSYM     SMH    MOLCAS    ERIS     OPER   
                                         1380   
                                         JKOP   

              2       4        3.02       700     1000      520     2100   
                                         GEOM     BASIS   MCVARS     RHF  

 PROGRAMS   *        TOTAL        CI        HF       INT
 CPU TIMES  *        43.56      8.90      2.70     31.85
 REAL TIME  *        88.71 SEC
 DISK USED  *         1.39 GB      
 **********************************************************************************************************************************
 SETTING POSTHF(I)      =       -63.26342097  AU                              
                                                                                                                                                                                                                                                                

        SCF            POSTHF        EKIN           POT
    -62.92742527   -63.26342097   48.78598715   -15.67573382
                                                  

 CI/USERDEF energy=    -63.263420970038

        CI              HF-SCF  
    -63.26342097    -62.92742527
 **********************************************************************************************************************************
 Molpro calculation terminated
 Variable memory released
