TACC:  Starting up job 2693002 
TACC:  Starting parallel tasks... 
  Input file(s): Al.log.qmc.in-wfj.xml 

=====================================================
                    QMCPACK 3.5.0 

       (c) Copyright 2003-  QMCPACK developers

                    Please cite:
 J. Kim et al. J. Phys. Cond. Mat. 30 195901 (2018)
      https://doi.org/10.1088/1361-648X/aab9c3

  Git branch: develop
  Last git commit: ca320f40410f5ef17c38db08d5c54848ef64bfe1
  Last git commit date: Tue Dec 18 15:37:17 2018 +0800
  Last git commit subject: Merge pull request #764 from Paul-St-Young/dat-h5
=====================================================
  Global options 

  MPI Nodes             = 1024
  MPI Nodes per group   = 1024
  MPI Group ID          = 0
  OMP 1st level threads = 1
  OMP nested threading disabled or only 1 thread on the 2nd level

  Precision used in this calculation, see definitions in the manual:
  Base precision      = double
  Full precision      = double

  Structure-of-arrays (SoA) optimization enabled

  Input XML = Al.log.qmc.in-wfj.xml

  Project = Al.log
  date    = 2018-12-26 17:32:23 CST
  host    = c456-001.stampede2.tacc.utexas.edu

 Random Number
 -------------
  Offset for the random number seeds based on time: 903

  Range of prime numbers to use as seeds over processors and threads = 7039-16673


 Particle Set 
 ------------
  Name: ion0
  All the species have the same mass 1
  Particle set size: 1

 Particle Set 
 ------------
  Name: e
  All the species have the same mass 1
  Particle set size: 3

 Wavefunction setup: 
 ------------------- 
  Name: psi0
  LCAO: SoaAtomicBasisSet<MultiQuintic,0>

  Distance table for similar particles (A-A):
    source/target: e
    Using structure-of-arrays (SoA) data layout
    Distance computations use open boundary conditions in 3D.


  Distance table for dissimilar particles (A-B):
    source: ion0  target: e
    Using structure-of-arrays (SoA) data layout
    Distance computations use open boundary conditions in 3D.

Reading BasisSet from HDF5 file:Al.log.orbs.h5
<input node="atomicBasisSet" name="Gaussian" expandYlm="gaussian" angular="cartesian" elementType="Al" normalized="no" type="Numerical" expM="0" />
  AO BasisSet for Al
   Angular momentum expanded in cartesian functions x^lx y^ly z^lz according to Gamess
   Grid is created by the input paremters in h5
    Using log grid ri = 1e-06 rf = 100 npts = 1001
   R(n,l,m,s) 0 0 0 0
   R(n,l,m,s) 1 0 0 0
   R(n,l,m,s) 2 0 0 0
   R(n,l,m,s) 3 1 0 0
   R(n,l,m,s) 4 1 0 0
   R(n,l,m,s) 5 1 0 0
   R(n,l,m,s) 6 2 0 0
   R(n,l,m,s) 7 2 0 0
   R(n,l,m,s) 8 3 0 0
Expanding Ylm (angular function) according to Gamess using cartesian gaussians
Adding 1 cartesian gaussian orbitals for l= 0
Adding 1 cartesian gaussian orbitals for l= 0
Adding 1 cartesian gaussian orbitals for l= 0
Adding 3 cartesian gaussian orbitals for l= 1
Adding 3 cartesian gaussian orbitals for l= 1
Adding 3 cartesian gaussian orbitals for l= 1
Adding 6 cartesian gaussian orbitals for l= 2
Adding 6 cartesian gaussian orbitals for l= 2
Adding 10 cartesian gaussian orbitals for l= 3
   Maximum Angular Momentum  = 3
   Number of Radial functors = 9
   Basis size                = 34

  Created SPOSet builder named 'LCAOBSet' of type molecularorbital
Reuse SPOSetBuilder "LCAOBSet" type MolecularOrbital
  Building SPOSet '' with '' basis set.
Reuse SPOSetBuilder "LCAOBSet" type MolecularOrbital
  Building SPOSet '' with '' basis set.
  Creating a determinant updet group=0 sposet=updet
  Reusing a SPO set updet
Using DiracDeterminant 
Using rank-1 Sherman-Morrison Fahy update

  Creating a determinant downdet group=1 sposet=downdet
  Reusing a SPO set downdet
Using DiracDeterminant 
Using rank-1 Sherman-Morrison Fahy update

  FermionWF = SlaterDet
  RadialJastrowBuilder adds a functor with cusp = -0.25
 size = 10 parameters 
 cusp = -0.25
 rcut = 9.5
Parameter     Name      Value
uu_0 0.352536 1 1  ON 0
uu_1 0.682972 1 1  ON 1
uu_2 0.474781 1 1  ON 2
uu_3 0.350735 1 1  ON 3
uu_4 0.240039 1 1  ON 4
uu_5 0.151101 1 1  ON 5
uu_6 0.0778811 1 1  ON 6
uu_7 0.0212729 1 1  ON 7
uu_8 -0.0138438 1 1  ON 8
uu_9 -0.0353444 1 1  ON 9
  RadialJastrowBuilder adds a functor with cusp = -0.5
 size = 10 parameters 
 cusp = -0.5
 rcut = 9.5
Parameter     Name      Value
ud_0 1.4312 1 1  ON 0
ud_1 1.07936 1 1  ON 1
ud_2 0.780627 1 1  ON 2
ud_3 0.557267 1 1  ON 3
ud_4 0.385104 1 1  ON 4
ud_5 0.247373 1 1  ON 5
ud_6 0.138064 1 1  ON 6
ud_7 0.0539639 1 1  ON 7
ud_8 -0.00157801 1 1  ON 8
ud_9 -0.0346718 1 1  ON 9
 size = 10 parameters 
 cusp = 0
 rcut = 9.5
Parameter     Name      Value
eAl_0 -0.714374 1 1  ON 0
eAl_1 -0.671234 1 1  ON 1
eAl_2 -0.548447 1 1  ON 2
eAl_3 -0.382724 1 1  ON 3
eAl_4 -0.201718 1 1  ON 4
eAl_5 -0.033025 1 1  ON 5
eAl_6 0.106415 1 1  ON 6
eAl_7 0.210879 1 1  ON 7
eAl_8 0.246843 1 1  ON 8
eAl_9 0.256002 1 1  ON 9
Expected 26 parameters, but found 0 in PolynomialFunctor3D.
Parameter     Name      Value
uuAl_0 0 1 1  ON 0
uuAl_1 0 1 1  ON 1
uuAl_2 0 1 1  ON 2
uuAl_3 0 1 1  ON 3
uuAl_4 0 1 1  ON 4
uuAl_5 0 1 1  ON 5
uuAl_6 0 1 1  ON 6
uuAl_7 0 1 1  ON 7
uuAl_8 0 1 1  ON 8
uuAl_9 0 1 1  ON 9
uuAl_10 0 1 1  ON 10
uuAl_11 0 1 1  ON 11
uuAl_12 0 1 1  ON 12
uuAl_13 0 1 1  ON 13
uuAl_14 0 1 1  ON 14
uuAl_15 0 1 1  ON 15
uuAl_16 0 1 1  ON 16
uuAl_17 0 1 1  ON 17
uuAl_18 0 1 1  ON 18
uuAl_19 0 1 1  ON 19
uuAl_20 0 1 1  ON 20
uuAl_21 0 1 1  ON 21
uuAl_22 0 1 1  ON 22
uuAl_23 0 1 1  ON 23
uuAl_24 0 1 1  ON 24
uuAl_25 0 1 1  ON 25
Expected 26 parameters, but found 0 in PolynomialFunctor3D.
Parameter     Name      Value
udAl_0 0 1 1  ON 0
udAl_1 0 1 1  ON 1
udAl_2 0 1 1  ON 2
udAl_3 0 1 1  ON 3
udAl_4 0 1 1  ON 4
udAl_5 0 1 1  ON 5
udAl_6 0 1 1  ON 6
udAl_7 0 1 1  ON 7
udAl_8 0 1 1  ON 8
udAl_9 0 1 1  ON 9
udAl_10 0 1 1  ON 10
udAl_11 0 1 1  ON 11
udAl_12 0 1 1  ON 12
udAl_13 0 1 1  ON 13
udAl_14 0 1 1  ON 14
udAl_15 0 1 1  ON 15
udAl_16 0 1 1  ON 16
udAl_17 0 1 1  ON 17
udAl_18 0 1 1  ON 18
udAl_19 0 1 1  ON 19
udAl_20 0 1 1  ON 20
udAl_21 0 1 1  ON 21
udAl_22 0 1 1  ON 22
udAl_23 0 1 1  ON 23
udAl_24 0 1 1  ON 24
udAl_25 0 1 1  ON 25
  QMCHamiltonian::addOperator Kinetic to H, physical Hamiltonian 
  QMCHamiltonian::addOperator ElecElec to H, physical Hamiltonian 
QMCHamiltonian::addOperatorType added type coulomb named ElecElec
  CoulombAA for ion0 is not created.  Number of particles == 1 and nonPeriodic

  ECPotential builder for pseudopotential 

  Adding pseudopotential for Al
   Linear grid  ri=0 rf=10 npts = 10001
    ECPComponentBuilder::buildSemiLocalAndLocal 
    Assuming Hartree unit
   Number of angular momentum channels 3
   Maximum angular momentum channel 2
   Creating a Linear Grid Rmax=3.08
  Using global grid with delta = 0.001
   Making L=2 a local potential with a radial cutoff of 9.999
    Non-local pseudopotential parameters
    Maximum angular mementum = 1
    Number of non-local channels = 2
       l(0)=0
       l(1)=1
    Cutoff radius = 3.08
    Spherical grids and weights: 
                        1                 0                 0       0.08333333333
                       -1   1.224646799e-16                 0       0.08333333333
             0.4472135955       0.894427191                 0       0.08333333333
            -0.4472135955      0.7236067977      0.5257311121       0.08333333333
             0.4472135955      0.2763932023      0.8506508084       0.08333333333
            -0.4472135955     -0.2763932023      0.8506508084       0.08333333333
             0.4472135955     -0.7236067977      0.5257311121       0.08333333333
            -0.4472135955      -0.894427191   1.095357397e-16       0.08333333333
             0.4472135955     -0.7236067977     -0.5257311121       0.08333333333
            -0.4472135955     -0.2763932023     -0.8506508084       0.08333333333
             0.4472135955      0.2763932023     -0.8506508084       0.08333333333
            -0.4472135955      0.7236067977     -0.5257311121       0.08333333333
    Maximum cutoff radius 3.08
  QMCHamiltonian::addOperator LocalECP to H, physical Hamiltonian 

  Using NonLocalECP potential 
    Maximum grid on a sphere for NonLocalECPotential: 12
  QMCHamiltonian::addOperator NonLocalECP to H, physical Hamiltonian 
QMCHamiltonian::addOperatorType added type pseudo named PseudoPot

  QMCHamiltonian::add2WalkerProperty added
    4 to P::PropertyList 
    0 to P::Collectables 
    starting Index of the observables in P::PropertyList = 9
ParticleSetPool::randomize 
<init source="ion0" target="e">
</init>
  Initialization Execution time = 1.736 secs
=========================================================
 Summary of QMC systems 
=========================================================
ParticleSetPool has: 

  ParticleSet e : 0 2 3 

    3

    u  1.8060426074e-01 -1.1395838367e+00  4.6228169031e-01
    u -4.2591966639e-01  6.1563213656e-01 -9.6034077776e-01
    d  7.2718166967e-01  9.5200986791e-01  9.3500418836e-01

  ParticleSet ion0 : 0 1 

    1

    Al  0.0000000000e+00  0.0000000000e+00  0.0000000000e+00

  Hamiltonian h0
  Kinetic         Kinetic energy
  ElecElec        CoulombAA source/target e

  LocalECP        LocalECPotential: ion0
  NonLocalECP     NonLocalECPotential: ion0

=========================================================
  Start VMC
  File Root Al.log.s000 append = no 
=========================================================
  Adding 1 walkers to 0 existing sets
  Total number of walkers: 1.0240000000e+03
  Total weight: 1.0240000000e+03
  Resetting Properties of the walkers 1 x 13

<vmc function="put">
  qmc_counter=0  my_counter=0
  time step      = 1.5000000000e-01
  blocks         = 200
  steps          = 1
  substeps       = 5
  current        = 0
  target samples = 1.0240000000e+03
  walkers/mpi    = 1

  stepsbetweensamples = 200
<parameter name="blocks" condition="int">200</parameter>
<parameter name="blocks_between_recompute" condition="int">0</parameter>
<parameter name="check_properties" condition="int">100</parameter>
<parameter name="checkproperties" condition="int">100</parameter>
<parameter name="current" condition="int">0</parameter>
<parameter name="dmcwalkersperthread" condition="real">1.0000000000e+00</parameter>
<parameter name="maxcpusecs" condition="real">3.6000000000e+05</parameter>
<parameter name="record_configs" condition="int">0</parameter>
<parameter name="record_walkers" condition="int">200</parameter>
<parameter name="recordconfigs" condition="int">0</parameter>
<parameter name="recordwalkers" condition="int">200</parameter>
<parameter name="rewind" condition="int">0</parameter>
<parameter name="samples" condition="real">1.0240000000e+03</parameter>
<parameter name="samplesperthread" condition="real">1.0000000000e+00</parameter>
<parameter name="steps" condition="int">1</parameter>
<parameter name="stepsbetweensamples" condition="int">200</parameter>
<parameter name="store_configs" condition="int">0</parameter>
<parameter name="storeconfigs" condition="int">0</parameter>
<parameter name="sub_steps" condition="int">5</parameter>
<parameter name="substeps" condition="int">5</parameter>
<parameter name="tau" condition="au">1.5000000000e-01</parameter>
<parameter name="time_step" condition="au">1.5000000000e-01</parameter>
<parameter name="timestep" condition="au">1.5000000000e-01</parameter>
<parameter name="use_drift" condition="string">no</parameter>
<parameter name="usedrift" condition="string">no</parameter>
<parameter name="walkers" condition="int">1</parameter>
<parameter name="warmup_steps" condition="int">100</parameter>
<parameter name="warmupsteps" condition="int">100</parameter>
  DumpConfig==false Nothing (configurations, state) will be saved.
  Walker Samples are dumped every 200 steps.
</vmc>
  Initial partition of walkers 0 1 

  Using Particle by Particle moves
  Walker moves without drift
  Total Sample Size   =1024
  Walker distribution on root = 0 1 
  Using Locality Approximation
===== Memory Usage after the buffer registration =====
Available memory on node 0, free + buffers : 82413 MB
Memory footprint by rank 0 on node 0       : 71 MB
==================================================
  Anonymous Buffer size per walker : 1184 Bytes.
MEMORY increase 0 MB VMC::resetRun
====================================================
  SimpleFixedNodeBranch::finalize after a VMC block
    QMC counter        = 0
    time step          = 0.15
    reference energy   = -1.93115
    reference variance = 0.0146002
====================================================
  QMC Execution time = 9.5089e-01 secs 
Loop execution max-interations = 20

=========================================================
  Start QMCFixedSampleLinearOptimize
  File Root Al.log.s001 append = no 
=========================================================
  Skip QMCDriver::putQMCInfo 
  Resetting Properties of the walkers 1 x 13

=========================================================
  Start VMC
  File Root Al.log.s001 append = no 
=========================================================
  Using the current 1 walkers.
  Total number of walkers: 1.0240e+03
  Total weight: 1.0240e+03
  Resetting Properties of the walkers 1 x 13

<vmc function="put">
  qmc_counter=0  my_counter=0
  time step      = 1.5000e-01
  blocks         = 300
  steps          = 2
  substeps       = 5
  current        = 0
  target samples = 5.1200e+05
  walkers/mpi    = 1

  stepsbetweensamples = 1
<parameter name="blocks" condition="int">300</parameter>
<parameter name="blocks_between_recompute" condition="int">0</parameter>
<parameter name="check_properties" condition="int">100</parameter>
<parameter name="checkproperties" condition="int">100</parameter>
<parameter name="current" condition="int">0</parameter>
<parameter name="dmcwalkersperthread" condition="real">5.0000e+02</parameter>
<parameter name="maxcpusecs" condition="real">3.6000e+05</parameter>
<parameter name="record_configs" condition="int">0</parameter>
<parameter name="record_walkers" condition="int">1</parameter>
<parameter name="recordconfigs" condition="int">0</parameter>
<parameter name="recordwalkers" condition="int">1</parameter>
<parameter name="rewind" condition="int">0</parameter>
<parameter name="samples" condition="real">5.1200e+05</parameter>
<parameter name="samplesperthread" condition="real">5.0000e+02</parameter>
<parameter name="steps" condition="int">2</parameter>
<parameter name="stepsbetweensamples" condition="int">1</parameter>
<parameter name="store_configs" condition="int">0</parameter>
<parameter name="storeconfigs" condition="int">0</parameter>
<parameter name="sub_steps" condition="int">5</parameter>
<parameter name="substeps" condition="int">5</parameter>
<parameter name="tau" condition="au">1.5000e-01</parameter>
<parameter name="time_step" condition="au">1.5000e-01</parameter>
<parameter name="timestep" condition="au">1.5000e-01</parameter>
<parameter name="use_drift" condition="string">no</parameter>
<parameter name="usedrift" condition="string">no</parameter>
<parameter name="walkers" condition="int">1</parameter>
<parameter name="warmup_steps" condition="int">0</parameter>
<parameter name="warmupsteps" condition="int">0</parameter>
  DumpConfig==false Nothing (configurations, state) will be saved.
  Walker Samples are dumped every 1 steps.
</vmc>
    Restarting, cummulative properties:
      energy     = -1.9311e+00
      variance   = 0.0000e+00
      r2accepted = 1.0000e-10
      r2proposed = 1.0000e-10
 Using QMCCostFunction::QMCCostFunction
  EstimatorManagerBase::add replace LocalEnergy estimator.
<optimization-report>
<vmc stage="main" blocks="300">
  Cannot make clones again. Use existing 1 clones
  Initial partition of walkers 0 1 

  Using Particle by Particle moves
  Walker moves without drift
  Total Sample Size   =512000
  Walker distribution on root = 0 1 
  Using Locality Approximation
===== Memory Usage after the buffer registration =====
Available memory on node 0, free + buffers : 82401 MB
Memory footprint by rank 0 on node 0       : 72 MB
==================================================
  Anonymous Buffer size per walker : 1184 Bytes.
MEMORY increase 0 MB VMC::resetRun
====================================================
  SimpleFixedNodeBranch::finalize after a VMC block
    QMC counter        = 1
    time step          = 0.15
    reference energy   = -1.93089
    reference variance = 0.00931608
====================================================
  Execution time = 2.2365e+00
</vmc>
<opt stage="setup">
  <log>
   Reading configurations from h5FileRoot Al.log.s001
  QMCCostFunction is created with 1 threads.
  Using Nonlocal PP in Opt: NonLocalECP
   Number of samples loaded to each thread : 500 
  VMC Eavg = -1.9313e+00
  VMC Evar = 1.3277e-02
  Total weights = 5.1200e+05
  Execution time = 5.5749e-01
  </log>
</opt>
<opt stage="main" walkers="512000">
  <log>

*****************************************
Building overlap and Hamiltonian matrices
*****************************************

Among totally 82 optimized parameters, largest LM parameter change : 3.3822e-02 at parameter 21

******************************************************************************
Init Cost =  -1.8340e+00    New Cost =  -1.8364e+00  Delta Cost =  -2.3169e-03
******************************************************************************

The new set of parameters is valid. Updating the trial wave function!

*****************************************************************************
Applying the update for shift_i =   1.0000e-02     and shift_s =   2.5000e-01
*****************************************************************************
  Execution time = 3.5232e+00
  </log>
  <optVariables href="Al.log.s001.opt.xml">
uu_0 3.6325e-01 1 1  ON 0
uu_1 6.7368e-01 1 1  ON 1
uu_2 4.7064e-01 1 1  ON 2
uu_3 3.5417e-01 1 1  ON 3
uu_4 2.4687e-01 1 1  ON 4
uu_5 1.5940e-01 1 1  ON 5
uu_6 8.5825e-02 1 1  ON 6
uu_7 3.0042e-02 1 1  ON 7
uu_8 -5.6356e-03 1 1  ON 8
uu_9 -2.8145e-02 1 1  ON 9
ud_0 1.4376e+00 1 1  ON 10
ud_1 1.0751e+00 1 1  ON 11
ud_2 7.9365e-01 1 1  ON 12
ud_3 5.7778e-01 1 1  ON 13
ud_4 4.0351e-01 1 1  ON 14
ud_5 2.6081e-01 1 1  ON 15
ud_6 1.4580e-01 1 1  ON 16
ud_7 6.1248e-02 1 1  ON 17
ud_8 5.1304e-03 1 1  ON 18
ud_9 -2.9282e-02 1 1  ON 19
eAl_0 -7.0986e-01 1 1  ON 20
eAl_1 -6.3741e-01 1 1  ON 21
eAl_2 -5.5275e-01 1 1  ON 22
eAl_3 -4.0704e-01 1 1  ON 23
eAl_4 -2.2592e-01 1 1  ON 24
eAl_5 -5.7690e-02 1 1  ON 25
eAl_6 8.1727e-02 1 1  ON 26
eAl_7 1.9181e-01 1 1  ON 27
eAl_8 2.3175e-01 1 1  ON 28
eAl_9 2.4699e-01 1 1  ON 29
uuAl_0 -9.8428e-06 1 1  ON 30
uuAl_1 -2.1108e-04 1 1  ON 31
uuAl_2 -1.2033e-04 1 1  ON 32
uuAl_3 1.1534e-04 1 1  ON 33
uuAl_4 3.7240e-05 1 1  ON 34
uuAl_5 1.8259e-05 1 1  ON 35
uuAl_6 -3.6487e-04 1 1  ON 36
uuAl_7 2.0385e-04 1 1  ON 37
uuAl_8 -1.3223e-04 1 1  ON 38
uuAl_9 2.2600e-04 1 1  ON 39
uuAl_10 6.7371e-05 1 1  ON 40
uuAl_11 -5.9221e-06 1 1  ON 41
uuAl_12 4.2488e-05 1 1  ON 42
uuAl_13 -1.7141e-04 1 1  ON 43
uuAl_14 -2.5233e-05 1 1  ON 44
uuAl_15 -1.4775e-06 1 1  ON 45
uuAl_16 -1.2940e-04 1 1  ON 46
uuAl_17 -1.2121e-04 1 1  ON 47
uuAl_18 2.9335e-05 1 1  ON 48
uuAl_19 -1.9569e-05 1 1  ON 49
uuAl_20 7.3231e-05 1 1  ON 50
uuAl_21 -2.4321e-07 1 1  ON 51
uuAl_22 1.7865e-06 1 1  ON 52
uuAl_23 -1.6385e-05 1 1  ON 53
uuAl_24 7.5342e-07 1 1  ON 54
uuAl_25 -2.8264e-07 1 1  ON 55
udAl_0 7.0583e-05 1 1  ON 56
udAl_1 5.3686e-05 1 1  ON 57
udAl_2 -1.9770e-04 1 1  ON 58
udAl_3 7.5090e-05 1 1  ON 59
udAl_4 4.8532e-05 1 1  ON 60
udAl_5 -9.6048e-06 1 1  ON 61
udAl_6 4.0404e-05 1 1  ON 62
udAl_7 -1.1669e-04 1 1  ON 63
udAl_8 -2.6781e-04 1 1  ON 64
udAl_9 -8.4851e-05 1 1  ON 65
udAl_10 8.4310e-06 1 1  ON 66
udAl_11 2.2388e-04 1 1  ON 67
udAl_12 6.9002e-05 1 1  ON 68
udAl_13 -8.3511e-05 1 1  ON 69
udAl_14 -6.2693e-05 1 1  ON 70
udAl_15 -8.5545e-07 1 1  ON 71
udAl_16 1.2177e-04 1 1  ON 72
udAl_17 -6.3705e-05 1 1  ON 73
udAl_18 -1.2501e-04 1 1  ON 74
udAl_19 -1.7594e-05 1 1  ON 75
udAl_20 1.2638e-05 1 1  ON 76
udAl_21 2.5825e-05 1 1  ON 77
udAl_22 -3.6520e-07 1 1  ON 78
udAl_23 -3.5915e-06 1 1  ON 79
udAl_24 -3.8549e-06 1 1  ON 80
udAl_25 2.8406e-07 1 1  ON 81
  </optVariables>
   Restore the number of walkers to 1, removing 0 walkers.
</opt>
</optimization-report>
  QMC Execution time = 3.5394e+00 secs 
  Reusing QMCFixedSampleLinearOptimize
 Using QMCCostFunction::QMCCostFunction

=========================================================
  Start QMCFixedSampleLinearOptimize
  File Root Al.log.s002 append = no 
=========================================================
  Skip QMCDriver::putQMCInfo 
  Resetting Properties of the walkers 1 x 13

=========================================================
  Start VMC
  File Root Al.log.s002 append = no 
=========================================================
Using existing walkers 
  Resetting Properties of the walkers 1 x 13

<vmc function="put">
  qmc_counter=1  my_counter=1
  time step      = 1.5000e-01
  blocks         = 300
  steps          = 2
  substeps       = 5
  current        = 0
  target samples = 5.1200e+05
  walkers/mpi    = 1

  stepsbetweensamples = 1
<parameter name="blocks" condition="int">300</parameter>
<parameter name="blocks_between_recompute" condition="int">0</parameter>
<parameter name="check_properties" condition="int">100</parameter>
<parameter name="checkproperties" condition="int">100</parameter>
<parameter name="current" condition="int">0</parameter>
<parameter name="dmcwalkersperthread" condition="real">5.0000e+02</parameter>
<parameter name="maxcpusecs" condition="real">3.6000e+05</parameter>
<parameter name="record_configs" condition="int">0</parameter>
<parameter name="record_walkers" condition="int">1</parameter>
<parameter name="recordconfigs" condition="int">0</parameter>
<parameter name="recordwalkers" condition="int">1</parameter>
<parameter name="rewind" condition="int">0</parameter>
<parameter name="samples" condition="real">5.1200e+05</parameter>
<parameter name="samplesperthread" condition="real">5.0000e+02</parameter>
<parameter name="steps" condition="int">2</parameter>
<parameter name="stepsbetweensamples" condition="int">1</parameter>
<parameter name="store_configs" condition="int">0</parameter>
<parameter name="storeconfigs" condition="int">0</parameter>
<parameter name="sub_steps" condition="int">5</parameter>
<parameter name="substeps" condition="int">5</parameter>
<parameter name="tau" condition="au">1.5000e-01</parameter>
<parameter name="time_step" condition="au">1.5000e-01</parameter>
<parameter name="timestep" condition="au">1.5000e-01</parameter>
<parameter name="use_drift" condition="string">no</parameter>
<parameter name="usedrift" condition="string">no</parameter>
<parameter name="walkers" condition="int">1</parameter>
<parameter name="warmup_steps" condition="int">0</parameter>
<parameter name="warmupsteps" condition="int">0</parameter>
  DumpConfig==false Nothing (configurations, state) will be saved.
  Walker Samples are dumped every 1 steps.
</vmc>
  EstimatorManagerBase::add replace LocalEnergy estimator.
  EstimatorManagerBase::add replace LocalEnergy estimator.
<optimization-report>
<vmc stage="main" blocks="300">
  Cannot make clones again. Use existing 1 clones
  Initial partition of walkers 0 1 
  Using Particle by Particle moves
  Walker moves without drift
  Total Sample Size   =512000
  Walker distribution on root = 0 1 
  Using Locality Approximation
===== Memory Usage after the buffer registration =====
Available memory on node 0, free + buffers : 81302 MB
Memory footprint by rank 0 on node 0       : 92 MB
==================================================
====================================================
  SimpleFixedNodeBranch::finalize after a VMC block
    QMC counter        = 2
    time step          = 0.15
    reference energy   = -1.93463
    reference variance = 0.00596468
====================================================
  Execution time = 2.2457e+00
</vmc>
<opt stage="setup">
  <log>
   Reading configurations from h5FileRoot Al.log.s002
  QMCCostFunction is created with 1 threads.
  Using Nonlocal PP in Opt: NonLocalECP
   Number of samples loaded to each thread : 500 
  VMC Eavg = -1.9331e+00
  VMC Evar = 7.1396e-03
  Total weights = 5.1200e+05
  Execution time = 5.3119e-01
  </log>
</opt>
<opt stage="main" walkers="512000">
  <log>

*****************************************
Building overlap and Hamiltonian matrices
*****************************************

Among totally 82 optimized parameters, largest LM parameter change : 2.9803e-02 at parameter 25

******************************************************************************
Init Cost =  -1.8361e+00    New Cost =  -1.8368e+00  Delta Cost =  -6.6537e-04
******************************************************************************

The new set of parameters is valid. Updating the trial wave function!

*****************************************************************************
Applying the update for shift_i =   1.0000e-02     and shift_s =   6.2500e-02
*****************************************************************************
  Execution time = 3.4043e+00
  </log>
  <optVariables href="Al.log.s002.opt.xml">
uu_0 3.7425e-01 1 1  ON 0
uu_1 6.6543e-01 1 1  ON 1
uu_2 4.6915e-01 1 1  ON 2
uu_3 3.5708e-01 1 1  ON 3
uu_4 2.5362e-01 1 1  ON 4
uu_5 1.6782e-01 1 1  ON 5
uu_6 9.3212e-02 1 1  ON 6
uu_7 3.7352e-02 1 1  ON 7
uu_8 1.0224e-03 1 1  ON 8
uu_9 -2.3346e-02 1 1  ON 9
ud_0 1.4442e+00 1 1  ON 10
ud_1 1.0807e+00 1 1  ON 11
ud_2 8.0865e-01 1 1  ON 12
ud_3 5.9559e-01 1 1  ON 13
ud_4 4.2007e-01 1 1  ON 14
ud_5 2.7176e-01 1 1  ON 15
ud_6 1.5043e-01 1 1  ON 16
ud_7 6.4356e-02 1 1  ON 17
ud_8 8.0393e-03 1 1  ON 18
ud_9 -2.6355e-02 1 1  ON 19
eAl_0 -7.0564e-01 1 1  ON 20
eAl_1 -6.1990e-01 1 1  ON 21
eAl_2 -5.5417e-01 1 1  ON 22
eAl_3 -4.2208e-01 1 1  ON 23
eAl_4 -2.4644e-01 1 1  ON 24
eAl_5 -8.7493e-02 1 1  ON 25
eAl_6 5.6458e-02 1 1  ON 26
eAl_7 1.7156e-01 1 1  ON 27
eAl_8 2.1763e-01 1 1  ON 28
eAl_9 2.3930e-01 1 1  ON 29
uuAl_0 -6.5108e-06 1 1  ON 30
uuAl_1 -9.9161e-05 1 1  ON 31
uuAl_2 -1.0146e-04 1 1  ON 32
uuAl_3 1.2120e-04 1 1  ON 33
uuAl_4 3.8660e-05 1 1  ON 34
uuAl_5 1.1109e-05 1 1  ON 35
uuAl_6 -1.7990e-04 1 1  ON 36
uuAl_7 1.5752e-04 1 1  ON 37
uuAl_8 -1.5126e-04 1 1  ON 38
uuAl_9 9.3062e-05 1 1  ON 39
uuAl_10 6.4087e-05 1 1  ON 40
uuAl_11 7.3185e-06 1 1  ON 41
uuAl_12 5.1304e-05 1 1  ON 42
uuAl_13 -1.8650e-04 1 1  ON 43
uuAl_14 -3.7713e-05 1 1  ON 44
uuAl_15 -1.2683e-06 1 1  ON 45
uuAl_16 1.5895e-05 1 1  ON 46
uuAl_17 -1.7527e-04 1 1  ON 47
uuAl_18 3.1500e-05 1 1  ON 48
uuAl_19 -2.3921e-05 1 1  ON 49
uuAl_20 6.4152e-05 1 1  ON 50
uuAl_21 2.8512e-06 1 1  ON 51
uuAl_22 1.8770e-06 1 1  ON 52
uuAl_23 -1.5623e-05 1 1  ON 53
uuAl_24 2.0982e-07 1 1  ON 54
uuAl_25 -2.5887e-07 1 1  ON 55
udAl_0 5.3169e-05 1 1  ON 56
udAl_1 4.3537e-05 1 1  ON 57
udAl_2 -2.6147e-04 1 1  ON 58
udAl_3 1.6250e-04 1 1  ON 59
udAl_4 7.4623e-05 1 1  ON 60
udAl_5 -1.3500e-05 1 1  ON 61
udAl_6 8.3576e-05 1 1  ON 62
udAl_7 -1.4871e-04 1 1  ON 63
udAl_8 -4.1035e-04 1 1  ON 64
udAl_9 -9.5974e-05 1 1  ON 65
udAl_10 4.2460e-05 1 1  ON 66
udAl_11 3.1292e-04 1 1  ON 67
udAl_12 1.0809e-04 1 1  ON 68
udAl_13 -2.0013e-04 1 1  ON 69
udAl_14 -1.0122e-04 1 1  ON 70
udAl_15 -1.0230e-06 1 1  ON 71
udAl_16 1.8791e-04 1 1  ON 72
udAl_17 -1.7537e-04 1 1  ON 73
udAl_18 -1.6183e-04 1 1  ON 74
udAl_19 -2.8704e-05 1 1  ON 75
udAl_20 4.6770e-05 1 1  ON 76
udAl_21 3.7126e-05 1 1  ON 77
udAl_22 -4.8449e-07 1 1  ON 78
udAl_23 -1.3050e-05 1 1  ON 79
udAl_24 -5.2716e-06 1 1  ON 80
udAl_25 4.0937e-07 1 1  ON 81
  </optVariables>
   Restore the number of walkers to 1, removing 0 walkers.
</opt>
</optimization-report>
  QMC Execution time = 3.4197e+00 secs 
  Reusing QMCFixedSampleLinearOptimize
 Using QMCCostFunction::QMCCostFunction

=========================================================
  Start QMCFixedSampleLinearOptimize
  File Root Al.log.s003 append = no 
=========================================================
  Skip QMCDriver::putQMCInfo 
  Resetting Properties of the walkers 1 x 13

=========================================================
  Start VMC
  File Root Al.log.s003 append = no 
=========================================================
Using existing walkers 
  Resetting Properties of the walkers 1 x 13

<vmc function="put">
  qmc_counter=2  my_counter=2
  time step      = 1.5000e-01
  blocks         = 300
  steps          = 2
  substeps       = 5
  current        = 0
  target samples = 5.1200e+05
  walkers/mpi    = 1

  stepsbetweensamples = 1
<parameter name="blocks" condition="int">300</parameter>
<parameter name="blocks_between_recompute" condition="int">0</parameter>
<parameter name="check_properties" condition="int">100</parameter>
<parameter name="checkproperties" condition="int">100</parameter>
<parameter name="current" condition="int">0</parameter>
<parameter name="dmcwalkersperthread" condition="real">5.0000e+02</parameter>
<parameter name="maxcpusecs" condition="real">3.6000e+05</parameter>
<parameter name="record_configs" condition="int">0</parameter>
<parameter name="record_walkers" condition="int">1</parameter>
<parameter name="recordconfigs" condition="int">0</parameter>
<parameter name="recordwalkers" condition="int">1</parameter>
<parameter name="rewind" condition="int">0</parameter>
<parameter name="samples" condition="real">5.1200e+05</parameter>
<parameter name="samplesperthread" condition="real">5.0000e+02</parameter>
<parameter name="steps" condition="int">2</parameter>
<parameter name="stepsbetweensamples" condition="int">1</parameter>
<parameter name="store_configs" condition="int">0</parameter>
<parameter name="storeconfigs" condition="int">0</parameter>
<parameter name="sub_steps" condition="int">5</parameter>
<parameter name="substeps" condition="int">5</parameter>
<parameter name="tau" condition="au">1.5000e-01</parameter>
<parameter name="time_step" condition="au">1.5000e-01</parameter>
<parameter name="timestep" condition="au">1.5000e-01</parameter>
<parameter name="use_drift" condition="string">no</parameter>
<parameter name="usedrift" condition="string">no</parameter>
<parameter name="walkers" condition="int">1</parameter>
<parameter name="warmup_steps" condition="int">0</parameter>
<parameter name="warmupsteps" condition="int">0</parameter>
  DumpConfig==false Nothing (configurations, state) will be saved.
  Walker Samples are dumped every 1 steps.
</vmc>
  EstimatorManagerBase::add replace LocalEnergy estimator.
  EstimatorManagerBase::add replace LocalEnergy estimator.
<optimization-report>
<vmc stage="main" blocks="300">
  Cannot make clones again. Use existing 1 clones
  Initial partition of walkers 0 1 
  Using Particle by Particle moves
  Walker moves without drift
  Total Sample Size   =512000
  Walker distribution on root = 0 1 
  Using Locality Approximation
===== Memory Usage after the buffer registration =====
Available memory on node 0, free + buffers : 81298 MB
Memory footprint by rank 0 on node 0       : 94 MB
==================================================
====================================================
  SimpleFixedNodeBranch::finalize after a VMC block
    QMC counter        = 3
    time step          = 0.15
    reference energy   = -1.93766
    reference variance = 0.00500874
====================================================
  Execution time = 2.2130e+00
</vmc>
<opt stage="setup">
  <log>
   Reading configurations from h5FileRoot Al.log.s003
  QMCCostFunction is created with 1 threads.
  Using Nonlocal PP in Opt: NonLocalECP
   Number of samples loaded to each thread : 500 
  VMC Eavg = -1.9343e+00
  VMC Evar = 7.0700e-03
  Total weights = 5.1200e+05
  Execution time = 5.3427e-01
  </log>
</opt>
<opt stage="main" walkers="512000">
  <log>

*****************************************
Building overlap and Hamiltonian matrices
*****************************************

Among totally 82 optimized parameters, largest LM parameter change : 2.1979e-02 at parameter 25

******************************************************************************
Init Cost =  -1.8372e+00    New Cost =  -1.8373e+00  Delta Cost =  -1.3964e-04
******************************************************************************

The new set of parameters is valid. Updating the trial wave function!

*****************************************************************************
Applying the update for shift_i =   1.0000e-02     and shift_s =   1.5625e-02
*****************************************************************************
  Execution time = 3.4109e+00
  </log>
  <optVariables href="Al.log.s003.opt.xml">
uu_0 3.8407e-01 1 1  ON 0
uu_1 6.5851e-01 1 1  ON 1
uu_2 4.6910e-01 1 1  ON 2
uu_3 3.6095e-01 1 1  ON 3
uu_4 2.5889e-01 1 1  ON 4
uu_5 1.7337e-01 1 1  ON 5
uu_6 9.8514e-02 1 1  ON 6
uu_7 4.2946e-02 1 1  ON 7
uu_8 6.6434e-03 1 1  ON 8
uu_9 -1.8276e-02 1 1  ON 9
ud_0 1.4531e+00 1 1  ON 10
ud_1 1.0895e+00 1 1  ON 11
ud_2 8.2058e-01 1 1  ON 12
ud_3 6.0786e-01 1 1  ON 13
ud_4 4.3199e-01 1 1  ON 14
ud_5 2.8072e-01 1 1  ON 15
ud_6 1.5575e-01 1 1  ON 16
ud_7 6.7806e-02 1 1  ON 17
ud_8 1.0372e-02 1 1  ON 18
ud_9 -2.4278e-02 1 1  ON 19
eAl_0 -7.0130e-01 1 1  ON 20
eAl_1 -6.1834e-01 1 1  ON 21
eAl_2 -5.6155e-01 1 1  ON 22
eAl_3 -4.3346e-01 1 1  ON 23
eAl_4 -2.6171e-01 1 1  ON 24
eAl_5 -1.0947e-01 1 1  ON 25
eAl_6 3.7522e-02 1 1  ON 26
eAl_7 1.5546e-01 1 1  ON 27
eAl_8 2.0521e-01 1 1  ON 28
eAl_9 2.3228e-01 1 1  ON 29
uuAl_0 -3.0320e-05 1 1  ON 30
uuAl_1 -1.4852e-04 1 1  ON 31
uuAl_2 -1.0967e-04 1 1  ON 32
uuAl_3 1.7816e-04 1 1  ON 33
uuAl_4 5.0628e-05 1 1  ON 34
uuAl_5 1.4472e-05 1 1  ON 35
uuAl_6 -2.2448e-04 1 1  ON 36
uuAl_7 1.9134e-04 1 1  ON 37
uuAl_8 -1.8620e-04 1 1  ON 38
uuAl_9 1.4071e-04 1 1  ON 39
uuAl_10 1.0025e-04 1 1  ON 40
uuAl_11 6.4514e-07 1 1  ON 41
uuAl_12 6.3500e-05 1 1  ON 42
uuAl_13 -2.5670e-04 1 1  ON 43
uuAl_14 -4.7310e-05 1 1  ON 44
uuAl_15 -1.4690e-06 1 1  ON 45
uuAl_16 -1.6779e-05 1 1  ON 46
uuAl_17 -2.3416e-04 1 1  ON 47
uuAl_18 4.5113e-05 1 1  ON 48
uuAl_19 -2.9263e-05 1 1  ON 49
uuAl_20 9.5376e-05 1 1  ON 50
uuAl_21 2.6051e-06 1 1  ON 51
uuAl_22 2.2766e-06 1 1  ON 52
uuAl_23 -2.3603e-05 1 1  ON 53
uuAl_24 5.4253e-07 1 1  ON 54
uuAl_25 -3.2433e-07 1 1  ON 55
udAl_0 3.8864e-05 1 1  ON 56
udAl_1 7.2658e-05 1 1  ON 57
udAl_2 -2.6502e-04 1 1  ON 58
udAl_3 1.8356e-04 1 1  ON 59
udAl_4 7.8878e-05 1 1  ON 60
udAl_5 -1.6313e-05 1 1  ON 61
udAl_6 1.4560e-04 1 1  ON 62
udAl_7 -1.4072e-04 1 1  ON 63
udAl_8 -4.4372e-04 1 1  ON 64
udAl_9 -1.3168e-04 1 1  ON 65
udAl_10 4.6311e-05 1 1  ON 66
udAl_11 3.3120e-04 1 1  ON 67
udAl_12 1.1909e-04 1 1  ON 68
udAl_13 -2.3357e-04 1 1  ON 69
udAl_14 -1.1191e-04 1 1  ON 70
udAl_15 -1.1464e-06 1 1  ON 71
udAl_16 2.3493e-04 1 1  ON 72
udAl_17 -2.1013e-04 1 1  ON 73
udAl_18 -1.7211e-04 1 1  ON 74
udAl_19 -3.2350e-05 1 1  ON 75
udAl_20 5.5098e-05 1 1  ON 76
udAl_21 4.0777e-05 1 1  ON 77
udAl_22 -4.6942e-07 1 1  ON 78
udAl_23 -1.5957e-05 1 1  ON 79
udAl_24 -5.7773e-06 1 1  ON 80
udAl_25 4.4134e-07 1 1  ON 81
  </optVariables>
   Restore the number of walkers to 1, removing 0 walkers.
</opt>
</optimization-report>
  QMC Execution time = 3.4262e+00 secs 
  Reusing QMCFixedSampleLinearOptimize
 Using QMCCostFunction::QMCCostFunction

=========================================================
  Start QMCFixedSampleLinearOptimize
  File Root Al.log.s004 append = no 
=========================================================
  Skip QMCDriver::putQMCInfo 
  Resetting Properties of the walkers 1 x 13

=========================================================
  Start VMC
  File Root Al.log.s004 append = no 
=========================================================
Using existing walkers 
  Resetting Properties of the walkers 1 x 13

<vmc function="put">
  qmc_counter=3  my_counter=3
  time step      = 1.5000e-01
  blocks         = 300
  steps          = 2
  substeps       = 5
  current        = 0
  target samples = 5.1200e+05
  walkers/mpi    = 1

  stepsbetweensamples = 1
<parameter name="blocks" condition="int">300</parameter>
<parameter name="blocks_between_recompute" condition="int">0</parameter>
<parameter name="check_properties" condition="int">100</parameter>
<parameter name="checkproperties" condition="int">100</parameter>
<parameter name="current" condition="int">0</parameter>
<parameter name="dmcwalkersperthread" condition="real">5.0000e+02</parameter>
<parameter name="maxcpusecs" condition="real">3.6000e+05</parameter>
<parameter name="record_configs" condition="int">0</parameter>
<parameter name="record_walkers" condition="int">1</parameter>
<parameter name="recordconfigs" condition="int">0</parameter>
<parameter name="recordwalkers" condition="int">1</parameter>
<parameter name="rewind" condition="int">0</parameter>
<parameter name="samples" condition="real">5.1200e+05</parameter>
<parameter name="samplesperthread" condition="real">5.0000e+02</parameter>
<parameter name="steps" condition="int">2</parameter>
<parameter name="stepsbetweensamples" condition="int">1</parameter>
<parameter name="store_configs" condition="int">0</parameter>
<parameter name="storeconfigs" condition="int">0</parameter>
<parameter name="sub_steps" condition="int">5</parameter>
<parameter name="substeps" condition="int">5</parameter>
<parameter name="tau" condition="au">1.5000e-01</parameter>
<parameter name="time_step" condition="au">1.5000e-01</parameter>
<parameter name="timestep" condition="au">1.5000e-01</parameter>
<parameter name="use_drift" condition="string">no</parameter>
<parameter name="usedrift" condition="string">no</parameter>
<parameter name="walkers" condition="int">1</parameter>
<parameter name="warmup_steps" condition="int">0</parameter>
<parameter name="warmupsteps" condition="int">0</parameter>
  DumpConfig==false Nothing (configurations, state) will be saved.
  Walker Samples are dumped every 1 steps.
</vmc>
  EstimatorManagerBase::add replace LocalEnergy estimator.
  EstimatorManagerBase::add replace LocalEnergy estimator.
<optimization-report>
<vmc stage="main" blocks="300">
  Cannot make clones again. Use existing 1 clones
  Initial partition of walkers 0 1 
  Using Particle by Particle moves
  Walker moves without drift
  Total Sample Size   =512000
  Walker distribution on root = 0 1 
  Using Locality Approximation
===== Memory Usage after the buffer registration =====
Available memory on node 0, free + buffers : 81296 MB
Memory footprint by rank 0 on node 0       : 96 MB
==================================================
====================================================
  SimpleFixedNodeBranch::finalize after a VMC block
    QMC counter        = 4
    time step          = 0.15
    reference energy   = -1.93586
    reference variance = 0.00599039
====================================================
  Execution time = 2.2198e+00
</vmc>
<opt stage="setup">
  <log>
   Reading configurations from h5FileRoot Al.log.s004
  QMCCostFunction is created with 1 threads.
  Using Nonlocal PP in Opt: NonLocalECP
   Number of samples loaded to each thread : 500 
  VMC Eavg = -1.9342e+00
  VMC Evar = 6.8973e-03
  Total weights = 5.1200e+05
  Execution time = 5.6799e-01
  </log>
</opt>
<opt stage="main" walkers="512000">
  <log>

*****************************************
Building overlap and Hamiltonian matrices
*****************************************

Among totally 82 optimized parameters, largest LM parameter change : 1.9016e-02 at parameter 25

******************************************************************************
Init Cost =  -1.8371e+00    New Cost =  -1.8372e+00  Delta Cost =  -5.4173e-05
******************************************************************************

The new set of parameters is valid. Updating the trial wave function!

*****************************************************************************
Applying the update for shift_i =   1.0000e-02     and shift_s =   3.9062e-03
*****************************************************************************
  Execution time = 3.4168e+00
  </log>
  <optVariables href="Al.log.s004.opt.xml">
uu_0 3.9266e-01 1 1  ON 0
uu_1 6.5369e-01 1 1  ON 1
uu_2 4.6933e-01 1 1  ON 2
uu_3 3.6391e-01 1 1  ON 3
uu_4 2.6251e-01 1 1  ON 4
uu_5 1.7650e-01 1 1  ON 5
uu_6 1.0173e-01 1 1  ON 6
uu_7 4.6220e-02 1 1  ON 7
uu_8 9.3858e-03 1 1  ON 8
uu_9 -1.5411e-02 1 1  ON 9
ud_0 1.4620e+00 1 1  ON 10
ud_1 1.0993e+00 1 1  ON 11
ud_2 8.3067e-01 1 1  ON 12
ud_3 6.1705e-01 1 1  ON 13
ud_4 4.4038e-01 1 1  ON 14
ud_5 2.8778e-01 1 1  ON 15
ud_6 1.6141e-01 1 1  ON 16
ud_7 7.2509e-02 1 1  ON 17
ud_8 1.4553e-02 1 1  ON 18
ud_9 -2.0871e-02 1 1  ON 19
eAl_0 -6.9925e-01 1 1  ON 20
eAl_1 -6.2501e-01 1 1  ON 21
eAl_2 -5.7090e-01 1 1  ON 22
eAl_3 -4.4363e-01 1 1  ON 23
eAl_4 -2.7551e-01 1 1  ON 24
eAl_5 -1.2849e-01 1 1  ON 25
eAl_6 2.0917e-02 1 1  ON 26
eAl_7 1.4017e-01 1 1  ON 27
eAl_8 1.9406e-01 1 1  ON 28
eAl_9 2.2535e-01 1 1  ON 29
uuAl_0 -1.0681e-05 1 1  ON 30
uuAl_1 -1.4234e-04 1 1  ON 31
uuAl_2 -1.2526e-04 1 1  ON 32
uuAl_3 1.5595e-04 1 1  ON 33
uuAl_4 4.7141e-05 1 1  ON 34
uuAl_5 1.3774e-05 1 1  ON 35
uuAl_6 -2.3308e-04 1 1  ON 36
uuAl_7 1.7129e-04 1 1  ON 37
uuAl_8 -1.7970e-04 1 1  ON 38
uuAl_9 1.3368e-04 1 1  ON 39
uuAl_10 8.1723e-05 1 1  ON 40
uuAl_11 1.6308e-05 1 1  ON 41
uuAl_12 5.8902e-05 1 1  ON 42
uuAl_13 -2.2226e-04 1 1  ON 43
uuAl_14 -4.2890e-05 1 1  ON 44
uuAl_15 -1.4889e-06 1 1  ON 45
uuAl_16 -1.3121e-05 1 1  ON 46
uuAl_17 -1.9330e-04 1 1  ON 47
uuAl_18 2.8038e-05 1 1  ON 48
uuAl_19 -2.6418e-05 1 1  ON 49
uuAl_20 7.9254e-05 1 1  ON 50
uuAl_21 4.0114e-06 1 1  ON 51
uuAl_22 2.0259e-06 1 1  ON 52
uuAl_23 -1.8877e-05 1 1  ON 53
uuAl_24 8.0335e-08 1 1  ON 54
uuAl_25 -2.7131e-07 1 1  ON 55
udAl_0 2.5288e-05 1 1  ON 56
udAl_1 1.1537e-04 1 1  ON 57
udAl_2 -2.6496e-04 1 1  ON 58
udAl_3 1.8763e-04 1 1  ON 59
udAl_4 8.0282e-05 1 1  ON 60
udAl_5 -2.3730e-05 1 1  ON 61
udAl_6 2.2738e-04 1 1  ON 62
udAl_7 -1.9188e-04 1 1  ON 63
udAl_8 -4.7018e-04 1 1  ON 64
udAl_9 -1.5498e-04 1 1  ON 65
udAl_10 4.1304e-05 1 1  ON 66
udAl_11 3.7035e-04 1 1  ON 67
udAl_12 1.2429e-04 1 1  ON 68
udAl_13 -2.5069e-04 1 1  ON 69
udAl_14 -1.2130e-04 1 1  ON 70
udAl_15 -8.2294e-07 1 1  ON 71
udAl_16 2.5810e-04 1 1  ON 72
udAl_17 -2.2538e-04 1 1  ON 73
udAl_18 -1.9448e-04 1 1  ON 74
udAl_19 -3.2036e-05 1 1  ON 75
udAl_20 6.0473e-05 1 1  ON 76
udAl_21 4.5162e-05 1 1  ON 77
udAl_22 -9.2323e-07 1 1  ON 78
udAl_23 -1.7884e-05 1 1  ON 79
udAl_24 -6.4356e-06 1 1  ON 80
udAl_25 5.4747e-07 1 1  ON 81
  </optVariables>
   Restore the number of walkers to 1, removing 0 walkers.
</opt>
</optimization-report>
  QMC Execution time = 3.4323e+00 secs 
  Reusing QMCFixedSampleLinearOptimize
 Using QMCCostFunction::QMCCostFunction

=========================================================
  Start QMCFixedSampleLinearOptimize
  File Root Al.log.s005 append = no 
=========================================================
  Skip QMCDriver::putQMCInfo 
  Resetting Properties of the walkers 1 x 13

=========================================================
  Start VMC
  File Root Al.log.s005 append = no 
=========================================================
Using existing walkers 
  Resetting Properties of the walkers 1 x 13

<vmc function="put">
  qmc_counter=4  my_counter=4
  time step      = 1.5000e-01
  blocks         = 300
  steps          = 2
  substeps       = 5
  current        = 0
  target samples = 5.1200e+05
  walkers/mpi    = 1

  stepsbetweensamples = 1
<parameter name="blocks" condition="int">300</parameter>
<parameter name="blocks_between_recompute" condition="int">0</parameter>
<parameter name="check_properties" condition="int">100</parameter>
<parameter name="checkproperties" condition="int">100</parameter>
<parameter name="current" condition="int">0</parameter>
<parameter name="dmcwalkersperthread" condition="real">5.0000e+02</parameter>
<parameter name="maxcpusecs" condition="real">3.6000e+05</parameter>
<parameter name="record_configs" condition="int">0</parameter>
<parameter name="record_walkers" condition="int">1</parameter>
<parameter name="recordconfigs" condition="int">0</parameter>
<parameter name="recordwalkers" condition="int">1</parameter>
<parameter name="rewind" condition="int">0</parameter>
<parameter name="samples" condition="real">5.1200e+05</parameter>
<parameter name="samplesperthread" condition="real">5.0000e+02</parameter>
<parameter name="steps" condition="int">2</parameter>
<parameter name="stepsbetweensamples" condition="int">1</parameter>
<parameter name="store_configs" condition="int">0</parameter>
<parameter name="storeconfigs" condition="int">0</parameter>
<parameter name="sub_steps" condition="int">5</parameter>
<parameter name="substeps" condition="int">5</parameter>
<parameter name="tau" condition="au">1.5000e-01</parameter>
<parameter name="time_step" condition="au">1.5000e-01</parameter>
<parameter name="timestep" condition="au">1.5000e-01</parameter>
<parameter name="use_drift" condition="string">no</parameter>
<parameter name="usedrift" condition="string">no</parameter>
<parameter name="walkers" condition="int">1</parameter>
<parameter name="warmup_steps" condition="int">0</parameter>
<parameter name="warmupsteps" condition="int">0</parameter>
  DumpConfig==false Nothing (configurations, state) will be saved.
  Walker Samples are dumped every 1 steps.
</vmc>
  EstimatorManagerBase::add replace LocalEnergy estimator.
  EstimatorManagerBase::add replace LocalEnergy estimator.
<optimization-report>
<vmc stage="main" blocks="300">
  Cannot make clones again. Use existing 1 clones
  Initial partition of walkers 0 1 
  Using Particle by Particle moves
  Walker moves without drift
  Total Sample Size   =512000
  Walker distribution on root = 0 1 
  Using Locality Approximation
===== Memory Usage after the buffer registration =====
Available memory on node 0, free + buffers : 81293 MB
Memory footprint by rank 0 on node 0       : 98 MB
==================================================
====================================================
  SimpleFixedNodeBranch::finalize after a VMC block
    QMC counter        = 5
    time step          = 0.15
    reference energy   = -1.93139
    reference variance = 0.00616488
====================================================
  Execution time = 2.2278e+00
</vmc>
<opt stage="setup">
  <log>
   Reading configurations from h5FileRoot Al.log.s005
  QMCCostFunction is created with 1 threads.
  Using Nonlocal PP in Opt: NonLocalECP
   Number of samples loaded to each thread : 500 
  VMC Eavg = -1.9342e+00
  VMC Evar = 7.0395e-03
  Total weights = 5.1200e+05
  Execution time = 5.2713e-01
  </log>
</opt>
<opt stage="main" walkers="512000">
  <log>

*****************************************
Building overlap and Hamiltonian matrices
*****************************************

Among totally 82 optimized parameters, largest LM parameter change : 1.2726e-02 at parameter 25

******************************************************************************
Init Cost =  -1.8371e+00    New Cost =  -1.8372e+00  Delta Cost =  -6.5966e-05
******************************************************************************

The new set of parameters is valid. Updating the trial wave function!

*****************************************************************************
Applying the update for shift_i =   1.0000e-02     and shift_s =   3.9062e-03
*****************************************************************************
  Execution time = 3.3702e+00
  </log>
  <optVariables href="Al.log.s005.opt.xml">
uu_0 4.0154e-01 1 1  ON 0
uu_1 6.4913e-01 1 1  ON 1
uu_2 4.7095e-01 1 1  ON 2
uu_3 3.6688e-01 1 1  ON 3
uu_4 2.6690e-01 1 1  ON 4
uu_5 1.8180e-01 1 1  ON 5
uu_6 1.0684e-01 1 1  ON 6
uu_7 5.1083e-02 1 1  ON 7
uu_8 1.3665e-02 1 1  ON 8
uu_9 -1.2593e-02 1 1  ON 9
ud_0 1.4707e+00 1 1  ON 10
ud_1 1.1083e+00 1 1  ON 11
ud_2 8.3918e-01 1 1  ON 12
ud_3 6.2457e-01 1 1  ON 13
ud_4 4.4757e-01 1 1  ON 14
ud_5 2.9425e-01 1 1  ON 15
ud_6 1.6777e-01 1 1  ON 16
ud_7 7.8542e-02 1 1  ON 17
ud_8 1.9317e-02 1 1  ON 18
ud_9 -1.6911e-02 1 1  ON 19
eAl_0 -6.9887e-01 1 1  ON 20
eAl_1 -6.3377e-01 1 1  ON 21
eAl_2 -5.8253e-01 1 1  ON 22
eAl_3 -4.5473e-01 1 1  ON 23
eAl_4 -2.8642e-01 1 1  ON 24
eAl_5 -1.4121e-01 1 1  ON 25
eAl_6 8.9710e-03 1 1  ON 26
eAl_7 1.2852e-01 1 1  ON 27
eAl_8 1.8486e-01 1 1  ON 28
eAl_9 2.1688e-01 1 1  ON 29
uuAl_0 -1.3657e-05 1 1  ON 30
uuAl_1 -2.8911e-05 1 1  ON 31
uuAl_2 -8.9386e-05 1 1  ON 32
uuAl_3 1.3249e-04 1 1  ON 33
uuAl_4 3.9994e-05 1 1  ON 34
uuAl_5 2.9819e-06 1 1  ON 35
uuAl_6 -4.2652e-05 1 1  ON 36
uuAl_7 8.8620e-05 1 1  ON 37
uuAl_8 -1.6596e-04 1 1  ON 38
uuAl_9 2.3833e-05 1 1  ON 39
uuAl_10 6.3835e-05 1 1  ON 40
uuAl_11 3.5368e-05 1 1  ON 41
uuAl_12 5.4805e-05 1 1  ON 42
uuAl_13 -1.9763e-04 1 1  ON 43
uuAl_14 -4.5193e-05 1 1  ON 44
uuAl_15 -1.0208e-06 1 1  ON 45
uuAl_16 7.3547e-05 1 1  ON 46
uuAl_17 -1.9328e-04 1 1  ON 47
uuAl_18 1.6608e-05 1 1  ON 48
uuAl_19 -2.4163e-05 1 1  ON 49
uuAl_20 6.4526e-05 1 1  ON 50
uuAl_21 6.1719e-06 1 1  ON 51
uuAl_22 1.6530e-06 1 1  ON 52
uuAl_23 -1.6631e-05 1 1  ON 53
uuAl_24 -3.3907e-07 1 1  ON 54
uuAl_25 -2.0377e-07 1 1  ON 55
udAl_0 3.0050e-05 1 1  ON 56
udAl_1 5.0542e-05 1 1  ON 57
udAl_2 -2.4913e-04 1 1  ON 58
udAl_3 2.1818e-04 1 1  ON 59
udAl_4 8.1981e-05 1 1  ON 60
udAl_5 -1.1208e-05 1 1  ON 61
udAl_6 1.4499e-04 1 1  ON 62
udAl_7 -8.1661e-05 1 1  ON 63
udAl_8 -4.4679e-04 1 1  ON 64
udAl_9 -1.5842e-04 1 1  ON 65
udAl_10 6.9925e-05 1 1  ON 66
udAl_11 2.9323e-04 1 1  ON 67
udAl_12 1.2534e-04 1 1  ON 68
udAl_13 -2.6645e-04 1 1  ON 69
udAl_14 -1.1510e-04 1 1  ON 70
udAl_15 -1.4235e-06 1 1  ON 71
udAl_16 3.0046e-04 1 1  ON 72
udAl_17 -2.6288e-04 1 1  ON 73
udAl_18 -1.4439e-04 1 1  ON 74
udAl_19 -3.7240e-05 1 1  ON 75
udAl_20 5.4721e-05 1 1  ON 76
udAl_21 3.9535e-05 1 1  ON 77
udAl_22 -1.6924e-08 1 1  ON 78
udAl_23 -1.6122e-05 1 1  ON 79
udAl_24 -5.7398e-06 1 1  ON 80
udAl_25 3.9722e-07 1 1  ON 81
  </optVariables>
   Restore the number of walkers to 1, removing 0 walkers.
</opt>
</optimization-report>
  QMC Execution time = 3.3860e+00 secs 
  Reusing QMCFixedSampleLinearOptimize
 Using QMCCostFunction::QMCCostFunction

=========================================================
  Start QMCFixedSampleLinearOptimize
  File Root Al.log.s006 append = no 
=========================================================
  Skip QMCDriver::putQMCInfo 
  Resetting Properties of the walkers 1 x 13

=========================================================
  Start VMC
  File Root Al.log.s006 append = no 
=========================================================
Using existing walkers 
  Resetting Properties of the walkers 1 x 13

<vmc function="put">
  qmc_counter=5  my_counter=5
  time step      = 1.5000e-01
  blocks         = 300
  steps          = 2
  substeps       = 5
  current        = 0
  target samples = 5.1200e+05
  walkers/mpi    = 1

  stepsbetweensamples = 1
<parameter name="blocks" condition="int">300</parameter>
<parameter name="blocks_between_recompute" condition="int">0</parameter>
<parameter name="check_properties" condition="int">100</parameter>
<parameter name="checkproperties" condition="int">100</parameter>
<parameter name="current" condition="int">0</parameter>
<parameter name="dmcwalkersperthread" condition="real">5.0000e+02</parameter>
<parameter name="maxcpusecs" condition="real">3.6000e+05</parameter>
<parameter name="record_configs" condition="int">0</parameter>
<parameter name="record_walkers" condition="int">1</parameter>
<parameter name="recordconfigs" condition="int">0</parameter>
<parameter name="recordwalkers" condition="int">1</parameter>
<parameter name="rewind" condition="int">0</parameter>
<parameter name="samples" condition="real">5.1200e+05</parameter>
<parameter name="samplesperthread" condition="real">5.0000e+02</parameter>
<parameter name="steps" condition="int">2</parameter>
<parameter name="stepsbetweensamples" condition="int">1</parameter>
<parameter name="store_configs" condition="int">0</parameter>
<parameter name="storeconfigs" condition="int">0</parameter>
<parameter name="sub_steps" condition="int">5</parameter>
<parameter name="substeps" condition="int">5</parameter>
<parameter name="tau" condition="au">1.5000e-01</parameter>
<parameter name="time_step" condition="au">1.5000e-01</parameter>
<parameter name="timestep" condition="au">1.5000e-01</parameter>
<parameter name="use_drift" condition="string">no</parameter>
<parameter name="usedrift" condition="string">no</parameter>
<parameter name="walkers" condition="int">1</parameter>
<parameter name="warmup_steps" condition="int">0</parameter>
<parameter name="warmupsteps" condition="int">0</parameter>
  DumpConfig==false Nothing (configurations, state) will be saved.
  Walker Samples are dumped every 1 steps.
</vmc>
  EstimatorManagerBase::add replace LocalEnergy estimator.
  EstimatorManagerBase::add replace LocalEnergy estimator.
<optimization-report>
<vmc stage="main" blocks="300">
  Cannot make clones again. Use existing 1 clones
  Initial partition of walkers 0 1 
  Using Particle by Particle moves
  Walker moves without drift
  Total Sample Size   =512000
  Walker distribution on root = 0 1 
  Using Locality Approximation
===== Memory Usage after the buffer registration =====
Available memory on node 0, free + buffers : 81290 MB
Memory footprint by rank 0 on node 0       : 101 MB
==================================================
====================================================
  SimpleFixedNodeBranch::finalize after a VMC block
    QMC counter        = 6
    time step          = 0.15
    reference energy   = -1.93574
    reference variance = 0.0071229
====================================================
  Execution time = 2.2094e+00
</vmc>
<opt stage="setup">
  <log>
   Reading configurations from h5FileRoot Al.log.s006
  QMCCostFunction is created with 1 threads.
  Using Nonlocal PP in Opt: NonLocalECP
   Number of samples loaded to each thread : 500 
  VMC Eavg = -1.9342e+00
  VMC Evar = 7.0313e-03
  Total weights = 5.1200e+05
  Execution time = 5.2266e-01
  </log>
</opt>
<opt stage="main" walkers="512000">
  <log>

*****************************************
Building overlap and Hamiltonian matrices
*****************************************

Among totally 82 optimized parameters, largest LM parameter change : 1.2780e-02 at parameter 24

******************************************************************************
Init Cost =  -1.8371e+00    New Cost =  -1.8372e+00  Delta Cost =  -3.4619e-05
******************************************************************************

The new set of parameters is valid. Updating the trial wave function!

*****************************************************************************
Applying the update for shift_i =   1.0000e-02     and shift_s =   3.9062e-03
*****************************************************************************
  Execution time = 3.3451e+00
  </log>
  <optVariables href="Al.log.s006.opt.xml">
uu_0 4.0909e-01 1 1  ON 0
uu_1 6.4447e-01 1 1  ON 1
uu_2 4.7607e-01 1 1  ON 2
uu_3 3.7137e-01 1 1  ON 3
uu_4 2.7008e-01 1 1  ON 4
uu_5 1.8414e-01 1 1  ON 5
uu_6 1.0943e-01 1 1  ON 6
uu_7 5.3572e-02 1 1  ON 7
uu_8 1.6111e-02 1 1  ON 8
uu_9 -1.0410e-02 1 1  ON 9
ud_0 1.4795e+00 1 1  ON 10
ud_1 1.1163e+00 1 1  ON 11
ud_2 8.4574e-01 1 1  ON 12
ud_3 6.3046e-01 1 1  ON 13
ud_4 4.5290e-01 1 1  ON 14
ud_5 2.9940e-01 1 1  ON 15
ud_6 1.7264e-01 1 1  ON 16
ud_7 8.3779e-02 1 1  ON 17
ud_8 2.4356e-02 1 1  ON 18
ud_9 -1.2185e-02 1 1  ON 19
eAl_0 -6.9913e-01 1 1  ON 20
eAl_1 -6.4563e-01 1 1  ON 21
eAl_2 -5.9471e-01 1 1  ON 22
eAl_3 -4.6648e-01 1 1  ON 23
eAl_4 -2.9920e-01 1 1  ON 24
eAl_5 -1.5349e-01 1 1  ON 25
eAl_6 -1.8541e-03 1 1  ON 26
eAl_7 1.1933e-01 1 1  ON 27
eAl_8 1.7731e-01 1 1  ON 28
eAl_9 2.1002e-01 1 1  ON 29
uuAl_0 -4.0948e-05 1 1  ON 30
uuAl_1 -1.3304e-04 1 1  ON 31
uuAl_2 -8.8054e-05 1 1  ON 32
uuAl_3 1.7924e-04 1 1  ON 33
uuAl_4 4.5570e-05 1 1  ON 34
uuAl_5 1.3863e-05 1 1  ON 35
uuAl_6 -1.7501e-04 1 1  ON 36
uuAl_7 1.8477e-04 1 1  ON 37
uuAl_8 -1.6880e-04 1 1  ON 38
uuAl_9 1.1259e-04 1 1  ON 39
uuAl_10 9.7041e-05 1 1  ON 40
uuAl_11 -8.6670e-06 1 1  ON 41
uuAl_12 5.8760e-05 1 1  ON 42
uuAl_13 -2.5197e-04 1 1  ON 43
uuAl_14 -4.4642e-05 1 1  ON 44
uuAl_15 -1.3088e-06 1 1  ON 45
uuAl_16 2.4472e-05 1 1  ON 46
uuAl_17 -2.3556e-04 1 1  ON 47
uuAl_18 4.8228e-05 1 1  ON 48
uuAl_19 -2.7712e-05 1 1  ON 49
uuAl_20 8.4900e-05 1 1  ON 50
uuAl_21 2.6420e-06 1 1  ON 51
uuAl_22 2.1337e-06 1 1  ON 52
uuAl_23 -2.0753e-05 1 1  ON 53
uuAl_24 2.8154e-07 1 1  ON 54
uuAl_25 -2.8672e-07 1 1  ON 55
udAl_0 1.2707e-05 1 1  ON 56
udAl_1 9.2768e-05 1 1  ON 57
udAl_2 -2.4785e-04 1 1  ON 58
udAl_3 2.0944e-04 1 1  ON 59
udAl_4 7.9760e-05 1 1  ON 60
udAl_5 -1.8405e-05 1 1  ON 61
udAl_6 2.1563e-04 1 1  ON 62
udAl_7 -1.2996e-04 1 1  ON 63
udAl_8 -4.6106e-04 1 1  ON 64
udAl_9 -1.6278e-04 1 1  ON 65
udAl_10 5.4875e-05 1 1  ON 66
udAl_11 3.3492e-04 1 1  ON 67
udAl_12 1.2556e-04 1 1  ON 68
udAl_13 -2.7388e-04 1 1  ON 69
udAl_14 -1.2015e-04 1 1  ON 70
udAl_15 -1.0300e-06 1 1  ON 71
udAl_16 2.8500e-04 1 1  ON 72
udAl_17 -2.5373e-04 1 1  ON 73
udAl_18 -1.7437e-04 1 1  ON 74
udAl_19 -3.4284e-05 1 1  ON 75
udAl_20 6.5307e-05 1 1  ON 76
udAl_21 4.3593e-05 1 1  ON 77
udAl_22 -6.4511e-07 1 1  ON 78
udAl_23 -1.9802e-05 1 1  ON 79
udAl_24 -6.2429e-06 1 1  ON 80
udAl_25 5.0937e-07 1 1  ON 81
  </optVariables>
   Restore the number of walkers to 1, removing 0 walkers.
</opt>
</optimization-report>
  QMC Execution time = 3.3607e+00 secs 
  Reusing QMCFixedSampleLinearOptimize
 Using QMCCostFunction::QMCCostFunction

=========================================================
  Start QMCFixedSampleLinearOptimize
  File Root Al.log.s007 append = no 
=========================================================
  Skip QMCDriver::putQMCInfo 
  Resetting Properties of the walkers 1 x 13

=========================================================
  Start VMC
  File Root Al.log.s007 append = no 
=========================================================
Using existing walkers 
  Resetting Properties of the walkers 1 x 13

<vmc function="put">
  qmc_counter=6  my_counter=6
  time step      = 1.5000e-01
  blocks         = 300
  steps          = 2
  substeps       = 5
  current        = 0
  target samples = 5.1200e+05
  walkers/mpi    = 1

  stepsbetweensamples = 1
<parameter name="blocks" condition="int">300</parameter>
<parameter name="blocks_between_recompute" condition="int">0</parameter>
<parameter name="check_properties" condition="int">100</parameter>
<parameter name="checkproperties" condition="int">100</parameter>
<parameter name="current" condition="int">0</parameter>
<parameter name="dmcwalkersperthread" condition="real">5.0000e+02</parameter>
<parameter name="maxcpusecs" condition="real">3.6000e+05</parameter>
<parameter name="record_configs" condition="int">0</parameter>
<parameter name="record_walkers" condition="int">1</parameter>
<parameter name="recordconfigs" condition="int">0</parameter>
<parameter name="recordwalkers" condition="int">1</parameter>
<parameter name="rewind" condition="int">0</parameter>
<parameter name="samples" condition="real">5.1200e+05</parameter>
<parameter name="samplesperthread" condition="real">5.0000e+02</parameter>
<parameter name="steps" condition="int">2</parameter>
<parameter name="stepsbetweensamples" condition="int">1</parameter>
<parameter name="store_configs" condition="int">0</parameter>
<parameter name="storeconfigs" condition="int">0</parameter>
<parameter name="sub_steps" condition="int">5</parameter>
<parameter name="substeps" condition="int">5</parameter>
<parameter name="tau" condition="au">1.5000e-01</parameter>
<parameter name="time_step" condition="au">1.5000e-01</parameter>
<parameter name="timestep" condition="au">1.5000e-01</parameter>
<parameter name="use_drift" condition="string">no</parameter>
<parameter name="usedrift" condition="string">no</parameter>
<parameter name="walkers" condition="int">1</parameter>
<parameter name="warmup_steps" condition="int">0</parameter>
<parameter name="warmupsteps" condition="int">0</parameter>
  DumpConfig==false Nothing (configurations, state) will be saved.
  Walker Samples are dumped every 1 steps.
</vmc>
  EstimatorManagerBase::add replace LocalEnergy estimator.
  EstimatorManagerBase::add replace LocalEnergy estimator.
<optimization-report>
<vmc stage="main" blocks="300">
  Cannot make clones again. Use existing 1 clones
  Initial partition of walkers 0 1 
  Using Particle by Particle moves
  Walker moves without drift
  Total Sample Size   =512000
  Walker distribution on root = 0 1 
  Using Locality Approximation
===== Memory Usage after the buffer registration =====
Available memory on node 0, free + buffers : 81288 MB
Memory footprint by rank 0 on node 0       : 103 MB
==================================================
====================================================
  SimpleFixedNodeBranch::finalize after a VMC block
    QMC counter        = 7
    time step          = 0.15
    reference energy   = -1.93411
    reference variance = 0.00627902
====================================================
  Execution time = 2.2006e+00
</vmc>
<opt stage="setup">
  <log>
   Reading configurations from h5FileRoot Al.log.s007
  QMCCostFunction is created with 1 threads.
  Using Nonlocal PP in Opt: NonLocalECP
   Number of samples loaded to each thread : 500 
  VMC Eavg = -1.9344e+00
  VMC Evar = 7.2474e-03
  Total weights = 5.1200e+05
  Execution time = 5.1624e-01
  </log>
</opt>
<opt stage="main" walkers="512000">
  <log>

*****************************************
Building overlap and Hamiltonian matrices
*****************************************

Among totally 82 optimized parameters, largest LM parameter change : 1.1833e-02 at parameter 22

******************************************************************************
Init Cost =  -1.8373e+00    New Cost =  -1.8373e+00  Delta Cost =  -3.8695e-05
******************************************************************************

The new set of parameters is valid. Updating the trial wave function!

*****************************************************************************
Applying the update for shift_i =   1.0000e-02     and shift_s =   3.9062e-03
*****************************************************************************
  Execution time = 3.3269e+00
  </log>
  <optVariables href="Al.log.s007.opt.xml">
uu_0 4.1784e-01 1 1  ON 0
uu_1 6.4348e-01 1 1  ON 1
uu_2 4.7547e-01 1 1  ON 2
uu_3 3.7315e-01 1 1  ON 3
uu_4 2.7368e-01 1 1  ON 4
uu_5 1.8764e-01 1 1  ON 5
uu_6 1.1235e-01 1 1  ON 6
uu_7 5.6609e-02 1 1  ON 7
uu_8 1.8764e-02 1 1  ON 8
uu_9 -8.1241e-03 1 1  ON 9
ud_0 1.4885e+00 1 1  ON 10
ud_1 1.1244e+00 1 1  ON 11
ud_2 8.5354e-01 1 1  ON 12
ud_3 6.3796e-01 1 1  ON 13
ud_4 4.5982e-01 1 1  ON 14
ud_5 3.0590e-01 1 1  ON 15
ud_6 1.7862e-01 1 1  ON 16
ud_7 8.8676e-02 1 1  ON 17
ud_8 2.7929e-02 1 1  ON 18
ud_9 -9.6644e-03 1 1  ON 19
eAl_0 -7.0184e-01 1 1  ON 20
eAl_1 -6.5671e-01 1 1  ON 21
eAl_2 -6.0654e-01 1 1  ON 22
eAl_3 -4.7683e-01 1 1  ON 23
eAl_4 -3.0777e-01 1 1  ON 24
eAl_5 -1.6171e-01 1 1  ON 25
eAl_6 -1.0517e-02 1 1  ON 26
eAl_7 1.1048e-01 1 1  ON 27
eAl_8 1.6901e-01 1 1  ON 28
eAl_9 2.0288e-01 1 1  ON 29
uuAl_0 -2.8019e-05 1 1  ON 30
uuAl_1 -4.2006e-05 1 1  ON 31
uuAl_2 -7.9172e-05 1 1  ON 32
uuAl_3 1.4782e-04 1 1  ON 33
uuAl_4 4.0576e-05 1 1  ON 34
uuAl_5 3.2925e-06 1 1  ON 35
uuAl_6 -3.7259e-05 1 1  ON 36
uuAl_7 8.3367e-05 1 1  ON 37
uuAl_8 -1.6292e-04 1 1  ON 38
uuAl_9 3.2929e-05 1 1  ON 39
uuAl_10 7.2121e-05 1 1  ON 40
uuAl_11 3.6064e-05 1 1  ON 41
uuAl_12 5.3843e-05 1 1  ON 42
uuAl_13 -2.0500e-04 1 1  ON 43
uuAl_14 -4.5091e-05 1 1  ON 44
uuAl_15 -9.3033e-07 1 1  ON 45
uuAl_16 6.0079e-05 1 1  ON 46
uuAl_17 -1.9078e-04 1 1  ON 47
uuAl_18 9.4515e-06 1 1  ON 48
uuAl_19 -2.2778e-05 1 1  ON 49
uuAl_20 6.8434e-05 1 1  ON 50
uuAl_21 7.5321e-06 1 1  ON 51
uuAl_22 1.3873e-06 1 1  ON 52
uuAl_23 -1.7461e-05 1 1  ON 53
uuAl_24 -6.6874e-07 1 1  ON 54
uuAl_25 -1.4150e-07 1 1  ON 55
udAl_0 1.4555e-06 1 1  ON 56
udAl_1 3.7671e-05 1 1  ON 57
udAl_2 -2.5284e-04 1 1  ON 58
udAl_3 2.4744e-04 1 1  ON 59
udAl_4 8.7435e-05 1 1  ON 60
udAl_5 -1.5654e-05 1 1  ON 61
udAl_6 1.5804e-04 1 1  ON 62
udAl_7 -1.0652e-04 1 1  ON 63
udAl_8 -4.7754e-04 1 1  ON 64
udAl_9 -1.1692e-04 1 1  ON 65
udAl_10 8.2944e-05 1 1  ON 66
udAl_11 3.2040e-04 1 1  ON 67
udAl_12 1.3162e-04 1 1  ON 68
udAl_13 -3.1633e-04 1 1  ON 69
udAl_14 -1.2409e-04 1 1  ON 70
udAl_15 -1.1785e-06 1 1  ON 71
udAl_16 2.6163e-04 1 1  ON 72
udAl_17 -2.9385e-04 1 1  ON 73
udAl_18 -1.5584e-04 1 1  ON 74
udAl_19 -3.7709e-05 1 1  ON 75
udAl_20 8.1492e-05 1 1  ON 76
udAl_21 4.1781e-05 1 1  ON 77
udAl_22 -2.5430e-07 1 1  ON 78
udAl_23 -2.3554e-05 1 1  ON 79
udAl_24 -5.8079e-06 1 1  ON 80
udAl_25 4.3403e-07 1 1  ON 81
  </optVariables>
   Restore the number of walkers to 1, removing 0 walkers.
</opt>
</optimization-report>
  QMC Execution time = 3.3429e+00 secs 
  Reusing QMCFixedSampleLinearOptimize
 Using QMCCostFunction::QMCCostFunction

=========================================================
  Start QMCFixedSampleLinearOptimize
  File Root Al.log.s008 append = no 
=========================================================
  Skip QMCDriver::putQMCInfo 
  Resetting Properties of the walkers 1 x 13

=========================================================
  Start VMC
  File Root Al.log.s008 append = no 
=========================================================
Using existing walkers 
  Resetting Properties of the walkers 1 x 13

<vmc function="put">
  qmc_counter=7  my_counter=7
  time step      = 1.5000e-01
  blocks         = 300
  steps          = 2
  substeps       = 5
  current        = 0
  target samples = 5.1200e+05
  walkers/mpi    = 1

  stepsbetweensamples = 1
<parameter name="blocks" condition="int">300</parameter>
<parameter name="blocks_between_recompute" condition="int">0</parameter>
<parameter name="check_properties" condition="int">100</parameter>
<parameter name="checkproperties" condition="int">100</parameter>
<parameter name="current" condition="int">0</parameter>
<parameter name="dmcwalkersperthread" condition="real">5.0000e+02</parameter>
<parameter name="maxcpusecs" condition="real">3.6000e+05</parameter>
<parameter name="record_configs" condition="int">0</parameter>
<parameter name="record_walkers" condition="int">1</parameter>
<parameter name="recordconfigs" condition="int">0</parameter>
<parameter name="recordwalkers" condition="int">1</parameter>
<parameter name="rewind" condition="int">0</parameter>
<parameter name="samples" condition="real">5.1200e+05</parameter>
<parameter name="samplesperthread" condition="real">5.0000e+02</parameter>
<parameter name="steps" condition="int">2</parameter>
<parameter name="stepsbetweensamples" condition="int">1</parameter>
<parameter name="store_configs" condition="int">0</parameter>
<parameter name="storeconfigs" condition="int">0</parameter>
<parameter name="sub_steps" condition="int">5</parameter>
<parameter name="substeps" condition="int">5</parameter>
<parameter name="tau" condition="au">1.5000e-01</parameter>
<parameter name="time_step" condition="au">1.5000e-01</parameter>
<parameter name="timestep" condition="au">1.5000e-01</parameter>
<parameter name="use_drift" condition="string">no</parameter>
<parameter name="usedrift" condition="string">no</parameter>
<parameter name="walkers" condition="int">1</parameter>
<parameter name="warmup_steps" condition="int">0</parameter>
<parameter name="warmupsteps" condition="int">0</parameter>
  DumpConfig==false Nothing (configurations, state) will be saved.
  Walker Samples are dumped every 1 steps.
</vmc>
  EstimatorManagerBase::add replace LocalEnergy estimator.
  EstimatorManagerBase::add replace LocalEnergy estimator.
<optimization-report>
<vmc stage="main" blocks="300">
  Cannot make clones again. Use existing 1 clones
  Initial partition of walkers 0 1 
  Using Particle by Particle moves
  Walker moves without drift
  Total Sample Size   =512000
  Walker distribution on root = 0 1 
  Using Locality Approximation
===== Memory Usage after the buffer registration =====
Available memory on node 0, free + buffers : 81285 MB
Memory footprint by rank 0 on node 0       : 105 MB
==================================================
====================================================
  SimpleFixedNodeBranch::finalize after a VMC block
    QMC counter        = 8
    time step          = 0.15
    reference energy   = -1.9339
    reference variance = 0.00486423
====================================================
  Execution time = 5.6741e+00
</vmc>
<opt stage="setup">
  <log>
   Reading configurations from h5FileRoot Al.log.s008
  QMCCostFunction is created with 1 threads.
  Using Nonlocal PP in Opt: NonLocalECP
   Number of samples loaded to each thread : 500 
  VMC Eavg = -1.9344e+00
  VMC Evar = 6.9471e-03
  Total weights = 5.1200e+05
  Execution time = 5.0779e-01
  </log>
</opt>
<opt stage="main" walkers="512000">
  <log>

*****************************************
Building overlap and Hamiltonian matrices
*****************************************

Among totally 82 optimized parameters, largest LM parameter change : 1.1623e-02 at parameter 25

******************************************************************************
Init Cost =  -1.8373e+00    New Cost =  -1.8374e+00  Delta Cost =  -3.6801e-05
******************************************************************************

The new set of parameters is valid. Updating the trial wave function!

*****************************************************************************
Applying the update for shift_i =   1.0000e-02     and shift_s =   3.9062e-03
*****************************************************************************
  Execution time = 6.7847e+00
  </log>
  <optVariables href="Al.log.s008.opt.xml">
uu_0 4.2755e-01 1 1  ON 0
uu_1 6.4137e-01 1 1  ON 1
uu_2 4.7553e-01 1 1  ON 2
uu_3 3.7461e-01 1 1  ON 3
uu_4 2.7650e-01 1 1  ON 4
uu_5 1.9021e-01 1 1  ON 5
uu_6 1.1426e-01 1 1  ON 6
uu_7 5.8332e-02 1 1  ON 7
uu_8 1.9987e-02 1 1  ON 8
uu_9 -6.5167e-03 1 1  ON 9
ud_0 1.4967e+00 1 1  ON 10
ud_1 1.1312e+00 1 1  ON 11
ud_2 8.5948e-01 1 1  ON 12
ud_3 6.4285e-01 1 1  ON 13
ud_4 4.6421e-01 1 1  ON 14
ud_5 3.0992e-01 1 1  ON 15
ud_6 1.8214e-01 1 1  ON 16
ud_7 9.2294e-02 1 1  ON 17
ud_8 3.1517e-02 1 1  ON 18
ud_9 -6.0300e-03 1 1  ON 19
eAl_0 -7.0763e-01 1 1  ON 20
eAl_1 -6.6825e-01 1 1  ON 21
eAl_2 -6.1749e-01 1 1  ON 22
eAl_3 -4.8666e-01 1 1  ON 23
eAl_4 -3.1889e-01 1 1  ON 24
eAl_5 -1.7333e-01 1 1  ON 25
eAl_6 -2.1068e-02 1 1  ON 26
eAl_7 1.0053e-01 1 1  ON 27
eAl_8 1.6016e-01 1 1  ON 28
eAl_9 1.9764e-01 1 1  ON 29
uuAl_0 -2.4209e-05 1 1  ON 30
uuAl_1 -3.5467e-05 1 1  ON 31
uuAl_2 -8.3511e-05 1 1  ON 32
uuAl_3 1.3874e-04 1 1  ON 33
uuAl_4 3.9993e-05 1 1  ON 34
uuAl_5 5.6873e-06 1 1  ON 35
uuAl_6 -4.7637e-05 1 1  ON 36
uuAl_7 9.9220e-05 1 1  ON 37
uuAl_8 -1.6284e-04 1 1  ON 38
uuAl_9 3.0376e-05 1 1  ON 39
uuAl_10 6.6580e-05 1 1  ON 40
uuAl_11 3.6059e-05 1 1  ON 41
uuAl_12 5.4059e-05 1 1  ON 42
uuAl_13 -2.0064e-04 1 1  ON 43
uuAl_14 -4.4565e-05 1 1  ON 44
uuAl_15 -9.8708e-07 1 1  ON 45
uuAl_16 5.1425e-05 1 1  ON 46
uuAl_17 -1.8363e-04 1 1  ON 47
uuAl_18 6.7068e-06 1 1  ON 48
uuAl_19 -2.2700e-05 1 1  ON 49
uuAl_20 7.1721e-05 1 1  ON 50
uuAl_21 7.5790e-06 1 1  ON 51
uuAl_22 1.3818e-06 1 1  ON 52
uuAl_23 -1.9014e-05 1 1  ON 53
uuAl_24 -5.7016e-07 1 1  ON 54
uuAl_25 -1.4821e-07 1 1  ON 55
udAl_0 -3.2497e-06 1 1  ON 56
udAl_1 8.4658e-05 1 1  ON 57
udAl_2 -2.3938e-04 1 1  ON 58
udAl_3 2.2454e-04 1 1  ON 59
udAl_4 8.0150e-05 1 1  ON 60
udAl_5 -1.9855e-05 1 1  ON 61
udAl_6 2.3445e-04 1 1  ON 62
udAl_7 -1.4504e-04 1 1  ON 63
udAl_8 -4.6605e-04 1 1  ON 64
udAl_9 -1.5380e-04 1 1  ON 65
udAl_10 6.1505e-05 1 1  ON 66
udAl_11 3.4130e-04 1 1  ON 67
udAl_12 1.2584e-04 1 1  ON 68
udAl_13 -2.9266e-04 1 1  ON 69
udAl_14 -1.2260e-04 1 1  ON 70
udAl_15 -8.3120e-07 1 1  ON 71
udAl_16 2.8321e-04 1 1  ON 72
udAl_17 -2.6808e-04 1 1  ON 73
udAl_18 -1.7708e-04 1 1  ON 74
udAl_19 -3.3542e-05 1 1  ON 75
udAl_20 7.2297e-05 1 1  ON 76
udAl_21 4.4432e-05 1 1  ON 77
udAl_22 -8.4042e-07 1 1  ON 78
udAl_23 -2.1810e-05 1 1  ON 79
udAl_24 -6.3769e-06 1 1  ON 80
udAl_25 5.4763e-07 1 1  ON 81
  </optVariables>
   Restore the number of walkers to 1, removing 0 walkers.
</opt>
</optimization-report>
  QMC Execution time = 6.8004e+00 secs 
  Reusing QMCFixedSampleLinearOptimize
 Using QMCCostFunction::QMCCostFunction

=========================================================
  Start QMCFixedSampleLinearOptimize
  File Root Al.log.s009 append = no 
=========================================================
  Skip QMCDriver::putQMCInfo 
  Resetting Properties of the walkers 1 x 13

=========================================================
  Start VMC
  File Root Al.log.s009 append = no 
=========================================================
Using existing walkers 
  Resetting Properties of the walkers 1 x 13

<vmc function="put">
  qmc_counter=8  my_counter=8
  time step      = 1.5000e-01
  blocks         = 300
  steps          = 2
  substeps       = 5
  current        = 0
  target samples = 5.1200e+05
  walkers/mpi    = 1

  stepsbetweensamples = 1
<parameter name="blocks" condition="int">300</parameter>
<parameter name="blocks_between_recompute" condition="int">0</parameter>
<parameter name="check_properties" condition="int">100</parameter>
<parameter name="checkproperties" condition="int">100</parameter>
<parameter name="current" condition="int">0</parameter>
<parameter name="dmcwalkersperthread" condition="real">5.0000e+02</parameter>
<parameter name="maxcpusecs" condition="real">3.6000e+05</parameter>
<parameter name="record_configs" condition="int">0</parameter>
<parameter name="record_walkers" condition="int">1</parameter>
<parameter name="recordconfigs" condition="int">0</parameter>
<parameter name="recordwalkers" condition="int">1</parameter>
<parameter name="rewind" condition="int">0</parameter>
<parameter name="samples" condition="real">5.1200e+05</parameter>
<parameter name="samplesperthread" condition="real">5.0000e+02</parameter>
<parameter name="steps" condition="int">2</parameter>
<parameter name="stepsbetweensamples" condition="int">1</parameter>
<parameter name="store_configs" condition="int">0</parameter>
<parameter name="storeconfigs" condition="int">0</parameter>
<parameter name="sub_steps" condition="int">5</parameter>
<parameter name="substeps" condition="int">5</parameter>
<parameter name="tau" condition="au">1.5000e-01</parameter>
<parameter name="time_step" condition="au">1.5000e-01</parameter>
<parameter name="timestep" condition="au">1.5000e-01</parameter>
<parameter name="use_drift" condition="string">no</parameter>
<parameter name="usedrift" condition="string">no</parameter>
<parameter name="walkers" condition="int">1</parameter>
<parameter name="warmup_steps" condition="int">0</parameter>
<parameter name="warmupsteps" condition="int">0</parameter>
  DumpConfig==false Nothing (configurations, state) will be saved.
  Walker Samples are dumped every 1 steps.
</vmc>
  EstimatorManagerBase::add replace LocalEnergy estimator.
  EstimatorManagerBase::add replace LocalEnergy estimator.
<optimization-report>
<vmc stage="main" blocks="300">
  Cannot make clones again. Use existing 1 clones
  Initial partition of walkers 0 1 
  Using Particle by Particle moves
  Walker moves without drift
  Total Sample Size   =512000
  Walker distribution on root = 0 1 
  Using Locality Approximation
===== Memory Usage after the buffer registration =====
Available memory on node 0, free + buffers : 81282 MB
Memory footprint by rank 0 on node 0       : 107 MB
==================================================
====================================================
  SimpleFixedNodeBranch::finalize after a VMC block
    QMC counter        = 9
    time step          = 0.15
    reference energy   = -1.93091
    reference variance = 0.00526234
====================================================
  Execution time = 2.1875e+00
</vmc>
<opt stage="setup">
  <log>
   Reading configurations from h5FileRoot Al.log.s009
  QMCCostFunction is created with 1 threads.
  Using Nonlocal PP in Opt: NonLocalECP
   Number of samples loaded to each thread : 500 
  VMC Eavg = -1.9343e+00
  VMC Evar = 6.8649e-03
  Total weights = 5.1200e+05
  Execution time = 5.1620e-01
  </log>
</opt>
<opt stage="main" walkers="512000">
  <log>

*****************************************
Building overlap and Hamiltonian matrices
*****************************************

Among totally 82 optimized parameters, largest LM parameter change : 1.1670e-02 at parameter 22

******************************************************************************
Init Cost =  -1.8372e+00    New Cost =  -1.8373e+00  Delta Cost =  -3.2987e-05
******************************************************************************

The new set of parameters is valid. Updating the trial wave function!

*****************************************************************************
Applying the update for shift_i =   1.0000e-02     and shift_s =   3.9062e-03
*****************************************************************************
  Execution time = 3.3191e+00
  </log>
  <optVariables href="Al.log.s009.opt.xml">
uu_0 4.3416e-01 1 1  ON 0
uu_1 6.3856e-01 1 1  ON 1
uu_2 4.8003e-01 1 1  ON 2
uu_3 3.7798e-01 1 1  ON 3
uu_4 2.7864e-01 1 1  ON 4
uu_5 1.9228e-01 1 1  ON 5
uu_6 1.1662e-01 1 1  ON 6
uu_7 5.9957e-02 1 1  ON 7
uu_8 2.1218e-02 1 1  ON 8
uu_9 -5.3974e-03 1 1  ON 9
ud_0 1.5047e+00 1 1  ON 10
ud_1 1.1383e+00 1 1  ON 11
ud_2 8.6527e-01 1 1  ON 12
ud_3 6.4756e-01 1 1  ON 13
ud_4 4.6818e-01 1 1  ON 14
ud_5 3.1331e-01 1 1  ON 15
ud_6 1.8567e-01 1 1  ON 16
ud_7 9.6172e-02 1 1  ON 17
ud_8 3.4657e-02 1 1  ON 18
ud_9 -3.6777e-03 1 1  ON 19
eAl_0 -7.1275e-01 1 1  ON 20
eAl_1 -6.7983e-01 1 1  ON 21
eAl_2 -6.2915e-01 1 1  ON 22
eAl_3 -4.9769e-01 1 1  ON 23
eAl_4 -3.2945e-01 1 1  ON 24
eAl_5 -1.8289e-01 1 1  ON 25
eAl_6 -2.9915e-02 1 1  ON 26
eAl_7 9.2744e-02 1 1  ON 27
eAl_8 1.5424e-01 1 1  ON 28
eAl_9 1.9267e-01 1 1  ON 29
uuAl_0 -3.1947e-05 1 1  ON 30
uuAl_1 -7.0749e-05 1 1  ON 31
uuAl_2 -6.8851e-05 1 1  ON 32
uuAl_3 1.6419e-04 1 1  ON 33
uuAl_4 4.1914e-05 1 1  ON 34
uuAl_5 9.6361e-06 1 1  ON 35
uuAl_6 -6.3780e-05 1 1  ON 36
uuAl_7 1.2256e-04 1 1  ON 37
uuAl_8 -1.5847e-04 1 1  ON 38
uuAl_9 3.0033e-05 1 1  ON 39
uuAl_10 8.7254e-05 1 1  ON 40
uuAl_11 5.7364e-06 1 1  ON 41
uuAl_12 5.5562e-05 1 1  ON 42
uuAl_13 -2.2008e-04 1 1  ON 43
uuAl_14 -4.5022e-05 1 1  ON 44
uuAl_15 -1.0479e-06 1 1  ON 45
uuAl_16 9.3584e-05 1 1  ON 46
uuAl_17 -2.2190e-04 1 1  ON 47
uuAl_18 3.4190e-05 1 1  ON 48
uuAl_19 -2.5409e-05 1 1  ON 49
uuAl_20 6.5292e-05 1 1  ON 50
uuAl_21 5.1744e-06 1 1  ON 51
uuAl_22 1.7410e-06 1 1  ON 52
uuAl_23 -1.6493e-05 1 1  ON 53
uuAl_24 -3.6729e-07 1 1  ON 54
uuAl_25 -1.9665e-07 1 1  ON 55
udAl_0 1.1711e-05 1 1  ON 56
udAl_1 9.7298e-05 1 1  ON 57
udAl_2 -2.6055e-04 1 1  ON 58
udAl_3 2.0297e-04 1 1  ON 59
udAl_4 8.0076e-05 1 1  ON 60
udAl_5 -2.1602e-05 1 1  ON 61
udAl_6 2.1271e-04 1 1  ON 62
udAl_7 -1.5454e-04 1 1  ON 63
udAl_8 -4.7381e-04 1 1  ON 64
udAl_9 -1.4236e-04 1 1  ON 65
udAl_10 4.7444e-05 1 1  ON 66
udAl_11 3.6137e-04 1 1  ON 67
udAl_12 1.2598e-04 1 1  ON 68
udAl_13 -2.7561e-04 1 1  ON 69
udAl_14 -1.2230e-04 1 1  ON 70
udAl_15 -8.7853e-07 1 1  ON 71
udAl_16 2.5541e-04 1 1  ON 72
udAl_17 -2.4146e-04 1 1  ON 73
udAl_18 -1.9298e-04 1 1  ON 74
udAl_19 -3.2527e-05 1 1  ON 75
udAl_20 7.2204e-05 1 1  ON 76
udAl_21 4.5839e-05 1 1  ON 77
udAl_22 -9.8305e-07 1 1  ON 78
udAl_23 -2.2052e-05 1 1  ON 79
udAl_24 -6.5511e-06 1 1  ON 80
udAl_25 5.7105e-07 1 1  ON 81
  </optVariables>
   Restore the number of walkers to 1, removing 0 walkers.
</opt>
</optimization-report>
  QMC Execution time = 3.3346e+00 secs 
  Reusing QMCFixedSampleLinearOptimize
 Using QMCCostFunction::QMCCostFunction

=========================================================
  Start QMCFixedSampleLinearOptimize
  File Root Al.log.s010 append = no 
=========================================================
  Skip QMCDriver::putQMCInfo 
[...]
    reference variance = 0.00455481
====================================================
  Execution time = 2.1580e+00
</vmc>
<opt stage="setup">
  <log>
   Reading configurations from h5FileRoot Al.log.s020
  QMCCostFunction is created with 1 threads.
  Using Nonlocal PP in Opt: NonLocalECP
   Number of samples loaded to each thread : 500 
  VMC Eavg = -1.9348e+00
  VMC Evar = 6.1930e-03
  Total weights = 5.1200e+05
  Execution time = 5.0073e-01
  </log>
</opt>
<opt stage="main" walkers="512000">
  <log>

*****************************************
Building overlap and Hamiltonian matrices
*****************************************

Among totally 82 optimized parameters, largest LM parameter change : 9.1218e-03 at parameter 21

******************************************************************************
Init Cost =  -1.8377e+00    New Cost =  -1.8377e+00  Delta Cost =  -1.0791e-05
******************************************************************************

The new set of parameters is valid. Updating the trial wave function!

*****************************************************************************
Applying the update for shift_i =   1.0000e-02     and shift_s =   3.9062e-03
*****************************************************************************
  Execution time = 3.2450e+00
  </log>
  <optVariables href="Al.log.s020.opt.xml">
uu_0 5.1528e-01 1 1  ON 0
uu_1 6.4332e-01 1 1  ON 1
uu_2 5.0106e-01 1 1  ON 2
uu_3 3.9894e-01 1 1  ON 3
uu_4 3.0027e-01 1 1  ON 4
uu_5 2.1322e-01 1 1  ON 5
uu_6 1.3595e-01 1 1  ON 6
uu_7 7.7557e-02 1 1  ON 7
uu_8 3.5477e-02 1 1  ON 8
uu_9 4.8289e-03 1 1  ON 9
ud_0 1.5648e+00 1 1  ON 10
ud_1 1.1893e+00 1 1  ON 11
ud_2 9.1092e-01 1 1  ON 12
ud_3 6.8834e-01 1 1  ON 13
ud_4 5.0486e-01 1 1  ON 14
ud_5 3.4785e-01 1 1  ON 15
ud_6 2.1768e-01 1 1  ON 16
ud_7 1.2512e-01 1 1  ON 17
ud_8 5.8700e-02 1 1  ON 18
ud_9 1.4805e-02 1 1  ON 19
eAl_0 -7.9827e-01 1 1  ON 20
eAl_1 -7.8598e-01 1 1  ON 21
eAl_2 -7.3475e-01 1 1  ON 22
eAl_3 -5.9874e-01 1 1  ON 23
eAl_4 -4.2524e-01 1 1  ON 24
eAl_5 -2.6677e-01 1 1  ON 25
eAl_6 -1.0787e-01 1 1  ON 26
eAl_7 2.2498e-02 1 1  ON 27
eAl_8 9.7902e-02 1 1  ON 28
eAl_9 1.4631e-01 1 1  ON 29
uuAl_0 -3.7849e-05 1 1  ON 30
uuAl_1 1.9042e-05 1 1  ON 31
uuAl_2 -4.7768e-05 1 1  ON 32
uuAl_3 1.3656e-04 1 1  ON 33
uuAl_4 3.4515e-05 1 1  ON 34
uuAl_5 5.5562e-06 1 1  ON 35
uuAl_6 7.5882e-05 1 1  ON 36
uuAl_7 6.5085e-05 1 1  ON 37
uuAl_8 -1.5212e-04 1 1  ON 38
uuAl_9 -4.9590e-05 1 1  ON 39
uuAl_10 6.1228e-05 1 1  ON 40
uuAl_11 3.7716e-05 1 1  ON 41
uuAl_12 5.1979e-05 1 1  ON 42
uuAl_13 -1.9683e-04 1 1  ON 43
uuAl_14 -4.7505e-05 1 1  ON 44
uuAl_15 -5.7254e-07 1 1  ON 45
uuAl_16 1.4060e-04 1 1  ON 46
uuAl_17 -2.0284e-04 1 1  ON 47
uuAl_18 4.8169e-06 1 1  ON 48
uuAl_19 -2.1623e-05 1 1  ON 49
uuAl_20 5.9511e-05 1 1  ON 50
uuAl_21 9.6640e-06 1 1  ON 51
uuAl_22 1.0286e-06 1 1  ON 52
uuAl_23 -1.6873e-05 1 1  ON 53
uuAl_24 -1.1449e-06 1 1  ON 54
uuAl_25 -5.4083e-08 1 1  ON 55
udAl_0 -4.3841e-06 1 1  ON 56
udAl_1 6.1963e-05 1 1  ON 57
udAl_2 -2.4438e-04 1 1  ON 58
udAl_3 2.3792e-04 1 1  ON 59
udAl_4 8.3765e-05 1 1  ON 60
udAl_5 -2.0570e-05 1 1  ON 61
udAl_6 2.1309e-04 1 1  ON 62
udAl_7 -1.5138e-04 1 1  ON 63
udAl_8 -4.7597e-04 1 1  ON 64
udAl_9 -1.3342e-04 1 1  ON 65
udAl_10 7.1833e-05 1 1  ON 66
udAl_11 3.4202e-04 1 1  ON 67
udAl_12 1.2874e-04 1 1  ON 68
udAl_13 -3.0934e-04 1 1  ON 69
udAl_14 -1.2565e-04 1 1  ON 70
udAl_15 -7.9365e-07 1 1  ON 71
udAl_16 2.8131e-04 1 1  ON 72
udAl_17 -2.8575e-04 1 1  ON 73
udAl_18 -1.7231e-04 1 1  ON 74
udAl_19 -3.5022e-05 1 1  ON 75
udAl_20 7.6482e-05 1 1  ON 76
udAl_21 4.4669e-05 1 1  ON 77
udAl_22 -7.7268e-07 1 1  ON 78
udAl_23 -2.2963e-05 1 1  ON 79
udAl_24 -6.4554e-06 1 1  ON 80
udAl_25 5.5309e-07 1 1  ON 81
  </optVariables>
   Restore the number of walkers to 1, removing 0 walkers.
</opt>
</optimization-report>
  QMC Execution time = 3.2599e+00 secs 

=========================================================
  Start VMC
  File Root Al.log.s021 append = no 
=========================================================
  Using the current 1 walkers.
  Total number of walkers: 1.0240e+03
  Total weight: 1.0240e+03
  Resetting Properties of the walkers 1 x 13

<vmc function="put">
  qmc_counter=0  my_counter=0
  time step      = 1.5000e-01
  blocks         = 200
  steps          = 1
  substeps       = 30
  current        = 0
  target samples = 4.0960e+03
  walkers/mpi    = 1

  stepsbetweensamples = 50
<parameter name="blocks" condition="int">200</parameter>
<parameter name="blocks_between_recompute" condition="int">0</parameter>
<parameter name="check_properties" condition="int">100</parameter>
<parameter name="checkproperties" condition="int">100</parameter>
<parameter name="current" condition="int">0</parameter>
<parameter name="dmcwalkersperthread" condition="real">4.0000e+00</parameter>
<parameter name="maxcpusecs" condition="real">3.6000e+05</parameter>
<parameter name="record_configs" condition="int">0</parameter>
<parameter name="record_walkers" condition="int">50</parameter>
<parameter name="recordconfigs" condition="int">0</parameter>
<parameter name="recordwalkers" condition="int">50</parameter>
<parameter name="rewind" condition="int">0</parameter>
<parameter name="samples" condition="real">4.0960e+03</parameter>
<parameter name="samplesperthread" condition="real">4.0000e+00</parameter>
<parameter name="steps" condition="int">1</parameter>
<parameter name="stepsbetweensamples" condition="int">50</parameter>
<parameter name="store_configs" condition="int">0</parameter>
<parameter name="storeconfigs" condition="int">0</parameter>
<parameter name="sub_steps" condition="int">30</parameter>
<parameter name="substeps" condition="int">30</parameter>
<parameter name="tau" condition="au">1.5000e-01</parameter>
<parameter name="time_step" condition="au">1.5000e-01</parameter>
<parameter name="timestep" condition="au">1.5000e-01</parameter>
<parameter name="use_drift" condition="string">no</parameter>
<parameter name="usedrift" condition="string">no</parameter>
<parameter name="walkers" condition="int">1</parameter>
<parameter name="warmup_steps" condition="int">100</parameter>
<parameter name="warmupsteps" condition="int">100</parameter>
  DumpConfig==false Nothing (configurations, state) will be saved.
  Walker Samples are dumped every 50 steps.
</vmc>
  EstimatorManagerBase::add replace LocalEnergy estimator.
  Cannot make clones again. Use existing 1 clones
  Initial partition of walkers 0 1 

  Using Particle by Particle moves
  Walker moves without drift
  Total Sample Size   =4096
  Walker distribution on root = 0 1 
  Using Locality Approximation
===== Memory Usage after the buffer registration =====
Available memory on node 0, free + buffers : 81241 MB
Memory footprint by rank 0 on node 0       : 134 MB
==================================================
  Anonymous Buffer size per walker : 1184 Bytes.
MEMORY increase 0 MB VMC::resetRun
====================================================
  SimpleFixedNodeBranch::finalize after a VMC block
    QMC counter        = 21
    time step          = 0.15
    reference energy   = -1.93397
    reference variance = 0.0054894
====================================================
  QMC Execution time = 1.8713e+00 secs 

=========================================================
  Start DMC
  File Root Al.log.s022 append = no 
=========================================================
Using existing walkers 
  Resetting Properties of the walkers 1 x 13
  EstimatorManagerBase::add replace LocalEnergy estimator.
  Cannot make clones again. Use existing 1 clones
  Total number of walkers: 4.0960e+03
  Total weight: 4.0960e+03
  Creating WalkerController: target  number of walkers = 4096
  Using WalkerControlMPI for dynamic population control.
  START ALL OVER 
  WalkerControlBase parameters 
    maxCopy = 2
    Max Walkers per MPI rank 9
    Min Walkers per MPI rank 1
    Using non-blocking send/recv
  QMC counter      = 22
  time step        = 2.0000e-02
  effective time step = 2.0000e-02
  trial energy     = -1.9340e+00
  reference energy = -1.9340e+00
  Feedback = 1.0000e+00
  reference variance = 5.4894e-03
  target walkers = 4096
  branching cutoff scheme classic
  branch cutoff = 5.0000e+01 7.5000e+01
  Max and minimum walkers per node= 9 1
  QMC Status (BranchMode) = 0000001101
  Initial partition of walkers on a node: 0 4 
  Updates by particle-by-particle moves
  DMC moves are rejected when a node crossing is detected
  Using Non-local T-moves v0, M. Casula, PRB 74, 161102(R) (2006)
===== Memory Usage after the buffer registration =====
Available memory on node 0, free + buffers : 81239 MB
Memory footprint by rank 0 on node 0       : 134 MB
==================================================
SimpleFixedNodeBranch::checkParameters 
  Average Energy of a population  = -1.93456
  Energy Variance = 0.0109804

  Fluctuating population
  Persistent walkers are killed after 1 MC sweeps
  BranchInterval = 1
  Steps per block = 50
  Number of blocks = 70

  DMC Engine Initialization = 4.7968e-02 secs 

 Warmup is completed after 100

  TauEff     = 1.9962e-02
 TauEff/Tau = 9.9812e-01
  Etrial     = -1.9222e+00
 Running average of energy = -1.9355e+00
                  Variance = 6.3254e-03
branch cutoff = 1.0000e+01 1.5000e+01
====================================================
  SimpleFixedNodeBranch::finalize after a DMC block
    QMC counter                   = 22
    time step                     = 0.02
    effective time step           = 0.0199646
    trial energy                  = -1.93794
    reference energy              = -1.93648
    reference variance            = 0.0063254
    target walkers                = 4096
    branch cutoff                 = 10 15
    Max and minimum walkers per node= 9 1
    Feedback                      = 1
    QMC Status (BranchMode)       = 0000001111
====================================================
  QMC Execution time = 3.1617e+01 secs 
  Reusing DMC
BRANCH resetRun
 SimpleFixedNodeBranch::resetRun detected changes in <parameter>'s 
 BranchMode : 0000001111 0000001111
  WalkerControlBase parameters 
    maxCopy = 2
    Max Walkers per MPI rank 9
    Min Walkers per MPI rank 1
    Using non-blocking send/recv
 iParam (old):                  0                 1                22              4096                 9                 1                 1                 0
 iParam (new):                100                 1                22              4096                 9                 1                 1                 0
 vParam (old):   2.0000000000e-02  1.9964558320e-02 -1.9379444185e+00 -1.9364806466e+00 -1.9373099589e+00  1.5000000000e+01  1.0000000000e+01  2.0000000000e-01  6.3253968231e-03 -6.5859715083e+03  3.4010000000e+03  1.0000000000e+00  1.0000000000e+01  1.0000000000e+00  1.0000000000e+00  1.0000000000e+00  1.0000000000e+00
 vParam (new):   1.0000000000e-02  1.9964558320e-02 -1.9379444185e+00 -1.9364806466e+00 -1.9373099589e+00  1.5000000000e+01  1.0000000000e+01  2.0000000000e-01  6.3253968231e-03 -6.5859715083e+03  3.4010000000e+03  1.0000000000e+00  1.0000000000e+01  1.0000000000e+00  1.0000000000e+00  1.0000000000e+00  1.0000000000e+00

 Using branching cutoff scheme classic
SimpleFixedNodeBranch::checkParameters 
  Average Energy of a population  = -1.93721
  Energy Variance = 0.0072185

  Using Non-local T-moves v0, M. Casula, PRB 74, 161102(R) (2006)
===== Memory Usage after the buffer registration =====
Available memory on node 0, free + buffers : 81235 MB
Memory footprint by rank 0 on node 0       : 136 MB
==================================================

=========================================================
  Start DMC
  File Root Al.log.s023 append = no 
=========================================================
Using existing walkers 
  Resetting Properties of the walkers 1 x 13
  EstimatorManagerBase::add replace LocalEnergy estimator.
  Cannot make clones again. Use existing 1 clones
SimpleFixedNodeBranch::checkParameters 
  Average Energy of a population  = -1.93734
  Energy Variance = 0.00724401

  Fluctuating population
  Persistent walkers are killed after 1 MC sweeps
  BranchInterval = 1
  Steps per block = 100
  Number of blocks = 80

  DMC Engine Initialization = 3.9911270142e-04 secs 

 Warmup is completed after 100

  TauEff     = 9.9941174317e-03
 TauEff/Tau = 9.9941174317e-01
  Etrial     = -1.9115556041e+00
 Running average of energy = -1.9360944629e+00
                  Variance = 6.2548816845e-03
branch cutoff = 1.0000000000e+01 1.5000000000e+01
====================================================
  SimpleFixedNodeBranch::finalize after a DMC block
    QMC counter                   = 23
    time step                     = 0.01
    effective time step           = 0.00999372
    trial energy                  = -1.9365
    reference energy              = -1.93674
    reference variance            = 0.00625488
    target walkers                = 4096
    branch cutoff                 = 10 15
    Max and minimum walkers per node= 9 1
    Feedback                      = 1
    QMC Status (BranchMode)       = 0000001111
====================================================
  QMC Execution time = 7.1438e+01 secs 
  Reusing DMC
BRANCH resetRun
 SimpleFixedNodeBranch::resetRun detected changes in <parameter>'s 
 BranchMode : 0000001111 0000001111
  WalkerControlBase parameters 
    maxCopy = 2
    Max Walkers per MPI rank 9
    Min Walkers per MPI rank 1
    Using non-blocking send/recv
 iParam (old):                  0                 1                23              4096                 9                 1                 1                 0
 iParam (new):                200                 1                23              4096                 9                 1                 1                 0
 vParam (old):   1.0000000000e-02  9.9937213649e-03 -1.9364956885e+00 -1.9367398590e+00 -1.9350290324e+00  1.5000000000e+01  1.0000000000e+01  2.0000000000e-01  6.2548816845e-03 -1.5302179915e+04  7.9010000000e+03  1.0000000000e+00  1.0000000000e+01  1.0000000000e+00  1.0000000000e+00  1.0000000000e+00  1.0000000000e+00
 vParam (new):   5.0000000000e-03  9.9937213649e-03 -1.9364956885e+00 -1.9367398590e+00 -1.9350290324e+00  1.5000000000e+01  1.0000000000e+01  2.0000000000e-01  6.2548816845e-03 -1.5302179915e+04  7.9010000000e+03  1.0000000000e+00  1.0000000000e+01  1.0000000000e+00  1.0000000000e+00  1.0000000000e+00  1.0000000000e+00

 Using branching cutoff scheme classic
SimpleFixedNodeBranch::checkParameters 
  Average Energy of a population  = -1.93497
  Energy Variance = 0.00579525

  Using Non-local T-moves v0, M. Casula, PRB 74, 161102(R) (2006)
===== Memory Usage after the buffer registration =====
Available memory on node 0, free + buffers : 81230 MB
Memory footprint by rank 0 on node 0       : 137 MB
==================================================

=========================================================
  Start DMC
  File Root Al.log.s024 append = no 
=========================================================
Using existing walkers 
  Resetting Properties of the walkers 1 x 13
  EstimatorManagerBase::add replace LocalEnergy estimator.
  Cannot make clones again. Use existing 1 clones
SimpleFixedNodeBranch::checkParameters 
  Average Energy of a population  = -1.93447
  Energy Variance = 0.00644303

  Fluctuating population
  Persistent walkers are killed after 1 MC sweeps
  BranchInterval = 1
  Steps per block = 200
  Number of blocks = 90

  DMC Engine Initialization = 3.2401084900e-04 secs 

 Warmup is completed after 200

  TauEff     = 4.9987504889e-03
 TauEff/Tau = 9.9975009778e-01
  Etrial     = -1.8885070560e+00
 Running average of energy = -1.9361371556e+00
                  Variance = 6.4795691695e-03
branch cutoff = 1.0000000000e+01 1.5000000000e+01
====================================================
  SimpleFixedNodeBranch::finalize after a DMC block
    QMC counter                   = 24
    time step                     = 0.005
    effective time step           = 0.00499887
    trial energy                  = -1.93594
    reference energy              = -1.93643
    reference variance            = 0.00647957
    target walkers                = 4096
    branch cutoff                 = 10 15
    Max and minimum walkers per node= 9 1
    Feedback                      = 1
    QMC Status (BranchMode)       = 0000001111
====================================================
  QMC Execution time = 1.6092e+02 secs 
  Reusing DMC
BRANCH resetRun
 SimpleFixedNodeBranch::resetRun detected changes in <parameter>'s 
 BranchMode : 0000001111 0000001111
  WalkerControlBase parameters 
    maxCopy = 2
    Max Walkers per MPI rank 9
    Min Walkers per MPI rank 1
    Using non-blocking send/recv
 iParam (old):                  0                 1                24              4096                 9                 1                 1                 0
 iParam (new):                400                 1                24              4096                 9                 1                 1                 0
 vParam (old):   5.0000000000e-03  4.9988718347e-03 -1.9359391483e+00 -1.9364275488e+00 -1.9372876405e+00  1.5000000000e+01  1.0000000000e+01  2.0000000000e-01  6.4795691695e-03 -3.4470347657e+04  1.7801000000e+04  1.0000000000e+00  1.0000000000e+01  1.0000000000e+00  1.0000000000e+00  1.0000000000e+00  1.0000000000e+00
 vParam (new):   2.5000000000e-03  4.9988718347e-03 -1.9359391483e+00 -1.9364275488e+00 -1.9372876405e+00  1.5000000000e+01  1.0000000000e+01  2.0000000000e-01  6.4795691695e-03 -3.4470347657e+04  1.7801000000e+04  1.0000000000e+00  1.0000000000e+01  1.0000000000e+00  1.0000000000e+00  1.0000000000e+00  1.0000000000e+00

 Using branching cutoff scheme classic
SimpleFixedNodeBranch::checkParameters 
  Average Energy of a population  = -1.93728
  Energy Variance = 0.0045641

  Using Non-local T-moves v0, M. Casula, PRB 74, 161102(R) (2006)
===== Memory Usage after the buffer registration =====
Available memory on node 0, free + buffers : 81220 MB
Memory footprint by rank 0 on node 0       : 138 MB
==================================================

=========================================================
  Start DMC
  File Root Al.log.s025 append = no 
=========================================================
Using existing walkers 
  Resetting Properties of the walkers 1 x 13
  EstimatorManagerBase::add replace LocalEnergy estimator.
  Cannot make clones again. Use existing 1 clones
SimpleFixedNodeBranch::checkParameters 
  Average Energy of a population  = -1.93721
  Energy Variance = 0.00456143

  Fluctuating population
  Persistent walkers are killed after 1 MC sweeps
  BranchInterval = 1
  Steps per block = 400
  Number of blocks = 100

  DMC Engine Initialization = 6.5319538116e-03 secs 

 Warmup is completed after 400

  TauEff     = 2.4998103800e-03
 TauEff/Tau = 9.9992415202e-01
  Etrial     = -1.9403768797e+00
 Running average of energy = -1.9374883676e+00
                  Variance = 6.1654128859e-03
branch cutoff = 1.0000000000e+01 1.5000000000e+01
====================================================
  SimpleFixedNodeBranch::finalize after a DMC block
    QMC counter                   = 25
    time step                     = 0.0025
    effective time step           = 0.0024998
    trial energy                  = -1.93397
    reference energy              = -1.93666
    reference variance            = 0.00616541
    target walkers                = 4096
    branch cutoff                 = 10 15
    Max and minimum walkers per node= 9 1
    Feedback                      = 1
    QMC Status (BranchMode)       = 0000001111
====================================================
  QMC Execution time = 3.5665e+02 secs 
  Total Execution time = 6.9494e+02 secs

=========================================================
  A new xml input file : Al.log.s025.cont.xml
TACC:  Shutdown complete. Exiting. 
