
 Primary working directories    : /global/cscratch1/sd/aannabe
 Secondary working directories  : /global/cscratch1/sd/aannabe
 Wavefunction directory         : /global/homes/a/aannabe/wfu/
 Main file repository           : /global/cscratch1/sd/aannabe/

 SHA1      : 19cd028119e0e09f93f0674bd8af7968d9b3eff6
 NAME      : 2015.1.36
 ARCHNAME  : linux/x86_64
 FC        : /opt/cray/pe/craype/2.5.14/bin/ftn
 BLASLIB   : -L/opt/intel/compilers_and_libraries_2018.1.163/linux/mkl/lib/intel64 -Wl,-_start-group -lmkl_intel_ilp64 -lmkl_intel_thread -lmkl_core -Wl,-_end-group -liomp5
 id        : lbl

 Nodes     nprocs
 nid00461     1

 Using customized tuning parameters: mindgm=7; mindgv=16; mindgc=1; mindgr=1; noblas=0; minvec=7
 default implementation of scratch files=df  

 ***,Ne
 memory,8,g
 gthresh,twoint=1.e-12
 
 gprint,basis,orbitals
 gexpec,ekin,pot
 
 angstrom
 geometry={
 1                                                                               ! Number of atoms
 Ne 0.0 0.0 0.0
 }
 
 basis={
                                                                 !include,/global/homes/a/aannabe/docs/accurate/ccECP_D2h/pps/Ne.pp
                                             !include,/global/homes/a/aannabe/docs/accurate/ccECP_D2h/basis/aug-cc-pVnZ/Ne_DZ.basis
                                                 !include,/global/homes/a/aannabe/docs/accurate/ccECP_D2h/basis/cc-pVnZ/Ne_DZ.basis
 
 Including file /global/homes/a/aannabe/repos/pseudopotentiallibrary/recipes/Ne/ccECP/Ne.ccECP.molpro
 Including file /global/homes/a/aannabe/repos/pseudopotentiallibrary/recipes/Ne/ccECP/Ne.cc-pVDZ.molpro
                               !include,/global/homes/a/aannabe/repos/pseudopotentiallibrary/recipes/Ne/ccECP/Ne.aug-cc-pVDZ.molpro
 
 
 }
 
 {hf
 wf,8,1,0
 occ,1,1,1,0,1,0,0,0
                                                                                 !open,1.2
 closed,1,1,1,0,1,0,0,0
                                                                                 !sym,
 }
 scf(i)=energy
 
 _CC_NORM_MAX=2.0
 {fci
 maxit,100
 core
 }
 posthf(i)=energy
 
 table,scf,posthf,ekin,pot
 save,2.csv,new
 
 

 Variables initialized (889), CPU time= 0.00 sec
 Commands  initialized (702), CPU time= 0.01 sec, 572 directives.
 Default parameters read. Elapsed time= 0.15 sec

 Checking input...
 Passed
1


                                         ***  PROGRAM SYSTEM MOLPRO  ***
                                       Copyright, TTI GmbH Stuttgart, 2015
                                    Version 2015.1 linked Dec 29 2018 15:55:43


 **********************************************************************************************************************************
 LABEL *   Ne                                                                            
  64 bit serial version                                                                  DATE: 07-Feb-19          TIME: 10:52:27  
 **********************************************************************************************************************************

 SHA1:             19cd028119e0e09f93f0674bd8af7968d9b3eff6
 **********************************************************************************************************************************

 THRESHOLDS:

 ZERO    =  1.00D-12  ONEINT  =  1.00D-12  TWOINT  =  1.00D-12  PREFAC  =  1.00D-14  LOCALI  =  1.00D-09  EORDER  =  1.00D-04
 ENERGY  =  0.00D+00  ETEST   =  0.00D+00  EDENS   =  0.00D+00  THRDEDEF=  1.00D-06  GRADIENT=  1.00D-02  STEP    =  1.00D-03
 ORBITAL =  1.00D-05  CIVEC   =  1.00D-05  COEFF   =  1.00D-04  PRINTCI =  5.00D-02  PUNCHCI =  9.90D+01  OPTGRAD =  3.00D-04
 OPTENERG=  1.00D-06  OPTSTEP =  3.00D-04  THRGRAD =  1.00D-10  COMPRESS=  1.00D-11  VARMIN  =  1.00D-07  VARMAX  =  1.00D-03
 THRDOUB =  0.00D+00  THRDIV  =  1.00D-05  THRRED  =  1.00D-07  THRPSP  =  1.00D+00  THRDC   =  1.00D-10  THRCS   =  1.00D-10
 THRNRM  =  1.00D-08  THREQ   =  0.00D+00  THRDE   =  1.00D+00  THRREF  =  1.00D-05  SPARFAC =  1.00D+00  THRDLP  =  1.00D-07
 THRDIA  =  1.00D-10  THRDLS  =  1.00D-07  THRGPS  =  0.00D+00  THRKEX  =  0.00D+00  THRDIS  =  2.00D-01  THRVAR  =  1.00D-10
 THRLOC  =  1.00D-06  THRGAP  =  1.00D-06  THRLOCT = -1.00D+00  THRGAPT = -1.00D+00  THRORB  =  1.00D-06  THRMLTP =  0.00D+00
 THRCPQCI=  1.00D-10  KEXTA   =  0.00D+00  THRCOARS=  0.00D+00  SYMTOL  =  1.00D-06  GRADTOL =  1.00D-06  THROVL  =  1.00D-08
 THRORTH =  1.00D-08  GRID    =  1.00D-06  GRIDMAX =  1.00D-03  DTMAX   =  0.00D+00  THROCCDE=  1.00D-01  THROCCDE=  1.00D-01



 ZUNIT=ANG
 

Geometry recognized as XYZ


 Variable memory set to 8000000000 words,  buffer space   230000 words

 SETTING BASIS          =    USERDEF


 Recomputing integrals since basis changed


 Using spherical harmonics



 PROGRAM * SEWARD (Integral evaluation for generally contracted gaussian basis sets)     Author: Roland Lindh, 1990

 Geometry written to block  1 of record 700

 Orientation using atomic masses  
 Molecule type: Atom
 Symmetry elements: X,Y,Z
 Rotational constants:       0.0000000      0.0000000      0.0000000 GHz  (calculated with average atomic masses)

 Point group  D2h 



 ATOMIC COORDINATES

 NR  ATOM    CHARGE       X              Y              Z

   1  NE      8.00    0.000000000    0.000000000    0.000000000


          NE  CORE POTENTIAL

          p POTENTIAL

 POWERS             1              3              2
 EXPONENTIALS   14.79351       16.58204       16.08074    
 COEFFICIENTS   8.000000       118.3481      -70.27886    

          s - p POTENTIAL

 POWERS             2
 EXPONENTIALS   16.55441    
 COEFFICIENTS   81.62206    


 BASIS DATA

   Nr Sym  Nuc  Type         Exponents   Contraction coefficients

    1.1 Ag    1  1s          89.999848     0.000034
                             44.745732    -0.000559
                             22.246488     0.018588
                             11.060411    -0.126897
                              5.498967    -0.048530
                              2.733953     0.178918
                              1.359255     0.377010
                              0.675788     0.390069
                              0.335985     0.185530
                              0.167044     0.024944
    2.1 Ag    1  1s           0.455383     1.000000
    3.1 Ag    1  3d0          2.371533     1.000000
    4.1 Ag    1  3d2+         2.371533     1.000000
    1.2 B3u   1  2px         40.001333     0.003647
                             20.592442     0.033018
                             10.600863     0.068143
                              5.457260     0.135119
                              2.809364     0.214842
                              1.446244     0.264952
                              0.744517     0.258434
                              0.383273     0.190430
                              0.197307     0.084749
                              0.101572     0.015421
    2.2 B3u   1  2px          0.472224     1.000000
    1.3 B2u   1  2py         40.001333     0.003647
                             20.592442     0.033018
                             10.600863     0.068143
                              5.457260     0.135119
                              2.809364     0.214842
                              1.446244     0.264952
                              0.744517     0.258434
                              0.383273     0.190430
                              0.197307     0.084749
                              0.101572     0.015421
    2.3 B2u   1  2py          0.472224     1.000000
    1.4 B1g   1  3d2-         2.371533     1.000000
    1.5 B1u   1  2pz         40.001333     0.003647
                             20.592442     0.033018
                             10.600863     0.068143
                              5.457260     0.135119
                              2.809364     0.214842
                              1.446244     0.264952
                              0.744517     0.258434
                              0.383273     0.190430
                              0.197307     0.084749
                              0.101572     0.015421
    2.5 B1u   1  2pz          0.472224     1.000000
    1.6 B2g   1  3d1+         2.371533     1.000000
    1.7 B3g   1  3d1-         2.371533     1.000000

 NUCLEAR CHARGE:                    8
 NUMBER OF PRIMITIVE AOS:          50
 NUMBER OF SYMMETRY AOS:           49
 NUMBER OF CONTRACTIONS:           13   (   4Ag  +   2B3u +   2B2u +   1B1g +   2B1u +   1B2g +   1B3g +   0Au  )
 NUMBER OF CORE ORBITALS:           0   (   0Ag  +   0B3u +   0B2u +   0B1g +   0B1u +   0B2g +   0B3g +   0Au  )
 NUMBER OF VALENCE ORBITALS:        4   (   1Ag  +   1B3u +   1B2u +   0B1g +   1B1u +   0B2g +   0B3g +   0Au  )


 NUCLEAR REPULSION ENERGY    0.00000000

 EXTRA SYMMETRY OF AOS IN SYMMETRY 1:   1 1 2 3

 Eigenvalues of metric

         1 0.558E-01 0.100E+01 0.100E+01 0.194E+01
         2 0.186E+00 0.181E+01
         3 0.186E+00 0.181E+01
         4 0.100E+01
         5 0.186E+00 0.181E+01
         6 0.100E+01
         7 0.100E+01


 Contracted 2-electron integrals neglected if value below      1.0D-12
 AO integral compression algorithm  1   Integral accuracy      1.0D-12

     0.262 MB (compressed) written to integral file (100.0%)


 NUMBER OF SORTED TWO-ELECTRON INTEGRALS:        799.     BUFFER LENGTH:  32768
 NUMBER OF SEGMENTS:   1  SEGMENT LENGTH:        799      RECORD LENGTH: 524288

 Memory used in sort:       0.56 MW

 SORT1 READ        1437. AND WROTE         731. INTEGRALS IN      1 RECORDS. CPU TIME:     0.00 SEC, REAL TIME:     0.01 SEC
 SORT2 READ         731. AND WROTE         799. INTEGRALS IN      1 RECORDS. CPU TIME:     0.00 SEC, REAL TIME:     0.01 SEC

 FILE SIZES:   FILE 1:    20.1 MBYTE,  FILE 4:     4.2 MBYTE,   TOTAL:     24.4 MBYTE

 OPERATOR DM      FOR CENTER  0  COORDINATES:    0.000000    0.000000    0.000000
 OPERATOR EKIN    FOR CENTER  0  COORDINATES:    0.000000    0.000000    0.000000
 OPERATOR POT     FOR CENTER  0  COORDINATES:    0.000000    0.000000    0.000000


 **********************************************************************************************************************************
 DATASETS  * FILE   NREC   LENGTH (MB)   RECORD NAMES
              1      20       19.87       500      610      700      900      950      970     1000      129      960     1100   
                                          VAR    BASINP    GEOM    SYMINP    ZMAT    AOBASIS   BASIS     P2S    ABASIS      S 
                                         1400     1410     1420     1200     1210     1080     1600     1650     1300     1700   
                                         EKIN       V       ECP      H0       H01     AOSYM     SMH    MOLCAS    ERIS     OPER   

 PROGRAMS   *        TOTAL       INT
 CPU TIMES  *         1.65      1.56
 REAL TIME  *        10.97 SEC
 DISK USED  *        24.62 MB      
 **********************************************************************************************************************************


 PROGRAM * RHF-SCF (CLOSED SHELL)       Authors: W. Meyer, H.-J. Werner


 NUMBER OF ELECTRONS:       4+    4-    SPACE SYMMETRY=1    SPIN SYMMETRY: Singlet 
 CONVERGENCE THRESHOLDS:    1.00E-05 (Density)    1.00E-07 (Energy)
 MAX. NUMBER OF ITERATIONS:       60
 INTERPOLATION TYPE:            DIIS
 INTERPOLATION STEPS:              2 (START)      1 (STEP)
 LEVEL SHIFTS:                  0.00 (CLOSED)  0.00 (OPEN) 

 Number of closed-shell orbitals:    4 (   1   1   1   0   1   0   0 )



   Atom=NE basis=ECP2MWB_GUESS     lmin=0  lmax=1

 Orbital guess generated from atomic densities. Full valence occupancy:    1   1   1   0   1   0   0   0


 Molecular orbital dump at record        2100.2

 ITERATION    DDIFF          GRAD             ENERGY        2-EL.EN.            DIPOLE MOMENTS         DIIS   ORB.
    1      0.000D+00      0.000D+00       -34.70881687     51.440866    0.00000    0.00000    0.00000    0    start
    2      0.000D+00      0.710D-03       -34.70881852     51.443344    0.00000    0.00000    0.00000    1    diag
    3      0.113D-02      0.117D-03       -34.70881857     51.442190    0.00000    0.00000    0.00000    2    diag
    4      0.197D-03      0.299D-04       -34.70881857     51.442634    0.00000    0.00000    0.00000    3    diag
    5      0.305D-04      0.169D-08       -34.70881857     51.442634    0.00000    0.00000    0.00000    4    diag
    6      0.600D-09      0.103D-08       -34.70881857     51.442634    0.00000    0.00000    0.00000    0    orth

 Final occupancy:   1   1   1   0   1   0   0

 !RHF STATE 1.1 Energy                -34.708818570267
 Nuclear energy                         0.00000000
 One-electron energy                  -60.43013565
 Two-electron energy                   25.72131708
 Virial quotient                       -1.23772184
 !RHF STATE 1.1 Dipole moment           0.00000000     0.00000000     0.00000000
 Dipole moment /Debye                   0.00000000     0.00000000     0.00000000
 

 !RHF expec          <1.1|EKIN|1.1>    28.042503040449
 
 !RHF expec           <1.1|POT|1.1>   -11.374595883329

 ELECTRON ORBITALS
 =================


   Orb  Occ    Energy  Couls-En    Coefficients

                                   1 1s      1 1s      1 3d0     1 3d2+ 

   1.1   2    -1.9415  -10.2441  0.999997  0.000003 -0.000000  0.000000

                                   1 2px     1 2px  

   1.2   2    -0.8508   -8.1549  1.000001 -0.000001

                                   1 2py     1 2py  

   1.3   2    -0.8508   -8.1549  1.000001 -0.000001

                                   1 2pz     1 2pz  

   1.5   2    -0.8508   -8.1549  1.000001 -0.000001

 HOMO      1.2    -0.850753 =     -23.1502eV
 LUMO      2.2     1.934683 =      52.6454eV
 LUMO-HOMO         2.785435 =      75.7956eV


 **********************************************************************************************************************************
 DATASETS  * FILE   NREC   LENGTH (MB)   RECORD NAMES
              1      20       19.87       500      610      700      900      950      970     1000      129      960     1100   
                                          VAR    BASINP    GEOM    SYMINP    ZMAT    AOBASIS   BASIS     P2S    ABASIS      S 
                                         1400     1410     1420     1200     1210     1080     1600     1650     1300     1700   
                                         EKIN       V       ECP      H0       H01     AOSYM     SMH    MOLCAS    ERIS     OPER   

              2       4        2.74       700     1000      520     2100   
                                         GEOM     BASIS   MCVARS     RHF  

 PROGRAMS   *        TOTAL        HF       INT
 CPU TIMES  *         1.68      0.03      1.56
 REAL TIME  *        11.18 SEC
 DISK USED  *        24.62 MB      
 **********************************************************************************************************************************
 SETTING SCF(I)         =       -34.70881857  AU                              
 SETTING _CC_NORM_MAX   =         2.00000000                                  


 PROGRAM * FCI (Full CI)     Author: P.J. Knowles, 1984

 ***  Initialisation ***
 
 Molecular orbitals read from record     2100.2  Type=RHF/CANONICAL (state 1.1)
 
 Frozen orbitals:              0 (  0  0  0  0  0  0  0  0)
 Active orbitals:             13 (  4  2  2  1  2  1  1  0)
 Active electrons:             8
 Spin quantum number:          0.0
 Orbital pairs:                    22      12      12       9      12       9       9       6
 Strings:                          86      82      82      93      82      93      93     104
                                   86      82      82      93      82      93      93     104
 Determinants:                          64331           63952           63952           63798
                                        63952           63798           63798           63644

 Load integrals                1.7 sec
 Transform integrals           1.7 sec
 Storage for integrals:           1546
 Remaining memory:           *********

 Core energy:               0.00000000
 Run Hamiltonian processor DAVIDSON
 Symmetry:                   1
 Trial vector:                  0.00
 Result vector:                 0.00
 Maximum iterations:          100
 Convergence threshold:         0.0000100
 RHS vector:                    0.00
 Hamiltonian shift:             0.0000000
 Output threshold:              0.0500000
 Options:                        0
 Number of roots:             1

 Hamiltonian diagonaliser entered at time      1.70

 Initial configuration generated:
   55406      1.0000000    -34.7088186

 It  Tr    CPU  Convergence   Energy       Pop     dE(next)

  1   1    1.7  1.00000000   -34.70881857
                                           0.00 -0.22208697 -0.22208217
  2   1    1.8  0.15394425   -34.88612958
                                           0.04 -0.00900664 -0.00881466
  3   1    1.8  0.02679552   -34.89310372
                                           0.10 -0.00058545 -0.00056747
  4   1    1.8  0.00701121   -34.89358825
                                           0.14 -0.00004469 -0.00004067
  5   1    1.9  0.00202539   -34.89362374
                                           0.24 -0.00000486 -0.00000424
  6   1    1.9  0.00054344   -34.89362773
                                           0.26 -0.00000059 -0.00000052
  7   1    2.0  0.00016142   -34.89362824
                                           0.25 -0.00000007 -0.00000006
  8   1    2.1  0.00005560   -34.89362831
                                           0.25 -0.00000001 -0.00000001
  9   1    2.1  0.00001816   -34.89362831
                                           0.25 -0.00000000 -0.00000000
 10   1    2.2  0.00000622   -34.89362832


RESULTS FOR STATE 1.1
=====================

 Correlation energy                    -0.184809745255
 !FCI STATE 1.1 Energy                -34.893628315522
 CI Vector (threshold= 0.500E-01)
       0.987456166998  1  5  7 10  1  5  7 10
 /EOF
 !FCI STATE 1.1 Dipole moment           0.00000000     0.00000000     0.00000000
 Dipole moment /Debye                   0.00000000     0.00000000     0.00000000
 

 !FCI expec          <1.1|EKIN|1.1>    28.132837399240
 
 !FCI expec           <1.1|POT|1.1>   -11.358256651300


 **********************************************************************************************************************************
 DATASETS  * FILE   NREC   LENGTH (MB)   RECORD NAMES
              1      20       19.87       500      610      700      900      950      970     1000      129      960     1100   
                                          VAR    BASINP    GEOM    SYMINP    ZMAT    AOBASIS   BASIS     P2S    ABASIS      S 
                                         1400     1410     1420     1200     1210     1080     1600     1650     1300     1700   
                                         EKIN       V       ECP      H0       H01     AOSYM     SMH    MOLCAS    ERIS     OPER   

              2       4        2.74       700     1000      520     2100   
                                         GEOM     BASIS   MCVARS     RHF  

 PROGRAMS   *        TOTAL       FCI        HF       INT
 CPU TIMES  *         2.17      0.49      0.03      1.56
 REAL TIME  *        11.94 SEC
 DISK USED  *        33.56 MB      
 **********************************************************************************************************************************
 SETTING POSTHF(I)      =       -34.89362832  AU                              
                                                                                                                                                                                                                                                                

        SCF            POSTHF        EKIN           POT
    -34.70881857   -34.89362832   28.13283740   -11.35825665
                                                  

 FCI/USERDEF energy=    -34.893628315522

        FCI             HF-SCF  
    -34.89362832    -34.70881857
 **********************************************************************************************************************************
 Molpro calculation terminated
 Variable memory released
