
 Primary working directories    : /global/cscratch1/sd/aannabe
 Secondary working directories  : /global/cscratch1/sd/aannabe
 Wavefunction directory         : /global/homes/a/aannabe/wfu/
 Main file repository           : /global/cscratch1/sd/aannabe/

 SHA1      : 2873118e99aab1bc19f5b6fc1784693c06d15c95
 NAME      : 2015.1.8
 ARCHNAME  : linux/x86_64
 FC        : /opt/cray/pe/craype/2.5.5/bin/ftn
 BLASLIB   : -Wl,-_start-group /opt/intel/compilers_and_libraries_2016.3.210/linux/mkl/lib/intel64/libmkl_intel_ilp64.a /opt/intel/compilers_and_libraries_2016.3.210/linux/mkl/lib/intel64/libmkl_intel_thread.a /opt/intel/compilers_and_libraries_2016.3.210/linux/mkl/lib/intel64/libmkl_core.a -Wl,-_end-group
 id        : lbl

 Nodes     nprocs
 nid00458     1

 Using customized tuning parameters: mindgm=8; mindgv=16; mindgc=4; mindgr=1; noblas=0; minvec=7
 default implementation of scratch files=df  

 ***,Ti
 memory,512,m
 gthresh,twoint=1.e-12
 
 gprint,basis,orbitals
 gexpec,ekin,pot
 
 angstrom
 geometry={
 1                                                                               ! Number of atoms
 Ti 0.0 0.0 0.0
 }
 
 basis={
 Including file /global/homes/a/aannabe/docs/accurate/ccECP_Kh/pps/Ti.pp
                                              !include,/global/homes/a/aannabe/docs/accurate/ccECP_Kh/basis/aug-cc-pVnZ/Ti_qz.basis
 Including file /global/homes/a/aannabe/docs/accurate/ccECP_Kh/basis/cc-pVnZ/Ti_qz.basis
 }
 
 {rhf
  start,atden
  print,orbitals=2
  wf,12,1,2
  occ,4,1,1,0,1,0,0,0
  open,3.1,4.1
  sym,1,1,1,3,2
  orbital,4202.2
 }
 pop
 {multi
  start,4202.2
  occ,4,1,1,1,1,1,1,0
  closed,2,1,1,0,1,0,0
  wf,12,1,2;state,1
  wf,12,4,2;state,3
  wf,12,6,2;state,3
  wf,12,7,2;state,3
  natorb,ci,print
  orbital,5202.2
 }
 {rhf,nitord=1,maxit=0
  start,5202.2
  wf,12,1,2
  occ,4,1,1,0,1,0,0,0
  open,3.1,4.1
 }
 
 scf(i)=energy
 
 _CC_NORM_MAX=2.0
 {ci
 maxit,100
 core
 }
 posthf(i)=energy
 
 table,scf,posthf,ekin,pot
 save,4.csv,new
 
 

 Variables initialized (889), CPU time= 0.01 sec
 Commands  initialized (702), CPU time= 0.01 sec, 572 directives.
 Default parameters read. Elapsed time= 0.32 sec

 Checking input...
 Passed
1


                                         ***  PROGRAM SYSTEM MOLPRO  ***
                                       Copyright, TTI GmbH Stuttgart, 2015
                                    Version 2015.1 linked Sep  7 2016 23:09:38


 **********************************************************************************************************************************
 LABEL *   Ti                                                                            
  64 bit serial version                                                                  DATE: 13-Nov-18          TIME: 22:04:25  
 **********************************************************************************************************************************

 SHA1:             2873118e99aab1bc19f5b6fc1784693c06d15c95
 **********************************************************************************************************************************

 THRESHOLDS:

 ZERO    =  1.00D-12  ONEINT  =  1.00D-12  TWOINT  =  1.00D-12  PREFAC  =  1.00D-14  LOCALI  =  1.00D-09  EORDER  =  1.00D-04
 ENERGY  =  0.00D+00  ETEST   =  0.00D+00  EDENS   =  0.00D+00  THRDEDEF=  1.00D-06  GRADIENT=  1.00D-02  STEP    =  1.00D-03
 ORBITAL =  1.00D-05  CIVEC   =  1.00D-05  COEFF   =  1.00D-04  PRINTCI =  5.00D-02  PUNCHCI =  9.90D+01  OPTGRAD =  3.00D-04
 OPTENERG=  1.00D-06  OPTSTEP =  3.00D-04  THRGRAD =  1.00D-10  COMPRESS=  1.00D-11  VARMIN  =  1.00D-07  VARMAX  =  1.00D-03
 THRDOUB =  0.00D+00  THRDIV  =  1.00D-05  THRRED  =  1.00D-07  THRPSP  =  1.00D+00  THRDC   =  1.00D-10  THRCS   =  1.00D-10
 THRNRM  =  1.00D-08  THREQ   =  0.00D+00  THRDE   =  1.00D+00  THRREF  =  1.00D-05  SPARFAC =  1.00D+00  THRDLP  =  1.00D-07
 THRDIA  =  1.00D-10  THRDLS  =  1.00D-07  THRGPS  =  0.00D+00  THRKEX  =  0.00D+00  THRDIS  =  2.00D-01  THRVAR  =  1.00D-10
 THRLOC  =  1.00D-06  THRGAP  =  1.00D-06  THRLOCT = -1.00D+00  THRGAPT = -1.00D+00  THRORB  =  1.00D-06  THRMLTP =  0.00D+00
 THRCPQCI=  1.00D-10  KEXTA   =  0.00D+00  THRCOARS=  0.00D+00  SYMTOL  =  1.00D-06  GRADTOL =  1.00D-06  THROVL  =  1.00D-08
 THRORTH =  1.00D-08  GRID    =  1.00D-06  GRIDMAX =  1.00D-03  DTMAX   =  0.00D+00  THROCCDE=  1.00D-01  THROCCDE=  1.00D-01



 ZUNIT=ANG
 

Geometry recognized as XYZ


 Variable memory set to  512000000 words,  buffer space   230000 words

 SETTING BASIS          =    USERDEF


 Recomputing integrals since basis changed


 Using spherical harmonics



 PROGRAM * SEWARD (Integral evaluation for generally contracted gaussian basis sets)     Author: Roland Lindh, 1990

 Geometry written to block  1 of record 700

 Orientation using atomic masses  
 Molecule type: Atom
 Symmetry elements: X,Y,Z
 Rotational constants:       0.0000000      0.0000000      0.0000000 GHz  (calculated with average atomic masses)

 Point group  D2h 



 ATOMIC COORDINATES

 NR  ATOM    CHARGE       X              Y              Z

   1  TI     12.00    0.000000000    0.000000000    0.000000000


          TI  CORE POTENTIAL

          d POTENTIAL

 POWERS             1              3              2              2
 EXPONENTIALS   18.41366       15.92292       13.65001       5.095552    
 COEFFICIENTS   12.00000       220.9639      -94.29026      9.7911425E-02

          s - d POTENTIAL

 POWERS             2              2
 EXPONENTIALS   12.70581       6.111786    
 COEFFICIENTS   173.9466       18.83768    

          p - d POTENTIAL

 POWERS             2              2
 EXPONENTIALS   12.64092       5.354374    
 COEFFICIENTS   111.4567       11.17703    


 BASIS DATA

   Nr Sym  Nuc  Type         Exponents   Contraction coefficients

    1.1 Ag    1  1s          68.910511     0.000616   -0.000156    0.000635   -0.001178    0.000115    0.000000
    2.1 Ag                   33.720700    -0.007501    0.001966   -0.006468    0.011877    0.002833    0.000000
    3.1 Ag                   18.159676     0.012218   -0.003994    0.023444   -0.047240    0.006141    0.000000
    4.1 Ag                   12.419305     0.144739   -0.036377    0.038921   -0.050922   -0.209682    0.000000
    5.1 Ag                    7.532195    -0.328621    0.088593   -0.141180    0.237746    0.518367    0.000000
    6.1 Ag                    3.504444    -0.317517    0.085630   -0.214765    0.403185    0.304164    0.000000
                              1.910727     0.357422   -0.105993    0.320151   -0.790961   -1.232863    0.000000
                              0.888840     0.671406   -0.237421    0.451062   -1.102276   -2.090508    0.000000
                              0.447198     0.282226   -0.235359    0.855191    0.209446    7.092715    0.000000
                              0.281192     0.038673   -0.012960   -1.209224    2.527352   -4.543744    0.000000
                              0.100258     0.004559    0.433582   -1.319481   -1.789041   -2.248270    0.000000
                              0.046525    -0.001565    0.577873    0.866517   -0.867842    4.473918    0.000000
                              0.021840     0.000398    0.164360    0.618916    1.427395   -2.426296    1.000000
    7.1 Ag    1  1s           1.523349     1.000000
    8.1 Ag    1  1s           1.707554     1.000000
    9.1 Ag    1  3d0         77.434559     0.000022
                             27.708477     0.004218
                             12.914284     0.030087
                              6.062674     0.084821
                              2.863898     0.171110
                              1.386559     0.247451
                              0.677058     0.277310
                              0.329864     0.261077
                              0.159474     0.190336
                              0.076174     0.119385
                              0.028570     0.031297
   10.1 Ag    1  3d2+        77.434559     0.000022
                             27.708477     0.004218
                             12.914284     0.030087
                              6.062674     0.084821
                              2.863898     0.171110
                              1.386559     0.247451
                              0.677058     0.277310
                              0.329864     0.261077
                              0.159474     0.190336
                              0.076174     0.119385
                              0.028570     0.031297
   11.1 Ag    1  3d0         77.434559    -0.000025
                             27.708477    -0.004311
                             12.914284    -0.030913
                              6.062674    -0.088049
                              2.863898    -0.178330
                              1.386559    -0.234335
                              0.677058    -0.195775
                              0.329864     0.065872
                              0.159474     0.330536
                              0.076174     0.461229
                              0.028570     0.184273
   12.1 Ag    1  3d2+        77.434559    -0.000025
                             27.708477    -0.004311
                             12.914284    -0.030913
                              6.062674    -0.088049
                              2.863898    -0.178330
                              1.386559    -0.234335
                              0.677058    -0.195775
                              0.329864     0.065872
                              0.159474     0.330536
                              0.076174     0.461229
                              0.028570     0.184273
   13.1 Ag    1  3d0         77.434559     0.000010
                             27.708477     0.006187
                             12.914284     0.042630
                              6.062674     0.127524
                              2.863898     0.248289
                              1.386559     0.259761
                              0.677058    -0.070794
                              0.329864    -0.519396
                              0.159474    -0.373658
                              0.076174     0.455067
                              0.028570     0.489586
   14.1 Ag    1  3d2+        77.434559     0.000010
                             27.708477     0.006187
                             12.914284     0.042630
                              6.062674     0.127524
                              2.863898     0.248289
                              1.386559     0.259761
                              0.677058    -0.070794
                              0.329864    -0.519396
                              0.159474    -0.373658
                              0.076174     0.455067
                              0.028570     0.489586
   15.1 Ag    1  3d0         77.434559     0.000011
                             27.708477    -0.008026
                             12.914284    -0.053875
                              6.062674    -0.168795
                              2.863898    -0.312344
                              1.386559    -0.172031
                              0.677058     0.587633
                              0.329864     0.528592
                              0.159474    -0.859644
                              0.076174    -0.273831
                              0.028570     0.802754
   16.1 Ag    1  3d2+        77.434559     0.000011
                             27.708477    -0.008026
                             12.914284    -0.053875
                              6.062674    -0.168795
                              2.863898    -0.312344
                              1.386559    -0.172031
                              0.677058     0.587633
                              0.329864     0.528592
                              0.159474    -0.859644
                              0.076174    -0.273831
                              0.028570     0.802754
   17.1 Ag    1  3d0         77.434559     0.000000
                             27.708477     0.000000
                             12.914284     0.000000
                              6.062674     0.000000
                              2.863898     0.000000
                              1.386559     0.000000
                              0.677058     0.000000
                              0.329864     0.000000
                              0.159474     0.000000
                              0.076174     0.000000
                              0.028570     1.000000
   18.1 Ag    1  3d2+        77.434559     0.000000
                             27.708477     0.000000
                             12.914284     0.000000
                              6.062674     0.000000
                              2.863898     0.000000
                              1.386559     0.000000
                              0.677058     0.000000
                              0.329864     0.000000
                              0.159474     0.000000
                              0.076174     0.000000
                              0.028570     1.000000
   19.1 Ag    1  3d0          1.527212     1.000000
   20.1 Ag    1  3d2+         1.527212     1.000000
   21.1 Ag    1  3d0          2.503695     1.000000
   22.1 Ag    1  3d2+         2.503695     1.000000
   23.1 Ag    1  5g0          0.402576     1.000000
   24.1 Ag    1  5g4+         0.402576     1.000000
   25.1 Ag    1  5g2+         0.402576     1.000000
   26.1 Ag    1  5g0          1.597247     1.000000
   27.1 Ag    1  5g4+         1.597247     1.000000
   28.1 Ag    1  5g2+         1.597247     1.000000
   29.1 Ag    1  5g0          3.520886     1.000000
   30.1 Ag    1  5g4+         3.520886     1.000000
   31.1 Ag    1  5g2+         3.520886     1.000000
    1.2 B3u   1  2px         84.914002     0.000093    0.000020    0.000019   -0.000257    0.000271    0.000000
    2.2 B3u                  42.855051    -0.000836   -0.000049    0.000138    0.001725   -0.001902    0.000000
    3.2 B3u                  21.700131     0.008679   -0.000761   -0.004622   -0.012646    0.015412    0.000000
    4.2 B3u                  12.214690    -0.011178   -0.000575    0.004465    0.029062   -0.037586    0.000000
    5.2 B3u                   8.319164    -0.077767    0.018284    0.065760    0.058979   -0.124536    0.000000
    6.2 B3u                   4.091071    -0.006113   -0.005943   -0.018927    0.030806    0.040812    0.000000
                              2.286543     0.271828   -0.043212   -0.222524   -0.524373    1.343823    0.000000
                              1.159810     0.459585   -0.112513   -0.523890   -0.720968   -0.269411    0.000000
                              0.591343     0.315900   -0.052073   -0.071277    1.023204   -3.729590    0.000000
                              0.312862     0.071683   -0.092263    0.812712    1.973874    5.884983    0.000000
                              0.184828     0.010541    0.243946    0.625498   -2.805092   -3.113853    0.000000
                              0.068590     0.000045    0.413101   -0.812189    0.607954   -0.256973    0.000000
                              0.026791    -0.000837    0.543985   -0.185796    0.447653    0.710733    1.000000
    7.2 B3u   1  2px          1.270037     1.000000
    8.2 B3u   1  2px          4.415783     1.000000
    9.2 B3u   1  4f1+         0.193613     1.000000
   10.2 B3u   1  4f3+         0.193613     1.000000
   11.2 B3u   1  4f1+         0.675430     1.000000
   12.2 B3u   1  4f3+         0.675430     1.000000
   13.2 B3u   1  4f1+         2.356279     1.000000
   14.2 B3u   1  4f3+         2.356279     1.000000
   15.2 B3u   1  4f1+         3.304687     1.000000
   16.2 B3u   1  4f3+         3.304687     1.000000
   17.2 B3u   1  6h1+         0.848174     1.000000
   18.2 B3u   1  6h3+         0.848174     1.000000
   19.2 B3u   1  6h5+         0.848174     1.000000
   20.2 B3u   1  6h1+         2.900797     1.000000
   21.2 B3u   1  6h3+         2.900797     1.000000
   22.2 B3u   1  6h5+         2.900797     1.000000
    1.3 B2u   1  2py         84.914002     0.000093    0.000020    0.000019   -0.000257    0.000271    0.000000
    2.3 B2u                  42.855051    -0.000836   -0.000049    0.000138    0.001725   -0.001902    0.000000
    3.3 B2u                  21.700131     0.008679   -0.000761   -0.004622   -0.012646    0.015412    0.000000
    4.3 B2u                  12.214690    -0.011178   -0.000575    0.004465    0.029062   -0.037586    0.000000
    5.3 B2u                   8.319164    -0.077767    0.018284    0.065760    0.058979   -0.124536    0.000000
    6.3 B2u                   4.091071    -0.006113   -0.005943   -0.018927    0.030806    0.040812    0.000000
                              2.286543     0.271828   -0.043212   -0.222524   -0.524373    1.343823    0.000000
                              1.159810     0.459585   -0.112513   -0.523890   -0.720968   -0.269411    0.000000
                              0.591343     0.315900   -0.052073   -0.071277    1.023204   -3.729590    0.000000
                              0.312862     0.071683   -0.092263    0.812712    1.973874    5.884983    0.000000
                              0.184828     0.010541    0.243946    0.625498   -2.805092   -3.113853    0.000000
                              0.068590     0.000045    0.413101   -0.812189    0.607954   -0.256973    0.000000
                              0.026791    -0.000837    0.543985   -0.185796    0.447653    0.710733    1.000000
    7.3 B2u   1  2py          1.270037     1.000000
    8.3 B2u   1  2py          4.415783     1.000000
    9.3 B2u   1  4f1-         0.193613     1.000000
   10.3 B2u   1  4f3-         0.193613     1.000000
   11.3 B2u   1  4f1-         0.675430     1.000000
   12.3 B2u   1  4f3-         0.675430     1.000000
   13.3 B2u   1  4f1-         2.356279     1.000000
   14.3 B2u   1  4f3-         2.356279     1.000000
   15.3 B2u   1  4f1-         3.304687     1.000000
   16.3 B2u   1  4f3-         3.304687     1.000000
   17.3 B2u   1  6h1-         0.848174     1.000000
   18.3 B2u   1  6h3-         0.848174     1.000000
   19.3 B2u   1  6h5-         0.848174     1.000000
   20.3 B2u   1  6h1-         2.900797     1.000000
   21.3 B2u   1  6h3-         2.900797     1.000000
   22.3 B2u   1  6h5-         2.900797     1.000000
    1.4 B1g   1  3d2-        77.434559     0.000022   -0.000025    0.000010    0.000011    0.000000
    2.4 B1g                  27.708477     0.004218   -0.004311    0.006187   -0.008026    0.000000
    3.4 B1g                  12.914284     0.030087   -0.030913    0.042630   -0.053875    0.000000
    4.4 B1g                   6.062674     0.084821   -0.088049    0.127524   -0.168795    0.000000
    5.4 B1g                   2.863898     0.171110   -0.178330    0.248289   -0.312344    0.000000
                              1.386559     0.247451   -0.234335    0.259761   -0.172031    0.000000
                              0.677058     0.277310   -0.195775   -0.070794    0.587633    0.000000
                              0.329864     0.261077    0.065872   -0.519396    0.528592    0.000000
                              0.159474     0.190336    0.330536   -0.373658   -0.859644    0.000000
                              0.076174     0.119385    0.461229    0.455067   -0.273831    0.000000
                              0.028570     0.031297    0.184273    0.489586    0.802754    1.000000
    6.4 B1g   1  3d2-         1.527212     1.000000
    7.4 B1g   1  3d2-         2.503695     1.000000
    8.4 B1g   1  5g2-         0.402576     1.000000
    9.4 B1g   1  5g4-         0.402576     1.000000
   10.4 B1g   1  5g2-         1.597247     1.000000
   11.4 B1g   1  5g4-         1.597247     1.000000
   12.4 B1g   1  5g2-         3.520886     1.000000
   13.4 B1g   1  5g4-         3.520886     1.000000
    1.5 B1u   1  2pz         84.914002     0.000093    0.000020    0.000019   -0.000257    0.000271    0.000000
    2.5 B1u                  42.855051    -0.000836   -0.000049    0.000138    0.001725   -0.001902    0.000000
    3.5 B1u                  21.700131     0.008679   -0.000761   -0.004622   -0.012646    0.015412    0.000000
    4.5 B1u                  12.214690    -0.011178   -0.000575    0.004465    0.029062   -0.037586    0.000000
    5.5 B1u                   8.319164    -0.077767    0.018284    0.065760    0.058979   -0.124536    0.000000
    6.5 B1u                   4.091071    -0.006113   -0.005943   -0.018927    0.030806    0.040812    0.000000
                              2.286543     0.271828   -0.043212   -0.222524   -0.524373    1.343823    0.000000
                              1.159810     0.459585   -0.112513   -0.523890   -0.720968   -0.269411    0.000000
                              0.591343     0.315900   -0.052073   -0.071277    1.023204   -3.729590    0.000000
                              0.312862     0.071683   -0.092263    0.812712    1.973874    5.884983    0.000000
                              0.184828     0.010541    0.243946    0.625498   -2.805092   -3.113853    0.000000
                              0.068590     0.000045    0.413101   -0.812189    0.607954   -0.256973    0.000000
                              0.026791    -0.000837    0.543985   -0.185796    0.447653    0.710733    1.000000
    7.5 B1u   1  2pz          1.270037     1.000000
    8.5 B1u   1  2pz          4.415783     1.000000
    9.5 B1u   1  4f0          0.193613     1.000000
   10.5 B1u   1  4f2+         0.193613     1.000000
   11.5 B1u   1  4f0          0.675430     1.000000
   12.5 B1u   1  4f2+         0.675430     1.000000
   13.5 B1u   1  4f0          2.356279     1.000000
   14.5 B1u   1  4f2+         2.356279     1.000000
   15.5 B1u   1  4f0          3.304687     1.000000
   16.5 B1u   1  4f2+         3.304687     1.000000
   17.5 B1u   1  6h2+         0.848174     1.000000
   18.5 B1u   1  6h4+         0.848174     1.000000
   19.5 B1u   1  6h0          0.848174     1.000000
   20.5 B1u   1  6h2+         2.900797     1.000000
   21.5 B1u   1  6h4+         2.900797     1.000000
   22.5 B1u   1  6h0          2.900797     1.000000
    1.6 B2g   1  3d1+        77.434559     0.000022   -0.000025    0.000010    0.000011    0.000000
    2.6 B2g                  27.708477     0.004218   -0.004311    0.006187   -0.008026    0.000000
    3.6 B2g                  12.914284     0.030087   -0.030913    0.042630   -0.053875    0.000000
    4.6 B2g                   6.062674     0.084821   -0.088049    0.127524   -0.168795    0.000000
    5.6 B2g                   2.863898     0.171110   -0.178330    0.248289   -0.312344    0.000000
                              1.386559     0.247451   -0.234335    0.259761   -0.172031    0.000000
                              0.677058     0.277310   -0.195775   -0.070794    0.587633    0.000000
                              0.329864     0.261077    0.065872   -0.519396    0.528592    0.000000
                              0.159474     0.190336    0.330536   -0.373658   -0.859644    0.000000
                              0.076174     0.119385    0.461229    0.455067   -0.273831    0.000000
                              0.028570     0.031297    0.184273    0.489586    0.802754    1.000000
    6.6 B2g   1  3d1+         1.527212     1.000000
    7.6 B2g   1  3d1+         2.503695     1.000000
    8.6 B2g   1  5g1+         0.402576     1.000000
    9.6 B2g   1  5g3+         0.402576     1.000000
   10.6 B2g   1  5g1+         1.597247     1.000000
   11.6 B2g   1  5g3+         1.597247     1.000000
   12.6 B2g   1  5g1+         3.520886     1.000000
   13.6 B2g   1  5g3+         3.520886     1.000000
    1.7 B3g   1  3d1-        77.434559     0.000022   -0.000025    0.000010    0.000011    0.000000
    2.7 B3g                  27.708477     0.004218   -0.004311    0.006187   -0.008026    0.000000
    3.7 B3g                  12.914284     0.030087   -0.030913    0.042630   -0.053875    0.000000
    4.7 B3g                   6.062674     0.084821   -0.088049    0.127524   -0.168795    0.000000
    5.7 B3g                   2.863898     0.171110   -0.178330    0.248289   -0.312344    0.000000
                              1.386559     0.247451   -0.234335    0.259761   -0.172031    0.000000
                              0.677058     0.277310   -0.195775   -0.070794    0.587633    0.000000
                              0.329864     0.261077    0.065872   -0.519396    0.528592    0.000000
                              0.159474     0.190336    0.330536   -0.373658   -0.859644    0.000000
                              0.076174     0.119385    0.461229    0.455067   -0.273831    0.000000
                              0.028570     0.031297    0.184273    0.489586    0.802754    1.000000
    6.7 B3g   1  3d1-         1.527212     1.000000
    7.7 B3g   1  3d1-         2.503695     1.000000
    8.7 B3g   1  5g1-         0.402576     1.000000
    9.7 B3g   1  5g3-         0.402576     1.000000
   10.7 B3g   1  5g1-         1.597247     1.000000
   11.7 B3g   1  5g3-         1.597247     1.000000
   12.7 B3g   1  5g1-         3.520886     1.000000
   13.7 B3g   1  5g3-         3.520886     1.000000
    1.8 Au    1  4f2-         0.193613     1.000000
    2.8 Au    1  4f2-         0.675430     1.000000
    3.8 Au    1  4f2-         2.356279     1.000000
    4.8 Au    1  4f2-         3.304687     1.000000
    5.8 Au    1  6h4-         0.848174     1.000000
    6.8 Au    1  6h2-         0.848174     1.000000
    7.8 Au    1  6h4-         2.900797     1.000000
    8.8 Au    1  6h2-         2.900797     1.000000

 NUCLEAR CHARGE:                   12
 NUMBER OF PRIMITIVE AOS:         265
 NUMBER OF SYMMETRY AOS:          202
 NUMBER OF CONTRACTIONS:          144   (  31Ag  +  22B3u +  22B2u +  13B1g +  22B1u +  13B2g +  13B3g +   8Au  )
 NUMBER OF CORE ORBITALS:           4   (   1Ag  +   1B3u +   1B2u +   0B1g +   1B1u +   0B2g +   0B3g +   0Au  )
 NUMBER OF VALENCE ORBITALS:        6   (   3Ag  +   0B3u +   0B2u +   1B1g +   0B1u +   1B2g +   1B3g +   0Au  )


 NUCLEAR REPULSION ENERGY    0.00000000

 EXTRA SYMMETRY OF AOS IN SYMMETRY 1:   1 1 1 1 1 1 1 1 2 3   2 3 2 3 2 3 2 3 2 3   2 3 4 5 6 4 5 6 4 5   6
 EXTRA SYMMETRY OF AOS IN SYMMETRY 2:   1 1 1 1 1 1 1 1 2 3   2 3 2 3 2 3 4 5 6 4   5 6
 EXTRA SYMMETRY OF AOS IN SYMMETRY 3:   1 1 1 1 1 1 1 1 2 3   2 3 2 3 2 3 4 5 6 4   5 6
 EXTRA SYMMETRY OF AOS IN SYMMETRY 4:   1 1 1 1 1 1 1 2 3 2   3 2 3
 EXTRA SYMMETRY OF AOS IN SYMMETRY 5:   1 1 1 1 1 1 1 1 2 3   2 3 2 3 2 3 4 5 6 4   5 6
 EXTRA SYMMETRY OF AOS IN SYMMETRY 6:   1 1 1 1 1 1 1 2 3 2   3 2 3
 EXTRA SYMMETRY OF AOS IN SYMMETRY 7:   1 1 1 1 1 1 1 2 3 2   3 2 3
 EXTRA SYMMETRY OF AOS IN SYMMETRY 8:   1 1 1 1 2 3 2 3

 Eigenvalues of metric

         1 0.586E-04 0.512E-03 0.986E-02 0.986E-02 0.284E-01 0.284E-01 0.586E-01 0.586E-01
         2 0.128E-02 0.162E-01 0.439E-01 0.439E-01 0.189E+00 0.499E+00 0.499E+00 0.686E+00
         3 0.128E-02 0.162E-01 0.439E-01 0.439E-01 0.189E+00 0.499E+00 0.499E+00 0.686E+00
         4 0.986E-02 0.284E-01 0.586E-01 0.301E+00 0.301E+00 0.952E+00 0.952E+00 0.101E+01
         5 0.128E-02 0.162E-01 0.439E-01 0.439E-01 0.189E+00 0.499E+00 0.499E+00 0.686E+00
         6 0.986E-02 0.284E-01 0.586E-01 0.301E+00 0.301E+00 0.952E+00 0.952E+00 0.101E+01
         7 0.986E-02 0.284E-01 0.586E-01 0.301E+00 0.301E+00 0.952E+00 0.952E+00 0.101E+01
         8 0.439E-01 0.499E+00 0.686E+00 0.686E+00 0.125E+01 0.131E+01 0.131E+01 0.221E+01


 Contracted 2-electron integrals neglected if value below      1.0D-12
 AO integral compression algorithm  1   Integral accuracy      1.0D-12

     48.234 MB (compressed) written to integral file ( 51.7%)


 NUMBER OF SORTED TWO-ELECTRON INTEGRALS:    7063297.     BUFFER LENGTH:  32768
 NUMBER OF SEGMENTS:   1  SEGMENT LENGTH:    7063297      RECORD LENGTH: 524288

 Memory used in sort:       7.62 MW

 SORT1 READ    11599838. AND WROTE     4948094. INTEGRALS IN     15 RECORDS. CPU TIME:     0.38 SEC, REAL TIME:     0.53 SEC
 SORT2 READ     4948094. AND WROTE     7063297. INTEGRALS IN    184 RECORDS. CPU TIME:     0.28 SEC, REAL TIME:     0.55 SEC

 FILE SIZES:   FILE 1:    67.8 MBYTE,  FILE 4:    62.9 MBYTE,   TOTAL:    130.8 MBYTE

 OPERATOR DM      FOR CENTER  0  COORDINATES:    0.000000    0.000000    0.000000
 OPERATOR EKIN    FOR CENTER  0  COORDINATES:    0.000000    0.000000    0.000000
 OPERATOR POT     FOR CENTER  0  COORDINATES:    0.000000    0.000000    0.000000


 **********************************************************************************************************************************
 DATASETS  * FILE   NREC   LENGTH (MB)   RECORD NAMES
              1      20       48.35       500      610      700      900      950      970     1000      129      960     1100   
                                          VAR    BASINP    GEOM    SYMINP    ZMAT    AOBASIS   BASIS     P2S    ABASIS      S 
                                         1400     1410     1420     1200     1210     1080     1600     1650     1300     1700   
                                         EKIN       V       ECP      H0       H01     AOSYM     SMH    MOLCAS    ERIS     OPER   

 PROGRAMS   *        TOTAL       INT
 CPU TIMES  *         4.56      4.40
 REAL TIME  *         6.89 SEC
 DISK USED  *       131.09 MB      
 **********************************************************************************************************************************


 PROGRAM * RHF-SCF (OPEN SHELL)       Authors: W. Meyer, H.-J. Werner


 NUMBER OF ELECTRONS:       7+    5-    SPACE SYMMETRY=1    SPIN SYMMETRY: Triplet 
 CONVERGENCE THRESHOLDS:    1.00E-05 (Density)    1.00E-07 (Energy)
 MAX. NUMBER OF ITERATIONS:       60
 INTERPOLATION TYPE:            DIIS
 INTERPOLATION STEPS:              2 (START)      1 (STEP)
 LEVEL SHIFTS:                 -0.60 (CLOSED) -0.30 (OPEN) 


 Singly occupied orbitals:      3.1       4.1
 
 Extra symmetries of mos in symmetry 1:   1   1   3   2

   Atom=TI basis=ECP10MDF_GUESS    lmin=0  lmax=2

 Orbital guess generated from atomic densities. Full valence occupancy:    4   1   1   1   1   1   1   0


 Molecular orbital dump at record        4202.2

 ITERATION    DDIFF          GRAD             ENERGY        2-EL.EN.            DIPOLE MOMENTS         DIIS   ORB.
    1      0.000D+00      0.000D+00       -57.25054764     70.060290    0.00000    0.00000    0.00000    0    start
    2      0.000D+00      0.257D-01       -57.54372615     78.738774    0.00000    0.00000    0.00000    1    diag,B
    3      0.173D-01      0.146D-01       -57.57823189     78.815048    0.00000    0.00000    0.00000    2    diag,B
    4      0.511D-02      0.701D-02       -57.60439334     79.155904    0.00000    0.00000    0.00000    3    diag,B
    5      0.537D-02      0.197D-02       -57.60908212     79.272944    0.00000    0.00000    0.00000    4    diag,B
    6      0.248D-02      0.660D-03       -57.60956250     79.256392    0.00000    0.00000    0.00000    5    diag,B
    7      0.522D-02      0.355D-03       -57.60967445     79.182311    0.00000    0.00000    0.00000    6    fixocc
    8      0.303D-02      0.122D-03       -57.60969408     79.154597    0.00000    0.00000    0.00000    7    diag,B
    9      0.120D-02      0.619D-04       -57.60970022     79.142106    0.00000    0.00000    0.00000    8    diag,B
   10      0.232D-02      0.315D-04       -57.60970086     79.143575    0.00000    0.00000    0.00000    9    orth
   11      0.113D-02      0.886D-05       -57.60970089     79.142695    0.00000    0.00000    0.00000    9    diag,B
   12      0.221D-03      0.111D-05       -57.60970089     79.142807    0.00000    0.00000    0.00000    9    diag,B
   13      0.304D-04      0.373D-06       -57.60970089     79.142777    0.00000    0.00000    0.00000    9    diag,B
   14      0.247D-05      0.290D-07       -57.60970089     79.142779    0.00000    0.00000    0.00000    0    orth

 Final alpha occupancy:   4   1   1   0   1   0   0   0
 Final beta  occupancy:   2   1   1   0   1   0   0   0

 !RHF STATE 1.1 Energy                -57.609700890255
 Nuclear energy                         0.00000000
 One-electron energy                  -97.18109016
 Two-electron energy                   39.57138927
 Virial quotient                       -2.22719103
 !RHF STATE 1.1 Dipole moment           0.00000000     0.00000000     0.00000000
 Dipole moment /Debye                   0.00000000     0.00000000     0.00000000
 

 !RHF expec          <1.1|EKIN|1.1>    25.866528803720
 
 !RHF expec           <1.1|POT|1.1>   -10.954077963109

 ELECTRON ORBITALS
 =================


   Orb  Occ    Energy  Couls-En    Coefficients

                                   1 1s      1 1s      1 1s      1 1s      1 1s      1 1s      1 1s      1 1s      1 3d0     1 3d2+ 
                                   1 3d0     1 3d2+    1 3d0     1 3d2+    1 3d0     1 3d2+    1 3d0     1 3d2+    1 3d0     1 3d2+ 
                                   1 3d0     1 3d2+    1 5g0     1 5g4+    1 5g2+    1 5g0     1 5g4+    1 5g2+    1 5g0     1 5g4+ 
                                   1 5g2+ 

   1.1   2    -2.9280  -13.2772  0.999868 -0.000351 -0.000546  0.000091  0.000163  0.000668  0.000093 -0.000110 -0.000000 -0.000000
                                -0.000000  0.000000 -0.000000 -0.000000 -0.000000 -0.000000  0.000000  0.000000  0.000000  0.000000
                                -0.000000  0.000000  0.000989  0.000836  0.000000  0.000738  0.000623 -0.000000  0.000164  0.000138
                                 0.000000

   2.1   2    -0.2217   -3.7506 -0.000401  0.999304  0.001976 -0.000064 -0.000015  0.000814  0.000084 -0.000111 -0.000000  0.000000
                                 0.000000 -0.000000  0.000000  0.000000  0.000000  0.000000 -0.000000 -0.000000  0.000000 -0.000000
                                -0.000000  0.000000 -0.000269 -0.000227 -0.000000  0.000282  0.000238 -0.000000  0.000008  0.000007
                                -0.000000

   3.1   +    -0.4405   -7.5131 -0.000000 -0.000000 -0.000000 -0.000000  0.000000  0.000000 -0.000000  0.000000  0.007843  0.989120
                                -0.001271 -0.160229 -0.000101 -0.012766  0.000025  0.003204  0.000030  0.003791  0.000002  0.000227
                                 0.000000  0.000021  0.000025 -0.000029 -0.004836  0.000016 -0.000018 -0.003049  0.000003 -0.000004
                                -0.000599

   4.1   +    -0.4405   -7.5131 -0.000000 -0.000000 -0.000000 -0.000000  0.000000  0.000000 -0.000000  0.000000  0.989120 -0.007843
                                -0.160229  0.001271 -0.012766  0.000101  0.003204 -0.000025  0.003791 -0.000030  0.000227 -0.000002
                                 0.000021 -0.000000  0.003121 -0.003693  0.000038  0.001968 -0.002329  0.000024  0.000387 -0.000457
                                 0.000005

   5.1   0     0.0586   -1.5472 -1.062121 -5.634249 -1.807994 -0.848786  0.138453  6.462913 -1.146925  0.799034 -0.000000  0.000000
                                 0.000000  0.000000  0.000000  0.000000  0.000000 -0.000000  0.000000 -0.000000 -0.000000  0.000000
                                 0.000000 -0.000000 -0.000919 -0.000776 -0.000000 -0.000222 -0.000187 -0.000000  0.000105  0.000089
                                -0.000000

   6.1   0     0.0864   -1.4114  0.000000  0.000000  0.000000  0.000000 -0.000000 -0.000000  0.000000 -0.000000 -0.259901  0.000020
                                -0.375452  0.000030 -0.342957  0.000027 -0.157184  0.000012  1.538102 -0.000121  0.045947 -0.000004
                                -0.022013  0.000002 -0.000138  0.000163 -0.000000 -0.000125  0.000148 -0.000000 -0.000037  0.000044
                                -0.000000

                                   1 2px     1 2px     1 2px     1 2px     1 2px     1 2px     1 2px     1 2px     1 4f1+    1 4f3+ 
                                   1 4f1+    1 4f3+    1 4f1+    1 4f3+    1 4f1+    1 4f3+    1 6h1+    1 6h3+    1 6h5+    1 6h1+ 
                                   1 6h3+    1 6h5+ 

   1.2   2    -1.8097  -11.0229  1.003785  0.050778  0.031177  0.010303 -0.001761 -0.024469 -0.001783  0.000330 -0.001157  0.001494
                                -0.004315  0.005570 -0.001699  0.002194 -0.000650  0.000839 -0.000073 -0.000006 -0.000068 -0.000237
                                 0.000032 -0.000243

   2.2   0     0.0240   -2.1830 -0.045428  0.143492  0.068296 -0.051948 -0.019771  0.917592 -0.045813  0.005980 -0.002787  0.003598
                                -0.000956  0.001234  0.000136 -0.000175  0.000083 -0.000107  0.000060 -0.000020  0.000067 -0.000008
                                 0.000002 -0.000008

   3.2   0     0.1411   -2.1803  0.021026  3.436604 -0.545333  0.325412  0.115300 -3.658844  0.258441 -0.036154 -0.004495  0.005803
                                -0.001333  0.001721  0.000156 -0.000201  0.000155 -0.000201  0.000075 -0.000027  0.000085 -0.000007
                                 0.000002 -0.000008

                                   1 2py     1 2py     1 2py     1 2py     1 2py     1 2py     1 2py     1 2py     1 4f1-    1 4f3- 
                                   1 4f1-    1 4f3-    1 4f1-    1 4f3-    1 4f1-    1 4f3-    1 6h1-    1 6h3-    1 6h5-    1 6h1- 
                                   1 6h3-    1 6h5- 

   1.3   2    -1.8097  -11.0229  1.003785  0.050778  0.031177  0.010303 -0.001761 -0.024469 -0.001783  0.000330 -0.001157 -0.001494
                                -0.004315 -0.005570 -0.001699 -0.002194 -0.000650 -0.000839 -0.000073  0.000006 -0.000068 -0.000237
                                -0.000032 -0.000243

   2.3   0     0.0240   -2.1830 -0.045428  0.143492  0.068296 -0.051948 -0.019771  0.917592 -0.045813  0.005980 -0.002787 -0.003598
                                -0.000956 -0.001234  0.000136  0.000175  0.000083  0.000107  0.000060  0.000020  0.000067 -0.000008
                                -0.000002 -0.000008

   3.3   0     0.1411   -2.1803  0.021026  3.436604 -0.545333  0.325412  0.115300 -3.658844  0.258441 -0.036154 -0.004495 -0.005803
                                -0.001333 -0.001721  0.000156  0.000201  0.000155  0.000201  0.000075  0.000027  0.000085 -0.000007
                                -0.000002 -0.000008

                                   1 3d2-    1 3d2-    1 3d2-    1 3d2-    1 3d2-    1 3d2-    1 3d2-    1 5g2-    1 5g4-    1 5g2- 
                                   1 5g4-    1 5g2-    1 5g4- 

   1.4   0     0.0784   -1.9026  0.145987 -0.226901 -0.248048 -0.118126  1.275794  0.036397 -0.017576 -0.000768  0.000000 -0.000381
                                 0.000000 -0.000059  0.000000

   2.4   0     0.1466   -4.5909  1.140621  0.813419  0.529307  0.215332 -1.334778 -0.053501  0.024714 -0.002126  0.000000 -0.001093
                                 0.000000 -0.000190 -0.000000

                                   1 2pz     1 2pz     1 2pz     1 2pz     1 2pz     1 2pz     1 2pz     1 2pz     1 4f0     1 4f2+ 
                                   1 4f0     1 4f2+    1 4f0     1 4f2+    1 4f0     1 4f2+    1 6h2+    1 6h4+    1 6h0     1 6h2+ 
                                   1 6h4+    1 6h0  

   1.5   2    -1.8097  -11.0229  1.003785  0.050778  0.031177  0.010303 -0.001761 -0.024469 -0.001783  0.000330  0.001889  0.000000
                                 0.007046 -0.000000  0.002775  0.000000  0.001061 -0.000000 -0.000000 -0.000060 -0.000080 -0.000000
                                -0.000158 -0.000302

   2.5   0     0.0240   -2.1830 -0.045428  0.143492  0.068296 -0.051948 -0.019771  0.917592 -0.045813  0.005980  0.004551  0.000000
                                 0.001561  0.000000 -0.000222 -0.000000 -0.000136  0.000000  0.000000  0.000032  0.000087 -0.000000
                                -0.000005 -0.000011

   3.5   0     0.1411   -2.1803  0.021026  3.436604 -0.545333  0.325412  0.115300 -3.658844  0.258441 -0.036154  0.007340 -0.000000
                                 0.002177 -0.000000 -0.000255 -0.000000 -0.000254 -0.000000 -0.000000  0.000039  0.000110  0.000000
                                -0.000004 -0.000010

                                   1 3d1+    1 3d1+    1 3d1+    1 3d1+    1 3d1+    1 3d1+    1 3d1+    1 5g1+    1 5g3+    1 5g1+ 
                                   1 5g3+    1 5g1+    1 5g3+ 

   1.6   0     0.0784   -1.9026  0.145987 -0.226901 -0.248048 -0.118126  1.275794  0.036397 -0.017576  0.000272  0.000718  0.000135
                                 0.000356  0.000021  0.000055

   2.6   0     0.1466   -4.5909  1.140621  0.813419  0.529307  0.215332 -1.334778 -0.053501  0.024714  0.000752  0.001989  0.000386
                                 0.001023  0.000067  0.000177

                                   1 3d1-    1 3d1-    1 3d1-    1 3d1-    1 3d1-    1 3d1-    1 3d1-    1 5g1-    1 5g3-    1 5g1- 
                                   1 5g3-    1 5g1-    1 5g3- 

   1.7   0     0.0784   -1.9026  0.145987 -0.226901 -0.248048 -0.118126  1.275794  0.036397 -0.017576  0.000272 -0.000718  0.000135
                                -0.000356  0.000021 -0.000055

   2.7   0     0.1466   -4.5909  1.140621  0.813419  0.529307  0.215332 -1.334778 -0.053501  0.024714  0.000752 -0.001989  0.000386
                                -0.001023  0.000067 -0.000177

                                   1 4f2-    1 4f2-    1 4f2-    1 4f2-    1 6h4-    1 6h2-    1 6h4-    1 6h2- 

   1.8   0     0.6949   -2.2405  1.018956 -0.049264  0.046372 -0.024314  0.000000  0.000000 -0.000000  0.000000

   2.8   0     2.2939   -1.4953 -0.462861  1.135644 -0.141259  0.144728 -0.000000  0.000000 -0.000000 -0.000000

 HOMO      4.1    -0.440474 =     -11.9859eV
 LUMO      2.2     0.023968 =       0.6522eV
 LUMO-HOMO         0.464441 =      12.6381eV


 **********************************************************************************************************************************
 DATASETS  * FILE   NREC   LENGTH (MB)   RECORD NAMES
              1      20       48.35       500      610      700      900      950      970     1000      129      960     1100   
                                          VAR    BASINP    GEOM    SYMINP    ZMAT    AOBASIS   BASIS     P2S    ABASIS      S 
                                         1400     1410     1420     1200     1210     1080     1600     1650     1300     1700   
                                         EKIN       V       ECP      H0       H01     AOSYM     SMH    MOLCAS    ERIS     OPER   

              2       4        2.86       700     1000      520     4202   
                                         GEOM     BASIS   MCVARS     RHF  

 PROGRAMS   *        TOTAL       RHF       INT
 CPU TIMES  *         5.25      0.69      4.40
 REAL TIME  *         7.89 SEC
 DISK USED  *       131.09 MB      
 **********************************************************************************************************************************


 PROGRAM * POP (Mulliken population analysis)

 
 Density matrix read from record         4202.2  Type=RHF/CHARGE (state 1.1)
 
 Population analysis by basis function type

 Unique atom        s        p        d        f        g    Total    Charge
   1  TI      3.99999  5.99939  1.99991  0.00061  0.00010 12.00000  - 0.00000


 **********************************************************************************************************************************
 DATASETS  * FILE   NREC   LENGTH (MB)   RECORD NAMES
              1      20       48.35       500      610      700      900      950      970     1000      129      960     1100   
                                          VAR    BASINP    GEOM    SYMINP    ZMAT    AOBASIS   BASIS     P2S    ABASIS      S 
                                         1400     1410     1420     1200     1210     1080     1600     1650     1300     1700   
                                         EKIN       V       ECP      H0       H01     AOSYM     SMH    MOLCAS    ERIS     OPER   

              2       4        2.86       700     1000      520     4202   
                                         GEOM     BASIS   MCVARS     RHF  

 PROGRAMS   *        TOTAL       POP       RHF       INT
 CPU TIMES  *         5.26      0.00      0.69      4.40
 REAL TIME  *         7.94 SEC
 DISK USED  *       131.09 MB      
 **********************************************************************************************************************************


 PROGRAM * MULTI (Direct Multiconfiguration SCF)       Authors: P.J. Knowles, H.-J. Werner (1984)     S.T. Elbert (1988)


 Number of closed-shell orbitals:   5 (   2   1   1   0   1   0   0   0 )
 Number of active  orbitals:        5 (   2   0   0   1   0   1   1   0 )
 Number of external orbitals:     134 (  27  21  21  12  21  12  12   8 )

 State symmetry 1

 Number of electrons:     2    Spin symmetry=Triplet   Space symmetry=1
 Number of states:        1
 Number of CSFs:          1   (1 determinants, 10 intermediate states)

 State symmetry 2

 Number of electrons:     2    Spin symmetry=Triplet   Space symmetry=4
 Number of states:        3
 Number of CSFs:          3   (3 determinants, 10 intermediate states)

 State symmetry 3

 Number of electrons:     2    Spin symmetry=Triplet   Space symmetry=6
 Number of states:        3
 Number of CSFs:          3   (3 determinants, 10 intermediate states)

 State symmetry 4

 Number of electrons:     2    Spin symmetry=Triplet   Space symmetry=7
 Number of states:        3
 Number of CSFs:          3   (3 determinants, 10 intermediate states)

 Molecular orbitals read from record     4202.2  Type=RHF/CANONICAL (state 1.1)
 *** IN SYMMETRY 1 ORBITAL  1 SYMMETRY CONTAMINATION OF 0.347D-02 HAS BEEN REMOVED
 *** IN SYMMETRY 1 ORBITAL  2 SYMMETRY CONTAMINATION OF 0.103D-02 HAS BEEN REMOVED
 *** IN SYMMETRY 1 ORBITAL  3 SYMMETRY CONTAMINATION OF 0.150D-01 HAS BEEN REMOVED
 *** IN SYMMETRY 1 ORBITAL  4 SYMMETRY CONTAMINATION OF 0.179D-01 HAS BEEN REMOVED

 EXTRA SYMMETRY OF MOS IN SYMMETRY 1:   1 1 3 2 1 2 3 2 3 1   2 3 1 4 6 5 2 3 1 4   5 6 2 3 1 3 2 4 6 5   1
 *** IN SYMMETRY 2 ORBITAL  1 SYMMETRY CONTAMINATION OF 0.163D-01 HAS BEEN REMOVED
 EXTRA SYMMETRY OF MOS IN SYMMETRY 2:   1 1 1 1 3 2 1 3 2 1   5 6 4 3 2 1 3 2 5 6   4 1
 *** IN SYMMETRY 3 ORBITAL  1 SYMMETRY CONTAMINATION OF 0.163D-01 HAS BEEN REMOVED
 EXTRA SYMMETRY OF MOS IN SYMMETRY 3:   1 1 1 1 3 2 1 3 2 1   5 6 4 3 2 1 3 2 5 6   4 1
 *** IN SYMMETRY 4 ORBITAL  1 SYMMETRY CONTAMINATION OF 0.583D-03 HAS BEEN REMOVED
 EXTRA SYMMETRY OF MOS IN SYMMETRY 4:   1 1 1 1 3 2 1 3 2 1   1 2 3
 *** IN SYMMETRY 5 ORBITAL  1 SYMMETRY CONTAMINATION OF 0.118D-01 HAS BEEN REMOVED
 EXTRA SYMMETRY OF MOS IN SYMMETRY 5:   1 1 1 1 2 3 1 2 3 1   5 4 6 2 3 1 2 3 5 4   6 1
 *** IN SYMMETRY 6 ORBITAL  1 SYMMETRY CONTAMINATION OF 0.752D-03 HAS BEEN REMOVED
 EXTRA SYMMETRY OF MOS IN SYMMETRY 6:   1 1 1 1 2 3 1 2 3 1   1 3 2
 *** IN SYMMETRY 7 ORBITAL  1 SYMMETRY CONTAMINATION OF 0.752D-03 HAS BEEN REMOVED
 EXTRA SYMMETRY OF MOS IN SYMMETRY 7:   1 1 1 1 2 3 1 2 3 1   1 3 2
 EXTRA SYMMETRY OF MOS IN SYMMETRY 8:   1 1 3 2 1 1 3 2

 Wavefunction dump at record             5202.2

 Convergence thresholds  0.10E-01 (gradient)  0.10E-05 (energy)  0.10E-02 (step length)

 Weight factors for state symmetry  1:    0.10000
 Weight factors for state symmetry  2:    0.10000   0.10000   0.10000
 Weight factors for state symmetry  3:    0.10000   0.10000   0.10000
 Weight factors for state symmetry  4:    0.10000   0.10000   0.10000

 Number of orbital rotations:      211   (     4 Core/Active    117 Core/Virtual   0 Active/Active     90 Active/Virtual)
 Total number of variables:        239


 ITER. MIC  NCI  NEG     ENERGY(VAR)     ENERGY(PROJ)   ENERGY CHANGE     GRAD(0)  GRAD(ORB)   GRAD(CI)     STEP       TIME

   1   57   16    3     -57.08920431     -57.68064552   -0.59144121    0.56931850 0.00000000 0.00000000  0.16D+01      0.18
   2   15   20    0     -57.54902972     -57.58822757   -0.03919785    0.38524014 0.00000583 0.00000000  0.23D+00      0.29
   3   21   20    0     -57.58955588     -57.58971709   -0.00016122    0.01728286 0.00000000 0.00000000  0.15D-01      0.38
   4   28   24    0     -57.58971773     -57.58971774   -0.00000001    0.00008704 0.00000000 0.00000000  0.99D-04      0.48
   5   25   20    0     -57.58971774     -57.58971774    0.00000000    0.00000000 0.00000000 0.00000000  0.39D-08      0.58

 ** WVFN ****  CONVERGENCE REACHED, FINAL GRADIENT:  0.24D-12



 Results for state 1.1
 =====================

 !MCSCF STATE 1.1 Energy              -57.607110397537
 Nuclear energy                         0.00000000
 Kinetic energy                        25.80148815
 One electron energy                  -97.14746749
 Two electron energy                   39.54035710
 Virial ratio                           3.23270495

 !MCSCF STATE 1.1 Dipole moment         0.00000000     0.00000000     0.00000000
 Dipole moment /Debye                   0.00000000     0.00000000     0.00000000



 Results for state 1.4
 =====================

 !MCSCF STATE 1.4 Energy              -57.607110397537
 Nuclear energy                         0.00000000
 Kinetic energy                        25.80148815
 One electron energy                  -97.14746749
 Two electron energy                   39.54035710
 Virial ratio                           3.23270495

 !MCSCF STATE 1.4 Dipole moment         0.00000000     0.00000000     0.00000000
 Dipole moment /Debye                   0.00000000     0.00000000     0.00000000

 Results for state 2.4
 =====================

 !MCSCF STATE 2.4 Energy              -57.607110397537
 Nuclear energy                         0.00000000
 Kinetic energy                        25.80148815
 One electron energy                  -97.14746749
 Two electron energy                   39.54035710
 Virial ratio                           3.23270495

 !MCSCF STATE 2.4 Dipole moment         0.00000000     0.00000000     0.00000000
 Dipole moment /Debye                   0.00000000     0.00000000     0.00000000

 Results for state 3.4
 =====================

 !MCSCF STATE 3.4 Energy              -57.549134859738
 Nuclear energy                         0.00000000
 Kinetic energy                        25.80148815
 One electron energy                  -97.14746749
 Two electron energy                   39.59833263
 Virial ratio                           3.23045797

 !MCSCF STATE 3.4 Dipole moment         0.00000000     0.00000000     0.00000000
 Dipole moment /Debye                   0.00000000     0.00000000     0.00000000



 Results for state 1.6
 =====================

 !MCSCF STATE 1.6 Energy              -57.607110397537
 Nuclear energy                         0.00000000
 Kinetic energy                        25.80148815
 One electron energy                  -97.14746749
 Two electron energy                   39.54035710
 Virial ratio                           3.23270495

 !MCSCF STATE 1.6 Dipole moment         0.00000000     0.00000000     0.00000000
 Dipole moment /Debye                   0.00000000     0.00000000     0.00000000

 Results for state 2.6
 =====================

 !MCSCF STATE 2.6 Energy              -57.607110397536
 Nuclear energy                         0.00000000
 Kinetic energy                        25.80148815
 One electron energy                  -97.14746749
 Two electron energy                   39.54035710
 Virial ratio                           3.23270495

 !MCSCF STATE 2.6 Dipole moment         0.00000000     0.00000000     0.00000000
 Dipole moment /Debye                   0.00000000     0.00000000     0.00000000

 Results for state 3.6
 =====================

 !MCSCF STATE 3.6 Energy              -57.549134859738
 Nuclear energy                         0.00000000
 Kinetic energy                        25.80148815
 One electron energy                  -97.14746749
 Two electron energy                   39.59833263
 Virial ratio                           3.23045797

 !MCSCF STATE 3.6 Dipole moment         0.00000000     0.00000000     0.00000000
 Dipole moment /Debye                   0.00000000     0.00000000     0.00000000



 Results for state 1.7
 =====================

 !MCSCF STATE 1.7 Energy              -57.607110397537
 Nuclear energy                         0.00000000
 Kinetic energy                        25.80148815
 One electron energy                  -97.14746749
 Two electron energy                   39.54035710
 Virial ratio                           3.23270495

 !MCSCF STATE 1.7 Dipole moment         0.00000000     0.00000000     0.00000000
 Dipole moment /Debye                   0.00000000     0.00000000     0.00000000

 Results for state 2.7
 =====================

 !MCSCF STATE 2.7 Energy              -57.607110397536
 Nuclear energy                         0.00000000
 Kinetic energy                        25.80148815
 One electron energy                  -97.14746749
 Two electron energy                   39.54035710
 Virial ratio                           3.23270495

 !MCSCF STATE 2.7 Dipole moment         0.00000000     0.00000000     0.00000000
 Dipole moment /Debye                   0.00000000     0.00000000     0.00000000

 Results for state 3.7
 =====================

 !MCSCF STATE 3.7 Energy              -57.549134859738
 Nuclear energy                         0.00000000
 Kinetic energy                        25.80148815
 One electron energy                  -97.14746749
 Two electron energy                   39.59833263
 Virial ratio                           3.23045797

 !MCSCF STATE 3.7 Dipole moment         0.00000000     0.00000000     0.00000000
 Dipole moment /Debye                   0.00000000     0.00000000     0.00000000

 State-averaged charge density matrix saved on record  5202.2 (density set 1)

 !MCSCF expec        <1.1|EKIN|1.1>    25.801488147017
 !MCSCF expec        <1.4|EKIN|1.4>    25.801488147019
 !MCSCF expec        <2.4|EKIN|2.4>    25.801488147017
 !MCSCF expec        <3.4|EKIN|3.4>    25.801488147017
 !MCSCF expec        <1.6|EKIN|1.6>    25.801488147018
 !MCSCF expec        <2.6|EKIN|2.6>    25.801488147018
 !MCSCF expec        <3.6|EKIN|3.6>    25.801488147018
 !MCSCF expec        <1.7|EKIN|1.7>    25.801488147018
 !MCSCF expec        <2.7|EKIN|2.7>    25.801488147018
 !MCSCF expec        <3.7|EKIN|3.7>    25.801488147018

 !MCSCF expec         <1.1|POT|1.1>   -10.946980450961
 !MCSCF expec         <1.4|POT|1.4>   -10.946980450961
 !MCSCF expec         <2.4|POT|2.4>   -10.946980450961
 !MCSCF expec         <3.4|POT|3.4>   -10.946980450961
 !MCSCF expec         <1.6|POT|1.6>   -10.946980450961
 !MCSCF expec         <2.6|POT|2.6>   -10.946980450961
 !MCSCF expec         <3.6|POT|3.6>   -10.946980450961
 !MCSCF expec         <1.7|POT|1.7>   -10.946980450961
 !MCSCF expec         <2.7|POT|2.7>   -10.946980450961
 !MCSCF expec         <3.7|POT|3.7>   -10.946980450961


 NATURAL ORBITALS (state averaged)
 =================================

   Orb     Occ        Energy       Coefficients

                                   1 1s      1 1s      1 1s      1 1s      1 1s      1 1s      1 1s      1 1s      1 3d0     1 3d2+ 
                                   1 3d0     1 3d2+    1 3d0     1 3d2+    1 3d0     1 3d2+    1 3d0     1 3d2+    1 3d0     1 3d2+ 
                                   1 3d0     1 3d2+    1 5g0     1 5g4+    1 5g2+    1 5g0     1 5g4+    1 5g2+    1 5g0     1 5g4+ 
                                   1 5g2+ 

   1.1  2.00000    -2.932569     0.999993  0.000017  0.000007  0.000005 -0.000002 -0.000020  0.000088 -0.000078  0.000000  0.000000
                                 0.000000  0.000000  0.000000  0.000000  0.000000  0.000000  0.000000  0.000000  0.000000  0.000000
                                 0.000000  0.000000  0.000000  0.000000  0.000000  0.000000  0.000000  0.000000  0.000000  0.000000
                                 0.000000

   2.1  2.00000    -0.222333    -0.000002  0.999857 -0.000061 -0.000036  0.000014  0.000162 -0.000267  0.000239  0.000000  0.000000
                                 0.000000  0.000000  0.000000  0.000000  0.000000  0.000000  0.000000  0.000000  0.000000  0.000000
                                 0.000000  0.000000  0.000000  0.000000  0.000000  0.000000  0.000000  0.000000  0.000000  0.000000
                                 0.000000

   3.1  0.40000     0.089730     0.000000  0.000000  0.000000  0.000000  0.000000  0.000000  0.000000  0.000000  0.990772  0.000000
                                -0.151582  0.000000 -0.014312  0.000000  0.001364  0.000000  0.004866  0.000000 -0.000289  0.000000
                                -0.000124  0.000000  0.000000  0.000000  0.000000  0.000000  0.000000  0.000000  0.000000  0.000000
                                 0.000000

   4.1  0.40000     0.089730     0.000000  0.000000  0.000000  0.000000  0.000000  0.000000  0.000000  0.000000  0.000000  0.990772
                                 0.000000 -0.151582  0.000000 -0.014312  0.000000  0.001364  0.000000  0.004866  0.000000 -0.000289
                                 0.000000 -0.000124  0.000000  0.000000  0.000000  0.000000  0.000000  0.000000  0.000000  0.000000
                                 0.000000

                                   1 2px     1 2px     1 2px     1 2px     1 2px     1 2px     1 2px     1 2px     1 4f1+    1 4f3+ 
                                   1 4f1+    1 4f3+    1 4f1+    1 4f3+    1 4f1+    1 4f3+    1 6h1+    1 6h3+    1 6h5+    1 6h1+ 
                                   1 6h3+    1 6h5+ 

   1.2  2.00000    -1.813411     1.003816  0.050148  0.030707  0.010125 -0.001722 -0.024162 -0.001780  0.000329  0.000000  0.000000
                                 0.000000  0.000000  0.000000  0.000000  0.000000  0.000000  0.000000  0.000000  0.000000  0.000000
                                 0.000000  0.000000

                                   1 2py     1 2py     1 2py     1 2py     1 2py     1 2py     1 2py     1 2py     1 4f1-    1 4f3- 
                                   1 4f1-    1 4f3-    1 4f1-    1 4f3-    1 4f1-    1 4f3-    1 6h1-    1 6h3-    1 6h5-    1 6h1- 
                                   1 6h3-    1 6h5- 

   1.3  2.00000    -1.813411     1.003816  0.050148  0.030707  0.010125 -0.001722 -0.024162 -0.001780  0.000329  0.000000  0.000000
                                 0.000000  0.000000  0.000000  0.000000  0.000000  0.000000  0.000000  0.000000  0.000000  0.000000
                                 0.000000  0.000000

                                   1 3d2-    1 3d2-    1 3d2-    1 3d2-    1 3d2-    1 3d2-    1 3d2-    1 5g2-    1 5g4-    1 5g2- 
                                   1 5g4-    1 5g2-    1 5g4- 

   1.4  0.40000     0.089730     0.990772 -0.151582 -0.014312  0.001364  0.004866 -0.000289 -0.000124  0.000000  0.000000  0.000000
                                 0.000000  0.000000  0.000000

                                   1 2pz     1 2pz     1 2pz     1 2pz     1 2pz     1 2pz     1 2pz     1 2pz     1 4f0     1 4f2+ 
                                   1 4f0     1 4f2+    1 4f0     1 4f2+    1 4f0     1 4f2+    1 6h2+    1 6h4+    1 6h0     1 6h2+ 
                                   1 6h4+    1 6h0  

   1.5  2.00000    -1.813411     1.003816  0.050148  0.030707  0.010125 -0.001722 -0.024162 -0.001780  0.000329  0.000000  0.000000
                                 0.000000  0.000000  0.000000  0.000000  0.000000  0.000000  0.000000  0.000000  0.000000  0.000000
                                 0.000000  0.000000

                                   1 3d1+    1 3d1+    1 3d1+    1 3d1+    1 3d1+    1 3d1+    1 3d1+    1 5g1+    1 5g3+    1 5g1+ 
                                   1 5g3+    1 5g1+    1 5g3+ 

   1.6  0.40000     0.089730     0.990772 -0.151582 -0.014312  0.001364  0.004866 -0.000289 -0.000124  0.000000  0.000000  0.000000
                                 0.000000  0.000000  0.000000

                                   1 3d1-    1 3d1-    1 3d1-    1 3d1-    1 3d1-    1 3d1-    1 3d1-    1 5g1-    1 5g3-    1 5g1- 
                                   1 5g3-    1 5g1-    1 5g3- 

   1.7  0.40000     0.089730     0.990772 -0.151582 -0.014312  0.001364  0.004866 -0.000289 -0.000124  0.000000  0.000000  0.000000
                                 0.000000  0.000000  0.000000
 

 EXTRA SYMMETRY OF MOS IN SYMMETRY 1:   1 1 2 3 1 2 3 1 3 2   2 3 1 5 6 4 2 3 1 5   4 6 2 3 1 3 2 4 5 6   1
 EXTRA SYMMETRY OF MOS IN SYMMETRY 2:   1 1 1 1 2 3 1 2 3 1   5 4 6 2 3 1 2 3 6 5   4 1
 EXTRA SYMMETRY OF MOS IN SYMMETRY 3:   1 1 1 1 2 3 1 2 3 1   5 4 6 2 3 1 2 3 6 5   4 1
 EXTRA SYMMETRY OF MOS IN SYMMETRY 4:   1 1 1 1 3 2 1 3 2 1   1 3 2
 EXTRA SYMMETRY OF MOS IN SYMMETRY 5:   1 1 1 1 2 3 1 2 3 1   4 6 5 3 2 1 2 3 6 4   5 1

 Natural orbital dump (state averaged) at molpro section  5202.2    (Orbital set 2)


 CI vector for state symmetry 1
 ==============================

 aa 0 0 0          1.0000000

 TOTAL ENERGIES                       -57.60711040

 CI vector for state symmetry 2
 ==============================

 a0 a 0 0          0.0000000   1.0000000   0.0000000
 0a a 0 0         -0.4472136   0.0000000   0.8944272
 00 0 a a          0.8944272   0.0000000   0.4472136

 TOTAL ENERGIES                       -57.60711040   -57.60711040   -57.54913486

 CI vector for state symmetry 3
 ==============================

 a0 0 a 0          0.0766802   0.6277899   0.7745967
 00 a 0 a          0.7682974   0.4579510  -0.4472136
 0a 0 a 0         -0.6354835   0.6294130  -0.4472136

 TOTAL ENERGIES                       -57.60711040   -57.60711040   -57.54913486

 CI vector for state symmetry 4
 ==============================

 a0 0 0 a          0.0762968  -0.6278366   0.7745967
 00 a a 0          0.7680176  -0.4584201  -0.4472136
 0a 0 0 a          0.6358677   0.6290248   0.4472136

 TOTAL ENERGIES                       -57.60711040   -57.60711040   -57.54913486



 **********************************************************************************************************************************
 DATASETS  * FILE   NREC   LENGTH (MB)   RECORD NAMES
              1      21       50.18       500      610      700      900      950      970     1000      129      960     1100   
                                          VAR    BASINP    GEOM    SYMINP    ZMAT    AOBASIS   BASIS     P2S    ABASIS      S 
                                         1400     1410     1420     1200     1210     1080     1600     1650     1300     1700   
                                         EKIN       V       ECP      H0       H01     AOSYM     SMH    MOLCAS    ERIS     OPER   
                                         1380   
                                         JKOP   

              2       5        5.47       700     1000      520     4202     5202   
                                         GEOM     BASIS   MCVARS     RHF     MCSCF   

 PROGRAMS   *        TOTAL     MULTI       POP       RHF       INT
 CPU TIMES  *         6.10      0.84      0.00      0.69      4.40
 REAL TIME  *        10.52 SEC
 DISK USED  *       131.09 MB      
 **********************************************************************************************************************************


 PROGRAM * RHF-SCF (OPEN SHELL)       Authors: W. Meyer, H.-J. Werner


 NUMBER OF ELECTRONS:       7+    5-    SPACE SYMMETRY=1    SPIN SYMMETRY: Triplet 
 CONVERGENCE THRESHOLDS:    1.00E-05 (Density)    1.00E-07 (Energy)
 MAX. NUMBER OF ITERATIONS:        0
 INTERPOLATION TYPE:            DIIS
 INTERPOLATION STEPS:              2 (START)      1 (STEP)
 LEVEL SHIFTS:                 -0.60 (CLOSED) -0.30 (OPEN) 


 Singly occupied orbitals:      3.1       4.1
 Molecular orbitals read from record     5202.2  Type=MCSCF/NATURAL (state averaged)

 Molecular orbital dump at record        2101.2

 ITERATION    DDIFF          GRAD             ENERGY        2-EL.EN.            DIPOLE MOMENTS         DIIS   ORB.
    1      0.000D+00      0.000D+00       -57.60711040     79.080714    0.00000    0.00000    0.00000    0    start

 Final alpha occupancy:   4   1   1   0   1   0   0   0
 Final beta  occupancy:   2   1   1   0   1   0   0   0

 !RHF STATE 1.1 Energy                -57.607110397536
 Nuclear energy                         0.00000000
 One-electron energy                  -97.14746749
 Two-electron energy                   39.54035710
 Virial quotient                       -2.23270495
 !RHF STATE 1.1 Dipole moment           0.00000000     0.00000000     0.00000000
 Dipole moment /Debye                   0.00000000     0.00000000     0.00000000
 

 !RHF expec          <1.1|EKIN|1.1>    25.801488147017
 
 !RHF expec           <1.1|POT|1.1>   -10.946980450961

 ELECTRON ORBITALS
 =================


   Orb  Occ    Energy  Couls-En    Coefficients

                                   1 1s      1 1s      1 1s      1 1s      1 1s      1 1s      1 1s      1 1s      1 3d0     1 3d2+ 
                                   1 3d0     1 3d2+    1 3d0     1 3d2+    1 3d0     1 3d2+    1 3d0     1 3d2+    1 3d0     1 3d2+ 
                                   1 3d0     1 3d2+    1 5g0     1 5g4+    1 5g2+    1 5g0     1 5g4+    1 5g2+    1 5g0     1 5g4+ 
                                   1 5g2+ 

   1.1   2    -2.9326  -13.2828  0.999993  0.000017  0.000007  0.000005 -0.000002 -0.000020  0.000088 -0.000078  0.000000  0.000000
                                 0.000000  0.000000  0.000000  0.000000  0.000000  0.000000  0.000000  0.000000  0.000000  0.000000
                                 0.000000  0.000000  0.000000  0.000000  0.000000  0.000000  0.000000  0.000000  0.000000  0.000000
                                 0.000000

   2.1   2    -0.2223   -3.7564 -0.000002  0.999857 -0.000061 -0.000036  0.000014  0.000162 -0.000267  0.000239  0.000000  0.000000
                                 0.000000  0.000000  0.000000  0.000000  0.000000  0.000000  0.000000  0.000000  0.000000  0.000000
                                 0.000000  0.000000  0.000000  0.000000  0.000000  0.000000  0.000000  0.000000  0.000000  0.000000
                                 0.000000

   3.1   +     0.0897   -6.9538  0.000000  0.000000  0.000000  0.000000  0.000000  0.000000  0.000000  0.000000  0.990772  0.000000
                                -0.151582  0.000000 -0.014312  0.000000  0.001364  0.000000  0.004866  0.000000 -0.000289  0.000000
                                -0.000124  0.000000  0.000000  0.000000  0.000000  0.000000  0.000000  0.000000  0.000000  0.000000
                                 0.000000

   4.1   +     0.0897   -6.9538  0.000000  0.000000  0.000000  0.000000  0.000000  0.000000  0.000000  0.000000  0.000000  0.990772
                                 0.000000 -0.151582  0.000000 -0.014312  0.000000  0.001364  0.000000  0.004866  0.000000 -0.000289
                                 0.000000 -0.000124  0.000000  0.000000  0.000000  0.000000  0.000000  0.000000  0.000000  0.000000
                                 0.000000

                                   1 2px     1 2px     1 2px     1 2px     1 2px     1 2px     1 2px     1 2px     1 4f1+    1 4f3+ 
                                   1 4f1+    1 4f3+    1 4f1+    1 4f3+    1 4f1+    1 4f3+    1 6h1+    1 6h3+    1 6h5+    1 6h1+ 
                                   1 6h3+    1 6h5+ 

   1.2   2    -1.8134  -11.0287  1.003816  0.050148  0.030707  0.010125 -0.001722 -0.024162 -0.001780  0.000329  0.000000  0.000000
                                 0.000000  0.000000  0.000000  0.000000  0.000000  0.000000  0.000000  0.000000  0.000000  0.000000
                                 0.000000  0.000000

                                   1 2py     1 2py     1 2py     1 2py     1 2py     1 2py     1 2py     1 2py     1 4f1-    1 4f3- 
                                   1 4f1-    1 4f3-    1 4f1-    1 4f3-    1 4f1-    1 4f3-    1 6h1-    1 6h3-    1 6h5-    1 6h1- 
                                   1 6h3-    1 6h5- 

   1.3   2    -1.8134  -11.0287  1.003816  0.050148  0.030707  0.010125 -0.001722 -0.024162 -0.001780  0.000329  0.000000  0.000000
                                 0.000000  0.000000  0.000000  0.000000  0.000000  0.000000  0.000000  0.000000  0.000000  0.000000
                                 0.000000  0.000000

                                   1 2pz     1 2pz     1 2pz     1 2pz     1 2pz     1 2pz     1 2pz     1 2pz     1 4f0     1 4f2+ 
                                   1 4f0     1 4f2+    1 4f0     1 4f2+    1 4f0     1 4f2+    1 6h2+    1 6h4+    1 6h0     1 6h2+ 
                                   1 6h4+    1 6h0  

   1.5   2    -1.8134  -11.0287  1.003816  0.050148  0.030707  0.010125 -0.001722 -0.024162 -0.001780  0.000329  0.000000  0.000000
                                 0.000000  0.000000  0.000000  0.000000  0.000000  0.000000  0.000000  0.000000  0.000000  0.000000
                                 0.000000  0.000000

 HOMO      4.1     0.089730 =       2.4417eV
 LUMO      2.2     0.025968 =       0.7066eV
 LUMO-HOMO        -0.063762 =      -1.7350eV


 **********************************************************************************************************************************
 DATASETS  * FILE   NREC   LENGTH (MB)   RECORD NAMES
              1      21       50.18       500      610      700      900      950      970     1000      129      960     1100   
                                          VAR    BASINP    GEOM    SYMINP    ZMAT    AOBASIS   BASIS     P2S    ABASIS      S 
                                         1400     1410     1420     1200     1210     1080     1600     1650     1300     1700   
                                         EKIN       V       ECP      H0       H01     AOSYM     SMH    MOLCAS    ERIS     OPER   
                                         1380   
                                         JKOP   

              2       6        8.20       700     1000      520     4202     5202     2101   
                                         GEOM     BASIS   MCVARS     RHF     MCSCF     RHF  

 PROGRAMS   *        TOTAL       RHF     MULTI       POP       RHF       INT
 CPU TIMES  *         6.17      0.06      0.84      0.00      0.69      4.40
 REAL TIME  *        10.69 SEC
 DISK USED  *       131.09 MB      
 **********************************************************************************************************************************
 SETTING SCF(I)         =       -57.60711040  AU                              
 SETTING _CC_NORM_MAX   =         2.00000000                                  


 PROGRAM * CI (Multireference internally contracted CI)     Authors: H.-J. Werner, P.J. Knowles, 1987


 Convergence thresholds:  THRVAR = 1.00D-08  THRDEN = 1.00D-06

 Number of optimized states:  1  Roots:   1
 Number of reference states:  1  Roots:   1

 Reference symmetry:                   1   Triplet 
 Number of electrons:                 12
 Maximum number of shells:             3
 Maximum number of spin couplings:     9

 Reference space:        1 conf        1 CSFs
 N elec internal:       21 conf       21 CSFs
 N-1 el internal:       47 conf       97 CSFs
 N-2 el internal:       26 conf      136 CSFs

 Number of electrons in valence space:                     12
 Maximum number of open shell orbitals in reference space:  2
 Maximum number of open shell orbitals in internal spaces:  6


 Number of closed-shell orbitals:   5 (   2   1   1   0   1   0   0   0 )
 Number of active  orbitals:        2 (   2   0   0   0   0   0   0   0 )
 Number of external orbitals:     137 (  27  21  21  13  21  13  13   8 )

 Molecular orbitals read from record     2101.2  Type=RHF/CANONICAL (state 1.1)

 Coulomb and exchange operators available. No transformation done.

 Number of p-space configurations:   1

 Reference wavefunction optimized for reference space (refopt=1)

 State     Reference Energy 
   1         -57.60711040

 Number of blocks in overlap matrix:    46   Smallest eigenvalue:  0.10D+01
 Number of N-2 electron functions:      46
 Number of N-1 electron functions:      97

 Number of internal configurations:                    6
 Number of singly external configurations:          2061
 Number of doubly external configurations:         57240
 Total number of contracted configurations:        59307
 Total number of uncontracted configurations:     167809

 Diagonal Coupling coefficients finished.               Storage:    7125 words, CPU-Time:      0.00 seconds.
 Energy denominators for pairs finished in 1 passes.    Storage:   49976 words, CPU-time:      0.00 seconds.

  ITER. STATE  ROOT     SQ.NORM     CORR.ENERGY   TOTAL ENERGY   ENERGY CHANGE       DEN1      VAR(S)    VAR(P)      TIME
    1     1     1     1.00000000     0.00000000   -57.60711040    -0.00000000    -0.49077095  0.25D-01  0.11D+00     0.02
    2     1     1     1.09276070    -0.40568661   -58.01279701    -0.40568661    -0.01098920  0.17D-02  0.22D-02     0.17
    3     1     1     1.08458658    -0.41617416   -58.02328456    -0.01048755    -0.00028501  0.21D-04  0.13D-03     0.32
    4     1     1     1.08425500    -0.41643608   -58.02354647    -0.00026192    -0.00003668  0.43D-05  0.22D-04     0.46
    5     1     1     1.08429200    -0.41646855   -58.02357895    -0.00003247    -0.00000237  0.56D-06  0.80D-06     0.62
    6     1     1     1.08437274    -0.41647115   -58.02358155    -0.00000260    -0.00000014  0.23D-07  0.42D-07     0.76
    7     1     1     1.08438165    -0.41647131   -58.02358171    -0.00000016    -0.00000001  0.78D-09  0.26D-08     0.91


 =====================================
 Analysis of CPU times by interactions
 =====================================

       I      S      P

 I   0.0%
 S   0.0%   4.4%
 P   2.2%   1.1%  15.4%

 Initialization:   1.1%
 Other:           75.8%

 Total CPU:        0.9 seconds
 =====================================



 Reference coefficients greater than 0.0500000
 =============================================
 22//222           0.9603044



 RESULTS FOR STATE 1.1
 =====================

 Coefficient of reference function:   C(0) = 0.96030440 (fixed)   0.96030440 (relaxed)

 Energy contributions of configuration classes

 CLASS          SQ.NORM        ECORR1        ECORR2
 +++++++++++++++++++++++++++++++++++++++++++++++++++
 Internals    0.00000000    0.00000000   -0.00000000
 Singles      0.01414183   -0.06220197   -0.06279487
 Pairs        0.07023982   -0.35426934   -0.35367644
 Total        1.08438165   -0.41647131   -0.41647131
 +++++++++++++++++++++++++++++++++++++++++++++++++++


 Reference energy                     -57.60711040
 Nuclear energy                         0.00000000
 Kinetic energy                        26.26481744
 One electron energy                  -96.98841953
 Two electron energy                   38.96483783
 Virial quotient                       -2.20917514
 Correlation energy                    -0.41647131
 !CI(SD) STATE 1.1 Energy             -58.023581705322

 Properties without orbital relaxation:

 !CI(SD) STATE 1.1 Dipole moment        0.00000000     0.00000000     0.00000000
 Dipole moment /Debye                   0.00000000     0.00000000     0.00000000

 Cluster corrected energies           -58.05872424 (Davidson, fixed reference)
 Cluster corrected energies           -58.05872424 (Davidson, relaxed reference)

 Cluster corrected energies           -58.05315769 (Pople, fixed reference)
 Cluster corrected energies           -58.05315769 (Pople, relaxed reference)

 

 !CI(SD) expec       <1.1|EKIN|1.1>    26.264817439470
 
 !CI(SD) expec        <1.1|POT|1.1>   -10.971378930129


 **********************************************************************************************************************************
 DATASETS  * FILE   NREC   LENGTH (MB)   RECORD NAMES
              1      21       50.18       500      610      700      900      950      970     1000      129      960     1100   
                                          VAR    BASINP    GEOM    SYMINP    ZMAT    AOBASIS   BASIS     P2S    ABASIS      S 
                                         1400     1410     1420     1200     1210     1080     1600     1650     1300     1700   
                                         EKIN       V       ECP      H0       H01     AOSYM     SMH    MOLCAS    ERIS     OPER   
                                         1380   
                                         JKOP   

              2       6        8.20       700     1000      520     4202     5202     2101   
                                         GEOM     BASIS   MCVARS     RHF     MCSCF     RHF  

 PROGRAMS   *        TOTAL        CI       RHF     MULTI       POP       RHF       INT
 CPU TIMES  *         7.12      0.95      0.06      0.84      0.00      0.69      4.40
 REAL TIME  *        12.45 SEC
 DISK USED  *       131.09 MB      
 **********************************************************************************************************************************
 SETTING POSTHF(I)      =       -58.02358171  AU                              
                                                                                                                                                                                                                                                                

        SCF            POSTHF        EKIN           POT
    -57.60711040   -58.02358171   26.26481744   -10.97137893
                                                  

 CI/USERDEF energy=    -58.023581705322

        CI              RHF-SCF         MULTI           RHF-SCF 
    -58.02358171    -57.60711040    -57.54913486    -57.60970089
 **********************************************************************************************************************************
 Variable memory released
