
 Primary working directories    : /global/cscratch1/sd/aannabe
 Secondary working directories  : /global/cscratch1/sd/aannabe
 Wavefunction directory         : /global/homes/a/aannabe/wfu/
 Main file repository           : /global/cscratch1/sd/aannabe/

 SHA1      : 2873118e99aab1bc19f5b6fc1784693c06d15c95
 NAME      : 2015.1.8
 ARCHNAME  : linux/x86_64
 FC        : /opt/cray/pe/craype/2.5.5/bin/ftn
 BLASLIB   : -Wl,-_start-group /opt/intel/compilers_and_libraries_2016.3.210/linux/mkl/lib/intel64/libmkl_intel_ilp64.a /opt/intel/compilers_and_libraries_2016.3.210/linux/mkl/lib/intel64/libmkl_intel_thread.a /opt/intel/compilers_and_libraries_2016.3.210/linux/mkl/lib/intel64/libmkl_core.a -Wl,-_end-group
 id        : lbl

 Nodes     nprocs
 nid00501     1

 Using customized tuning parameters: mindgm=8; mindgv=16; mindgc=4; mindgr=1; noblas=0; minvec=7
 default implementation of scratch files=df  

 ***,Ar
 memory,8,g
 gthresh,twoint=1.e-12
 
 gprint,basis,orbitals
 gexpec,ekin,pot
 
 angstrom
 geometry={
 1                                                                               ! Number of atoms
 Ar 0.0 0.0 0.0
 }
 
 basis={
 Including file /global/homes/a/aannabe/docs/accurate/ccECP_D2h/pps/Ar.pp
 Including file /global/homes/a/aannabe/docs/accurate/ccECP_D2h/basis/cc-pVnZ/Ar_tz.basis
 }
 
 {hf
 wf,8,1,0
 occ,1,1,1,0,1,0,0,0
                                                                                 !open,1.2
 closed,1,1,1,0,1,0,0,0
                                                                                 !sym,
 }
 scf(i)=energy
 
 _CC_NORM_MAX=2.0
 {fci
 maxit,100
 core
 }
 posthf(i)=energy
 
 table,scf,posthf,ekin,pot
 save,3.csv,new
 
 

 Variables initialized (889), CPU time= 0.00 sec
 Commands  initialized (702), CPU time= 0.01 sec, 572 directives.
 Default parameters read. Elapsed time= 0.18 sec

 Checking input...
 Passed
1


                                         ***  PROGRAM SYSTEM MOLPRO  ***
                                       Copyright, TTI GmbH Stuttgart, 2015
                                    Version 2015.1 linked Sep  7 2016 23:09:38


 **********************************************************************************************************************************
 LABEL *   Ar                                                                            
  64 bit serial version                                                                  DATE: 05-Nov-18          TIME: 13:40:55  
 **********************************************************************************************************************************

 SHA1:             2873118e99aab1bc19f5b6fc1784693c06d15c95
 **********************************************************************************************************************************

 THRESHOLDS:

 ZERO    =  1.00D-12  ONEINT  =  1.00D-12  TWOINT  =  1.00D-12  PREFAC  =  1.00D-14  LOCALI  =  1.00D-09  EORDER  =  1.00D-04
 ENERGY  =  0.00D+00  ETEST   =  0.00D+00  EDENS   =  0.00D+00  THRDEDEF=  1.00D-06  GRADIENT=  1.00D-02  STEP    =  1.00D-03
 ORBITAL =  1.00D-05  CIVEC   =  1.00D-05  COEFF   =  1.00D-04  PRINTCI =  5.00D-02  PUNCHCI =  9.90D+01  OPTGRAD =  3.00D-04
 OPTENERG=  1.00D-06  OPTSTEP =  3.00D-04  THRGRAD =  1.00D-10  COMPRESS=  1.00D-11  VARMIN  =  1.00D-07  VARMAX  =  1.00D-03
 THRDOUB =  0.00D+00  THRDIV  =  1.00D-05  THRRED  =  1.00D-07  THRPSP  =  1.00D+00  THRDC   =  1.00D-10  THRCS   =  1.00D-10
 THRNRM  =  1.00D-08  THREQ   =  0.00D+00  THRDE   =  1.00D+00  THRREF  =  1.00D-05  SPARFAC =  1.00D+00  THRDLP  =  1.00D-07
 THRDIA  =  1.00D-10  THRDLS  =  1.00D-07  THRGPS  =  0.00D+00  THRKEX  =  0.00D+00  THRDIS  =  2.00D-01  THRVAR  =  1.00D-10
 THRLOC  =  1.00D-06  THRGAP  =  1.00D-06  THRLOCT = -1.00D+00  THRGAPT = -1.00D+00  THRORB  =  1.00D-06  THRMLTP =  0.00D+00
 THRCPQCI=  1.00D-10  KEXTA   =  0.00D+00  THRCOARS=  0.00D+00  SYMTOL  =  1.00D-06  GRADTOL =  1.00D-06  THROVL  =  1.00D-08
 THRORTH =  1.00D-08  GRID    =  1.00D-06  GRIDMAX =  1.00D-03  DTMAX   =  0.00D+00  THROCCDE=  1.00D-01  THROCCDE=  1.00D-01



 ZUNIT=ANG
 

Geometry recognized as XYZ


 Variable memory set to 8000000000 words,  buffer space   230000 words

 SETTING BASIS          =    USERDEF


 Recomputing integrals since basis changed


 Using spherical harmonics



 PROGRAM * SEWARD (Integral evaluation for generally contracted gaussian basis sets)     Author: Roland Lindh, 1990

 Geometry written to block  1 of record 700

 Orientation using atomic masses  
 Molecule type: Atom
 Symmetry elements: X,Y,Z
 Rotational constants:       0.0000000      0.0000000      0.0000000 GHz  (calculated with average atomic masses)

 Point group  D2h 



 ATOMIC COORDINATES

 NR  ATOM    CHARGE       X              Y              Z

   1  AR      8.00    0.000000000    0.000000000    0.000000000


          AR  CORE POTENTIAL

          d POTENTIAL

 POWERS             1              3              2
 EXPONENTIALS   8.317181       13.12465       6.503132    
 COEFFICIENTS   8.000000       66.53745      -24.10039    

          s - d POTENTIAL

 POWERS             2              2
 EXPONENTIALS   27.06814       4.801263    
 COEFFICIENTS   18.91015       53.04001    

          p - d POTENTIAL

 POWERS             2              2
 EXPONENTIALS   11.13574       4.126631    
 COEFFICIENTS   8.015534       28.22021    


 BASIS DATA

   Nr Sym  Nuc  Type         Exponents   Contraction coefficients

    1.1 Ag    1  1s          17.798602     0.000155
                             10.185798     0.002011
                              5.829136     0.072819
                              3.335903    -0.297567
                              1.909073    -0.143663
                              1.092526     0.157775
                              0.625231     0.391895
                              0.357808     0.424724
                              0.204767     0.223240
                              0.117184     0.063299
    2.1 Ag    1  1s           1.218276     1.000000
    3.1 Ag    1  1s           0.225444     1.000000
    4.1 Ag    1  3d0          1.452494     1.000000
    5.1 Ag    1  3d2+         1.452494     1.000000
    6.1 Ag    1  3d0          0.444353     1.000000
    7.1 Ag    1  3d2+         0.444353     1.000000
    1.2 B3u   1  2px          7.610920    -0.008071
                              4.581784    -0.012332
                              2.758240    -0.061298
                              1.660464     0.101944
                              0.999601     0.172497
                              0.601761     0.288747
                              0.362261     0.247918
                              0.218082     0.231893
                              0.131285     0.095994
                              0.079034     0.046211
    2.2 B3u   1  2px          1.112833     1.000000
    3.2 B3u   1  2px          0.178044     1.000000
    4.2 B3u   1  4f1+         0.913483     1.000000
    5.2 B3u   1  4f3+         0.913483     1.000000
    1.3 B2u   1  2py          7.610920    -0.008071
                              4.581784    -0.012332
                              2.758240    -0.061298
                              1.660464     0.101944
                              0.999601     0.172497
                              0.601761     0.288747
                              0.362261     0.247918
                              0.218082     0.231893
                              0.131285     0.095994
                              0.079034     0.046211
    2.3 B2u   1  2py          1.112833     1.000000
    3.3 B2u   1  2py          0.178044     1.000000
    4.3 B2u   1  4f1-         0.913483     1.000000
    5.3 B2u   1  4f3-         0.913483     1.000000
    1.4 B1g   1  3d2-         1.452494     1.000000
    2.4 B1g   1  3d2-         0.444353     1.000000
    1.5 B1u   1  2pz          7.610920    -0.008071
                              4.581784    -0.012332
                              2.758240    -0.061298
                              1.660464     0.101944
                              0.999601     0.172497
                              0.601761     0.288747
                              0.362261     0.247918
                              0.218082     0.231893
                              0.131285     0.095994
                              0.079034     0.046211
    2.5 B1u   1  2pz          1.112833     1.000000
    3.5 B1u   1  2pz          0.178044     1.000000
    4.5 B1u   1  4f0          0.913483     1.000000
    5.5 B1u   1  4f2+         0.913483     1.000000
    1.6 B2g   1  3d1+         1.452494     1.000000
    2.6 B2g   1  3d1+         0.444353     1.000000
    1.7 B3g   1  3d1-         1.452494     1.000000
    2.7 B3g   1  3d1-         0.444353     1.000000
    1.8 Au    1  4f2-         0.913483     1.000000

 NUCLEAR CHARGE:                    8
 NUMBER OF PRIMITIVE AOS:          70
 NUMBER OF SYMMETRY AOS:           65
 NUMBER OF CONTRACTIONS:           29   (   7Ag  +   5B3u +   5B2u +   2B1g +   5B1u +   2B2g +   2B3g +   1Au  )
 NUMBER OF CORE ORBITALS:           0   (   0Ag  +   0B3u +   0B2u +   0B1g +   0B1u +   0B2g +   0B3g +   0Au  )
 NUMBER OF VALENCE ORBITALS:        4   (   1Ag  +   1B3u +   1B2u +   0B1g +   1B1u +   0B2g +   0B3g +   0Au  )


 NUCLEAR REPULSION ENERGY    0.00000000

 EXTRA SYMMETRY OF AOS IN SYMMETRY 1:   1 1 1 2 3 2 3
 EXTRA SYMMETRY OF AOS IN SYMMETRY 2:   1 1 1 2 3
 EXTRA SYMMETRY OF AOS IN SYMMETRY 3:   1 1 1 2 3
 EXTRA SYMMETRY OF AOS IN SYMMETRY 5:   1 1 1 2 3

 Eigenvalues of metric

         1 0.334E-01 0.441E+00 0.441E+00 0.456E+00 0.156E+01 0.156E+01 0.251E+01
         2 0.227E-01 0.607E+00 0.100E+01 0.100E+01 0.237E+01
         3 0.227E-01 0.607E+00 0.100E+01 0.100E+01 0.237E+01
         4 0.441E+00 0.156E+01
         5 0.227E-01 0.607E+00 0.100E+01 0.100E+01 0.237E+01
         6 0.441E+00 0.156E+01
         7 0.441E+00 0.156E+01
         8 0.100E+01


 Contracted 2-electron integrals neglected if value below      1.0D-12
 AO integral compression algorithm  1   Integral accuracy      1.0D-12

     0.262 MB (compressed) written to integral file (100.0%)


 NUMBER OF SORTED TWO-ELECTRON INTEGRALS:      14291.     BUFFER LENGTH:  32768
 NUMBER OF SEGMENTS:   1  SEGMENT LENGTH:      14291      RECORD LENGTH: 524288

 Memory used in sort:       0.57 MW

 SORT1 READ       26095. AND WROTE       11782. INTEGRALS IN      1 RECORDS. CPU TIME:     0.00 SEC, REAL TIME:     0.01 SEC
 SORT2 READ       11782. AND WROTE       14291. INTEGRALS IN      1 RECORDS. CPU TIME:     0.01 SEC, REAL TIME:     0.01 SEC

 FILE SIZES:   FILE 1:    19.4 MBYTE,  FILE 4:     4.2 MBYTE,   TOTAL:     23.6 MBYTE

 OPERATOR DM      FOR CENTER  0  COORDINATES:    0.000000    0.000000    0.000000
 OPERATOR EKIN    FOR CENTER  0  COORDINATES:    0.000000    0.000000    0.000000
 OPERATOR POT     FOR CENTER  0  COORDINATES:    0.000000    0.000000    0.000000


 **********************************************************************************************************************************
 DATASETS  * FILE   NREC   LENGTH (MB)   RECORD NAMES
              1      20       19.19       500      610      700      900      950      970     1000      129      960     1100   
                                          VAR    BASINP    GEOM    SYMINP    ZMAT    AOBASIS   BASIS     P2S    ABASIS      S 
                                         1400     1410     1420     1200     1210     1080     1600     1650     1300     1700   
                                         EKIN       V       ECP      H0       H01     AOSYM     SMH    MOLCAS    ERIS     OPER   

 PROGRAMS   *        TOTAL       INT
 CPU TIMES  *         2.34      2.22
 REAL TIME  *        14.04 SEC
 DISK USED  *        23.85 MB      
 **********************************************************************************************************************************


 PROGRAM * RHF-SCF (CLOSED SHELL)       Authors: W. Meyer, H.-J. Werner


 NUMBER OF ELECTRONS:       4+    4-    SPACE SYMMETRY=1    SPIN SYMMETRY: Singlet 
 CONVERGENCE THRESHOLDS:    1.00E-05 (Density)    1.00E-07 (Energy)
 MAX. NUMBER OF ITERATIONS:       60
 INTERPOLATION TYPE:            DIIS
 INTERPOLATION STEPS:              2 (START)      1 (STEP)
 LEVEL SHIFTS:                  0.00 (CLOSED)  0.00 (OPEN) 

 Number of closed-shell orbitals:    4 (   1   1   1   0   1   0   0   0 )



   Atom=AR basis=ECP10MWB_GUESS    lmin=0  lmax=1

 Orbital guess generated from atomic densities. Full valence occupancy:    1   1   1   0   1   0   0   0


 Molecular orbital dump at record        2100.2

 ITERATION    DDIFF          GRAD             ENERGY        2-EL.EN.            DIPOLE MOMENTS         DIIS   ORB.
    1      0.000D+00      0.000D+00       -20.77955166     29.271258    0.00000    0.00000    0.00000    0    start
    2      0.000D+00      0.233D-02       -20.77965823     29.349030    0.00000    0.00000    0.00000    1    diag
    3      0.626D-02      0.616D-03       -20.77966275     29.336875    0.00000    0.00000    0.00000    2    diag
    4      0.540D-03      0.333D-04       -20.77966277     29.336990    0.00000    0.00000    0.00000    3    diag
    5      0.921D-04      0.262D-05       -20.77966277     29.336983    0.00000    0.00000    0.00000    4    diag
    6      0.716D-05      0.115D-06       -20.77966277     29.336984    0.00000    0.00000    0.00000    0    orth

 Final occupancy:   1   1   1   0   1   0   0   0

 !RHF STATE 1.1 Energy                -20.779662767111
 Nuclear energy                         0.00000000
 One-electron energy                  -35.44815461
 Two-electron energy                   14.66849185
 Virial quotient                       -2.66546623
 !RHF STATE 1.1 Dipole moment           0.00000000     0.00000000     0.00000000
 Dipole moment /Debye                   0.00000000     0.00000000     0.00000000
 

 !RHF expec          <1.1|EKIN|1.1>     7.795882972545
 
 !RHF expec           <1.1|POT|1.1>    -5.884680733147

 ELECTRON ORBITALS
 =================


   Orb  Occ    Energy  Couls-En    Coefficients

                                   1 1s      1 1s      1 1s      1 3d0     1 3d2+    1 3d0     1 3d2+ 

   1.1   2    -1.2848   -6.3077  0.999992  0.000000  0.000008  0.000000 -0.000000 -0.000000 -0.000000

                                   1 2px     1 2px     1 2px     1 4f1+    1 4f3+ 

   1.2   2    -0.5902   -4.8240  1.000008 -0.000004 -0.000005  0.000000 -0.000000

                                   1 2py     1 2py     1 2py     1 4f1-    1 4f3- 

   1.3   2    -0.5902   -4.8240  1.000008 -0.000004 -0.000005  0.000000  0.000000

                                   1 2pz     1 2pz     1 2pz     1 4f0     1 4f2+ 

   1.5   2    -0.5902   -4.8240  1.000008 -0.000004 -0.000005 -0.000000  0.000000

 HOMO      1.2    -0.590246 =     -16.0614eV
 LUMO      2.2     0.717013 =      19.5109eV
 LUMO-HOMO         1.307259 =      35.5723eV


 **********************************************************************************************************************************
 DATASETS  * FILE   NREC   LENGTH (MB)   RECORD NAMES
              1      20       19.19       500      610      700      900      950      970     1000      129      960     1100   
                                          VAR    BASINP    GEOM    SYMINP    ZMAT    AOBASIS   BASIS     P2S    ABASIS      S 
                                         1400     1410     1420     1200     1210     1080     1600     1650     1300     1700   
                                         EKIN       V       ECP      H0       H01     AOSYM     SMH    MOLCAS    ERIS     OPER   

              2       4        2.75       700     1000      520     2100   
                                         GEOM     BASIS   MCVARS     RHF  

 PROGRAMS   *        TOTAL        HF       INT
 CPU TIMES  *         2.38      0.04      2.22
 REAL TIME  *        14.17 SEC
 DISK USED  *        23.85 MB      
 **********************************************************************************************************************************
 SETTING SCF(I)         =       -20.77966277  AU                              
 SETTING _CC_NORM_MAX   =         2.00000000                                  


 PROGRAM * FCI (Full CI)     Author: P.J. Knowles, 1984

 ***  Initialisation ***
 
 Molecular orbitals read from record     2100.2  Type=RHF/CANONICAL (state 1.1)
 
 Frozen orbitals:              0 (  0  0  0  0  0  0  0  0)
 Active orbitals:             29 (  7  5  5  2  5  2  2  1)
 Active electrons:             8
 Spin quantum number:          0.0
 Orbital pairs:                    83      57      57      48      57      48      48      37
 Strings:                        2937    2929    2929    2986    2929    2986    2986    3069
                                 2937    2929    2929    2986    2929    2986    2986    3069
 Determinants:                       70530441        70516990        70516990        70508440
                                     70516990        70508440        70508440        70503270

 Load integrals                2.4 sec
 Transform integrals           2.4 sec
 Storage for integrals:          26628
 Remaining memory:           *********

 Core energy:               0.00000000
 Run Hamiltonian processor DAVIDSON
 Symmetry:                   1
 Trial vector:                  0.00
 Result vector:                 0.00
 Maximum iterations:          100
 Convergence threshold:         0.0000100
 RHS vector:                    0.00
 Hamiltonian shift:             0.0000000
 Output threshold:              0.0500000
 Options:                        0
 Number of roots:             1

 Hamiltonian diagonaliser entered at time      2.42

 Initial configuration generated:
61722611      1.0000000    -20.7796628

 It  Tr    CPU  Convergence   Energy       Pop     dE(next)

  1   1  211.5  1.00000000   -20.77966277
                                           0.00 -0.29685782 -0.29685780
  2   1  365.2  0.25496370   -20.99864554
                                           0.00 -0.02696245 -0.02694360
  3   1  527.7  0.06539269   -21.02079966
                                           0.02 -0.00168904 -0.00167195
  4   1  718.5  0.01415755   -21.02223343
                                           0.06 -0.00011625 -0.00011296
  5   1  984.4  0.00383572   -21.02233552
                                           0.11 -0.00000967 -0.00000912
  6   1 1337.3  0.00110484   -21.02234404
                                           0.15 -0.00000102 -0.00000093
  7   1 1770.6  0.00034975   -21.02234489
                                           0.19 -0.00000013 -0.00000012
  8   1 2273.9  0.00011844   -21.02234500
                                           0.23 -0.00000002 -0.00000002
  9   1 2832.9  0.00004003   -21.02234501
                                           0.25 -0.00000000 -0.00000000
 10   1 3460.2  0.00001258   -21.02234501
                                           0.25 -0.00000000 -0.00000000
 11   1 4058.9  0.00000469   -21.02234501


RESULTS FOR STATE 1.1
=====================

 Correlation energy                    -0.242682246382
 !FCI STATE 1.1 Energy                -21.022345013492
 CI Vector (threshold= 0.500E-01)
      -0.051099223394  1  2 13 20  1  2 13 20
       0.960516380442  1  8 13 20  1  8 13 20
 /EOF
 !FCI STATE 1.1 Dipole moment           0.00000000     0.00000000     0.00000000
 Dipole moment /Debye                   0.00000000     0.00000000     0.00000000
 

 !FCI expec          <1.1|EKIN|1.1>     8.091282505621
 
 !FCI expec           <1.1|POT|1.1>    -5.903261419714


 **********************************************************************************************************************************
 DATASETS  * FILE   NREC   LENGTH (MB)   RECORD NAMES
              1      20       19.19       500      610      700      900      950      970     1000      129      960     1100   
                                          VAR    BASINP    GEOM    SYMINP    ZMAT    AOBASIS   BASIS     P2S    ABASIS      S 
                                         1400     1410     1420     1200     1210     1080     1600     1650     1300     1700   
                                         EKIN       V       ECP      H0       H01     AOSYM     SMH    MOLCAS    ERIS     OPER   

              2       4        2.75       700     1000      520     2100   
                                         GEOM     BASIS   MCVARS     RHF  

 PROGRAMS   *        TOTAL       FCI        HF       INT
 CPU TIMES  *      4084.63   4082.25      0.04      2.22
 REAL TIME  *      4367.87 SEC
 DISK USED  *        13.00 GB      
 **********************************************************************************************************************************
 SETTING POSTHF(I)      =       -21.02234501  AU                              
                                                                                                                                                                                                                                                                

        SCF            POSTHF       EKIN          POT
    -20.77966277   -21.02234501   8.09128251   -5.90326142
                                                  

 FCI/USERDEF energy=    -21.022345013492

        FCI             HF-SCF  
    -21.02234501    -20.77966277
 **********************************************************************************************************************************
 Variable memory released
