
 Primary working directories    : /global/cscratch1/sd/aannabe
 Secondary working directories  : /global/cscratch1/sd/aannabe
 Wavefunction directory         : /global/homes/a/aannabe/wfu/
 Main file repository           : /global/cscratch1/sd/aannabe/

 SHA1      : 19cd028119e0e09f93f0674bd8af7968d9b3eff6
 NAME      : 2015.1.36
 ARCHNAME  : linux/x86_64
 FC        : /opt/cray/pe/craype/2.5.14/bin/ftn
 BLASLIB   : -L/opt/intel/compilers_and_libraries_2018.1.163/linux/mkl/lib/intel64 -Wl,-_start-group -lmkl_intel_ilp64 -lmkl_intel_thread -lmkl_core -Wl,-_end-group -liomp5
 id        : lbl

 Nodes     nprocs
 nid00463     1

 Using customized tuning parameters: mindgm=7; mindgv=16; mindgc=1; mindgr=1; noblas=0; minvec=7
 default implementation of scratch files=df  

 ***,K
 memory,8,g
 gthresh,twoint=1.e-12
 
 gprint,basis,orbitals
 gexpec,ekin,pot
 
 angstrom
 geometry={
 1                                                                               ! Number of atoms
 K 0.0 0.0 0.0
 }
 
 basis={
 
 Including file /global/homes/a/aannabe/repos/pseudopotentiallibrary/recipes/K/ccECP/K.ccECP.molpro
 
                                     !include,/global/homes/a/aannabe/repos/pseudopotentiallibrary/recipes/K/ccECP/K.cc-pVDZ.molpro
 Including file /global/homes/a/aannabe/repos/pseudopotentiallibrary/recipes/K/ccECP/K.cc-pCVDZ.molpro
                                 !include,/global/homes/a/aannabe/repos/pseudopotentiallibrary/recipes/K/ccECP/K.aug-cc-pVDZ.molpro
 
 
 }
 
 {hf
 wf,9,1,1
 occ,2,1,1,0,1,0,0,0
 closed,1,1,1,0,1,0,0,0
 }
 scf(i)=energy
 
 _CC_NORM_MAX=2.0
 {uccsd(t)
 maxit,100
 core
 }
 posthf(i)=energy
 
 table,scf,posthf,ekin,pot
 save,2.csv,new
 
 

 Variables initialized (889), CPU time= 0.00 sec
 Commands  initialized (702), CPU time= 0.01 sec, 572 directives.
 Default parameters read. Elapsed time= 0.08 sec

 Checking input...
 Passed
1


                                         ***  PROGRAM SYSTEM MOLPRO  ***
                                       Copyright, TTI GmbH Stuttgart, 2015
                                    Version 2015.1 linked Dec 29 2018 15:55:43


 **********************************************************************************************************************************
 LABEL *   K                                                                             
  64 bit serial version                                                                  DATE: 25-Jun-19          TIME: 11:53:03  
 **********************************************************************************************************************************

 SHA1:             19cd028119e0e09f93f0674bd8af7968d9b3eff6
 **********************************************************************************************************************************

 THRESHOLDS:

 ZERO    =  1.00D-12  ONEINT  =  1.00D-12  TWOINT  =  1.00D-12  PREFAC  =  1.00D-14  LOCALI  =  1.00D-09  EORDER  =  1.00D-04
 ENERGY  =  0.00D+00  ETEST   =  0.00D+00  EDENS   =  0.00D+00  THRDEDEF=  1.00D-06  GRADIENT=  1.00D-02  STEP    =  1.00D-03
 ORBITAL =  1.00D-05  CIVEC   =  1.00D-05  COEFF   =  1.00D-04  PRINTCI =  5.00D-02  PUNCHCI =  9.90D+01  OPTGRAD =  3.00D-04
 OPTENERG=  1.00D-06  OPTSTEP =  3.00D-04  THRGRAD =  1.00D-10  COMPRESS=  1.00D-11  VARMIN  =  1.00D-07  VARMAX  =  1.00D-03
 THRDOUB =  0.00D+00  THRDIV  =  1.00D-05  THRRED  =  1.00D-07  THRPSP  =  1.00D+00  THRDC   =  1.00D-10  THRCS   =  1.00D-10
 THRNRM  =  1.00D-08  THREQ   =  0.00D+00  THRDE   =  1.00D+00  THRREF  =  1.00D-05  SPARFAC =  1.00D+00  THRDLP  =  1.00D-07
 THRDIA  =  1.00D-10  THRDLS  =  1.00D-07  THRGPS  =  0.00D+00  THRKEX  =  0.00D+00  THRDIS  =  2.00D-01  THRVAR  =  1.00D-10
 THRLOC  =  1.00D-06  THRGAP  =  1.00D-06  THRLOCT = -1.00D+00  THRGAPT = -1.00D+00  THRORB  =  1.00D-06  THRMLTP =  0.00D+00
 THRCPQCI=  1.00D-10  KEXTA   =  0.00D+00  THRCOARS=  0.00D+00  SYMTOL  =  1.00D-06  GRADTOL =  1.00D-06  THROVL  =  1.00D-08
 THRORTH =  1.00D-08  GRID    =  1.00D-06  GRIDMAX =  1.00D-03  DTMAX   =  0.00D+00  THROCCDE=  1.00D-01  THROCCDE=  1.00D-01



 ZUNIT=ANG
 

Geometry recognized as XYZ


 Variable memory set to 8000000000 words,  buffer space   230000 words

 SETTING BASIS          =    USERDEF


 Recomputing integrals since basis changed


 Using spherical harmonics



 PROGRAM * SEWARD (Integral evaluation for generally contracted gaussian basis sets)     Author: Roland Lindh, 1990

 Geometry written to block  1 of record 700

 Orientation using atomic masses  
 Molecule type: Atom
 Symmetry elements: X,Y,Z
 Rotational constants:       0.0000000      0.0000000      0.0000000 GHz  (calculated with average atomic masses)

 Point group  D2h 



 ATOMIC COORDINATES

 NR  ATOM    CHARGE       X              Y              Z

   1  K       9.00    0.000000000    0.000000000    0.000000000


          K   CORE POTENTIAL

          d POTENTIAL

 POWERS             1              3              2              2
 EXPONENTIALS   7.273863       11.17298       7.706175       5.624917    
 COEFFICIENTS   9.000000       65.46477      -10.84434      -15.96316    

          s - d POTENTIAL

 POWERS             2              2
 EXPONENTIALS   11.44251       6.537124    
 COEFFICIENTS   11.86687       90.07677    

          p - d POTENTIAL

 POWERS             2              2
 EXPONENTIALS   9.631219       4.508811    
 COEFFICIENTS   11.53420       27.72024    


 BASIS DATA

   Nr Sym  Nuc  Type         Exponents   Contraction coefficients

    1.1 Ag    1  1s          33.190598     0.000935   -0.000135
    2.1 Ag                   17.266513    -0.017461    0.003276
                              8.982438     0.152998   -0.031275
                              4.672871    -0.340507    0.073045
                              2.430935    -0.228634    0.049052
                              1.264628     0.226730   -0.053203
                              0.657889     0.549104   -0.136782
                              0.342249     0.423104   -0.166300
                              0.178046     0.091041   -0.154697
                              0.092623     0.003455    0.001790
                              0.048185    -0.000284    0.408870
                              0.025067     0.000555    0.567152
                              0.013040     0.000003    0.184208
    3.1 Ag    1  1s           0.910504     1.000000
    4.1 Ag    1  1s           0.538624     1.000000
    5.1 Ag    1  1s           0.051786     1.000000
    6.1 Ag    1  1s           0.019252     1.000000
    7.1 Ag    1  3d0         25.002828     0.000029
                             10.959775    -0.000302
                              4.804124     0.004830
                              2.105846     0.014022
                              0.923080     0.025891
                              0.404624     0.036054
                              0.177364     0.048627
                              0.077746     0.102430
                              0.034079     0.281140
                              0.014938     0.512389
                              0.006548     0.252656
    8.1 Ag    1  3d2+        25.002828     0.000029
                             10.959775    -0.000302
                              4.804124     0.004830
                              2.105846     0.014022
                              0.923080     0.025891
                              0.404624     0.036054
                              0.177364     0.048627
                              0.077746     0.102430
                              0.034079     0.281140
                              0.014938     0.512389
                              0.006548     0.252656
    9.1 Ag    1  3d0          1.034207     1.000000
   10.1 Ag    1  3d2+         1.034207     1.000000
   11.1 Ag    1  3d0          0.013386     1.000000
   12.1 Ag    1  3d2+         0.013386     1.000000
    1.2 B3u   1  2px         25.955983     0.000053   -0.000011
    2.2 B3u                  12.863527     0.003597   -0.000501
                              6.375036    -0.040586    0.006011
                              3.159405    -0.042208    0.005705
                              1.565770     0.209658   -0.032890
                              0.775980     0.395095   -0.059125
                              0.384568     0.375044   -0.067980
                              0.190588     0.156825   -0.048525
                              0.094453     0.019669    0.021828
                              0.046810     0.001254    0.278276
                              0.023199     0.000291    0.486404
                              0.011497    -0.000010    0.318327
    3.2 B3u   1  2px          0.479550     1.000000
    4.2 B3u   1  2px          0.234482     1.000000
    5.2 B3u   1  2px          0.027763     1.000000
    6.2 B3u   1  2px          0.012100     1.000000
    1.3 B2u   1  2py         25.955983     0.000053   -0.000011
    2.3 B2u                  12.863527     0.003597   -0.000501
                              6.375036    -0.040586    0.006011
                              3.159405    -0.042208    0.005705
                              1.565770     0.209658   -0.032890
                              0.775980     0.395095   -0.059125
                              0.384568     0.375044   -0.067980
                              0.190588     0.156825   -0.048525
                              0.094453     0.019669    0.021828
                              0.046810     0.001254    0.278276
                              0.023199     0.000291    0.486404
                              0.011497    -0.000010    0.318327
    3.3 B2u   1  2py          0.479550     1.000000
    4.3 B2u   1  2py          0.234482     1.000000
    5.3 B2u   1  2py          0.027763     1.000000
    6.3 B2u   1  2py          0.012100     1.000000
    1.4 B1g   1  3d2-        25.002828     0.000029
                             10.959775    -0.000302
                              4.804124     0.004830
                              2.105846     0.014022
                              0.923080     0.025891
                              0.404624     0.036054
                              0.177364     0.048627
                              0.077746     0.102430
                              0.034079     0.281140
                              0.014938     0.512389
                              0.006548     0.252656
    2.4 B1g   1  3d2-         1.034207     1.000000
    3.4 B1g   1  3d2-         0.013386     1.000000
    1.5 B1u   1  2pz         25.955983     0.000053   -0.000011
    2.5 B1u                  12.863527     0.003597   -0.000501
                              6.375036    -0.040586    0.006011
                              3.159405    -0.042208    0.005705
                              1.565770     0.209658   -0.032890
                              0.775980     0.395095   -0.059125
                              0.384568     0.375044   -0.067980
                              0.190588     0.156825   -0.048525
                              0.094453     0.019669    0.021828
                              0.046810     0.001254    0.278276
                              0.023199     0.000291    0.486404
                              0.011497    -0.000010    0.318327
    3.5 B1u   1  2pz          0.479550     1.000000
    4.5 B1u   1  2pz          0.234482     1.000000
    5.5 B1u   1  2pz          0.027763     1.000000
    6.5 B1u   1  2pz          0.012100     1.000000
    1.6 B2g   1  3d1+        25.002828     0.000029
                             10.959775    -0.000302
                              4.804124     0.004830
                              2.105846     0.014022
                              0.923080     0.025891
                              0.404624     0.036054
                              0.177364     0.048627
                              0.077746     0.102430
                              0.034079     0.281140
                              0.014938     0.512389
                              0.006548     0.252656
    2.6 B2g   1  3d1+         1.034207     1.000000
    3.6 B2g   1  3d1+         0.013386     1.000000
    1.7 B3g   1  3d1-        25.002828     0.000029
                             10.959775    -0.000302
                              4.804124     0.004830
                              2.105846     0.014022
                              0.923080     0.025891
                              0.404624     0.036054
                              0.177364     0.048627
                              0.077746     0.102430
                              0.034079     0.281140
                              0.014938     0.512389
                              0.006548     0.252656
    2.7 B3g   1  3d1-         1.034207     1.000000
    3.7 B3g   1  3d1-         0.013386     1.000000

 NUCLEAR CHARGE:                    9
 NUMBER OF PRIMITIVE AOS:         143
 NUMBER OF SYMMETRY AOS:          130
 NUMBER OF CONTRACTIONS:           39   (  12Ag  +   6B3u +   6B2u +   3B1g +   6B1u +   3B2g +   3B3g +   0Au  )
 NUMBER OF CORE ORBITALS:           4   (   1Ag  +   1B3u +   1B2u +   0B1g +   1B1u +   0B2g +   0B3g +   0Au  )
 NUMBER OF VALENCE ORBITALS:        1   (   1Ag  +   0B3u +   0B2u +   0B1g +   0B1u +   0B2g +   0B3g +   0Au  )


 NUCLEAR REPULSION ENERGY    0.00000000

 EXTRA SYMMETRY OF AOS IN SYMMETRY 1:   1 1 1 1 1 1 2 3 2 3   2 3

 Eigenvalues of metric

         1 0.134E-02 0.619E-02 0.520E-01 0.520E-01 0.958E-01 0.211E+00 0.999E+00 0.999E+00
         2 0.120E-02 0.147E-01 0.135E+00 0.243E+00 0.248E+01 0.312E+01
         3 0.120E-02 0.147E-01 0.135E+00 0.243E+00 0.248E+01 0.312E+01
         4 0.520E-01 0.999E+00 0.195E+01
         5 0.120E-02 0.147E-01 0.135E+00 0.243E+00 0.248E+01 0.312E+01
         6 0.520E-01 0.999E+00 0.195E+01
         7 0.520E-01 0.999E+00 0.195E+01


 Contracted 2-electron integrals neglected if value below      1.0D-12
 AO integral compression algorithm  1   Integral accuracy      1.0D-12

     0.786 MB (compressed) written to integral file ( 79.9%)


 NUMBER OF SORTED TWO-ELECTRON INTEGRALS:      46038.     BUFFER LENGTH:  32768
 NUMBER OF SEGMENTS:   1  SEGMENT LENGTH:      46038      RECORD LENGTH: 524288

 Memory used in sort:       0.60 MW

 SORT1 READ      116397. AND WROTE       41691. INTEGRALS IN      1 RECORDS. CPU TIME:     0.00 SEC, REAL TIME:     0.01 SEC
 SORT2 READ       41691. AND WROTE       46038. INTEGRALS IN      3 RECORDS. CPU TIME:     0.01 SEC, REAL TIME:     0.02 SEC

 FILE SIZES:   FILE 1:    20.7 MBYTE,  FILE 4:     4.2 MBYTE,   TOTAL:     24.9 MBYTE

 OPERATOR DM      FOR CENTER  0  COORDINATES:    0.000000    0.000000    0.000000
 OPERATOR EKIN    FOR CENTER  0  COORDINATES:    0.000000    0.000000    0.000000
 OPERATOR POT     FOR CENTER  0  COORDINATES:    0.000000    0.000000    0.000000


 **********************************************************************************************************************************
 DATASETS  * FILE   NREC   LENGTH (MB)   RECORD NAMES
              1      20       20.18       500      610      700      900      950      970     1000      129      960     1100   
                                          VAR    BASINP    GEOM    SYMINP    ZMAT    AOBASIS   BASIS     P2S    ABASIS      S 
                                         1400     1410     1420     1200     1210     1080     1600     1650     1300     1700   
                                         EKIN       V       ECP      H0       H01     AOSYM     SMH    MOLCAS    ERIS     OPER   

 PROGRAMS   *        TOTAL       INT
 CPU TIMES  *         2.23      2.13
 REAL TIME  *        11.62 SEC
 DISK USED  *        25.22 MB      
 **********************************************************************************************************************************


 PROGRAM * RHF-SCF (OPEN SHELL)       Authors: W. Meyer, H.-J. Werner


 NUMBER OF ELECTRONS:       5+    4-    SPACE SYMMETRY=1    SPIN SYMMETRY: Doublet 
 CONVERGENCE THRESHOLDS:    1.00E-05 (Density)    1.00E-07 (Energy)
 MAX. NUMBER OF ITERATIONS:       60
 INTERPOLATION TYPE:            DIIS
 INTERPOLATION STEPS:              2 (START)      1 (STEP)
 LEVEL SHIFTS:                 -0.60 (CLOSED) -0.30 (OPEN) 

 Number of closed-shell orbitals:    4 (   1   1   1   0   1   0   0 )
 Number of open-shell orbitals:      1 (   1   0   0   0   0   0   0 )



   Atom=K  basis=ECP10MDF_GUESS    lmin=0  lmax=1

 Orbital guess generated from atomic densities. Full valence occupancy:    2   1   1   0   1   0   0   0


 Molecular orbital dump at record        2100.2

 ITERATION    DDIFF          GRAD             ENERGY        2-EL.EN.            DIPOLE MOMENTS         DIIS   ORB.
    1      0.000D+00      0.000D+00       -27.93359117     36.747396    0.00000    0.00000    0.00000    0    start
    2      0.000D+00      0.257D-02       -27.93402377     36.819964    0.00000    0.00000    0.00000    1    diag,B
    3      0.968D-02      0.753D-03       -27.93427718     36.862892    0.00000    0.00000    0.00000    2    diag,B
    4      0.873D-02      0.533D-03       -27.93454837     36.928026    0.00000    0.00000    0.00000    3    diag,B
    5      0.161D-01      0.266D-03       -27.93462202     36.975439    0.00000    0.00000    0.00000    4    diag,B
    6      0.139D-01      0.347D-04       -27.93462232     36.978075    0.00000    0.00000    0.00000    5    diag,B
    7      0.639D-03      0.524D-05       -27.93462232     36.978012    0.00000    0.00000    0.00000    6    fixocc
    8      0.124D-03      0.752D-06       -27.93462232     36.978027    0.00000    0.00000    0.00000    7    diag,B
    9      0.172D-04      0.114D-06       -27.93462232     36.978025    0.00000    0.00000    0.00000    8    diag,B
   10      0.352D-05      0.109D-07       -27.93462232     36.978025    0.00000    0.00000    0.00000    0    orth

 Final alpha occupancy:   2   1   1   0   1   0   0
 Final beta  occupancy:   1   1   1   0   1   0   0

 !RHF STATE 1.1 Energy                -27.934622323530
 Nuclear energy                         0.00000000
 One-electron energy                  -46.42363484
 Two-electron energy                   18.48901252
 Virial quotient                       -2.66767011
 !RHF STATE 1.1 Dipole moment           0.00000000     0.00000000     0.00000000
 Dipole moment /Debye                   0.00000000     0.00000000     0.00000000
 

 !RHF expec          <1.1|EKIN|1.1>    10.471543006873
 
 !RHF expec           <1.1|POT|1.1>    -6.839116544480

 ELECTRON ORBITALS
 =================


   Orb  Occ    Energy  Couls-En    Coefficients

                                   1 1s      1 1s      1 1s      1 1s      1 1s      1 1s      1 3d0     1 3d2+    1 3d0     1 3d2+ 
                                   1 3d0     1 3d2+ 

   1.1   2    -1.7842   -7.9979  1.000010  0.000091 -0.000025  0.000049 -0.000036 -0.000065 -0.000000 -0.000000  0.000000  0.000000
                                 0.000000  0.000000

   2.1   +    -0.1476   -2.0608  0.000079  1.000396 -0.000041  0.000108 -0.000121 -0.000315 -0.000000  0.000000  0.000000 -0.000000
                                 0.000000 -0.000000

                                   1 2px     1 2px     1 2px     1 2px     1 2px     1 2px  

   1.2   2    -0.9549   -6.3021  0.999968  0.000216  0.000095 -0.000038 -0.000143 -0.000077

                                   1 2py     1 2py     1 2py     1 2py     1 2py     1 2py  

   1.3   2    -0.9549   -6.3021  0.999968  0.000216  0.000095 -0.000038 -0.000143 -0.000077

                                   1 2pz     1 2pz     1 2pz     1 2pz     1 2pz     1 2pz  

   1.5   2    -0.9549   -6.3021  0.999968  0.000216  0.000095 -0.000038 -0.000143 -0.000077

 HOMO      2.1    -0.147629 =      -4.0172eV
 LUMO      2.2     0.011473 =       0.3122eV
 LUMO-HOMO         0.159102 =       4.3294eV


 **********************************************************************************************************************************
 DATASETS  * FILE   NREC   LENGTH (MB)   RECORD NAMES
              1      20       20.18       500      610      700      900      950      970     1000      129      960     1100   
                                          VAR    BASINP    GEOM    SYMINP    ZMAT    AOBASIS   BASIS     P2S    ABASIS      S 
                                         1400     1410     1420     1200     1210     1080     1600     1650     1300     1700   
                                         EKIN       V       ECP      H0       H01     AOSYM     SMH    MOLCAS    ERIS     OPER   

              2       4        2.76       700     1000      520     2100   
                                         GEOM     BASIS   MCVARS     RHF  

 PROGRAMS   *        TOTAL        HF       INT
 CPU TIMES  *         2.29      0.06      2.13
 REAL TIME  *        11.81 SEC
 DISK USED  *        25.22 MB      
 **********************************************************************************************************************************
 SETTING SCF(I)         =       -27.93462232  AU                              
 SETTING _CC_NORM_MAX   =         2.00000000                                  


 PROGRAM * CCSD (Unrestricted open-shell coupled cluster)     Authors: C. Hampel, H.-J. Werner, 1991, M. Deegan, P.J. Knowles, 1992


 Convergence thresholds:  THRVAR = 1.00D-08  THRDEN = 1.00D-06

 CCSD(T)     terms to be evaluated (factor= 1.000)


 Number of closed-shell orbitals:   4 (   1   1   1   0   1   0   0 )
 Number of active  orbitals:        1 (   1   0   0   0   0   0   0 )
 Number of external orbitals:      34 (  10   5   5   3   5   3   3 )

 Memory could be reduced to 0.37 Mwords without degradation in triples

 Number of N-1 electron functions:               9
 Number of N-2 electron functions:              36
 Number of singly external CSFs:                63
 Number of doubly external CSFs:              4710
 Total number of CSFs:                        4773

 Molecular orbitals read from record     2100.2  Type=RHF/CANONICAL (state 1.1)

 Integral transformation finished. Total CPU:   0.00 sec, npass=  1  Memory used:   0.08 MW

 Starting RMP2 calculation

 ITER.      SQ.NORM     CORR.ENERGY   TOTAL ENERGY   ENERGY CHANGE        DEN1      VAR(S)    VAR(P)  DIIS     TIME
   1      1.04248745    -0.17002997   -28.10465230    -0.17002997    -0.00039489  0.51D-06  0.11D-03  1  1     0.01
   2      1.04274339    -0.17044643   -28.10506876    -0.00041646    -0.00000025  0.26D-08  0.14D-06  2  2     0.01
   3      1.04274799    -0.17044916   -28.10507148    -0.00000272    -0.00000000  0.22D-11  0.17D-09  3  3     0.01
   4      1.04274805    -0.17044917   -28.10507149    -0.00000001    -0.00000000  0.52D-14  0.17D-12  4  4     0.01

 Norm of t1 vector:      0.00715876      S-energy:    -0.00005914      T1 diagnostic:  0.00003050
 Norm of t2 vector:      0.20663205      P-energy:    -0.17039002
                                         Alpha-Beta:  -0.12346408
                                         Alpha-Alpha: -0.02507118
                                         Beta-Beta:   -0.02185475

 Spin contamination <S**2-Sz**2-Sz>     0.00005584
  Reference energy                    -27.934622323530
  RHF-RMP2 correlation energy          -0.170449165768
 !RHF-RMP2 energy                     -28.105071489298

 Starting UCCSD calculation

 ITER.      SQ.NORM     CORR.ENERGY   TOTAL ENERGY   ENERGY CHANGE        DEN1      VAR(S)    VAR(P)  DIIS     TIME
   1      1.04750840    -0.17925246   -28.11387478    -0.17925246    -0.00279167  0.26D-03  0.63D-03  1  1     0.02
   2      1.05001397    -0.18228187   -28.11690419    -0.00302941    -0.00010429  0.82D-04  0.19D-04  2  2     0.03
   3      1.05091963    -0.18260648   -28.11722880    -0.00032461    -0.00001388  0.30D-04  0.59D-06  3  3     0.03
   4      1.05156626    -0.18268049   -28.11730281    -0.00007401    -0.00000264  0.60D-05  0.73D-07  4  4     0.04
   5      1.05200398    -0.18271217   -28.11733450    -0.00003169    -0.00000012  0.22D-06  0.95D-08  5  5     0.04
   6      1.05209512    -0.18271737   -28.11733969    -0.00000520    -0.00000000  0.25D-08  0.63D-09  6  6     0.05
   7      1.05210059    -0.18271745   -28.11733977    -0.00000008    -0.00000000  0.13D-09  0.38D-10  6  1     0.05

 Norm of t1 vector:      0.04926604      S-energy:    -0.00008085      T1 diagnostic:  0.01137284
                                                                       D1 diagnostic:  0.03339150
 Norm of t2 vector:      0.22287540      P-energy:    -0.18263660
                                         Alpha-Beta:  -0.13705322
                                         Alpha-Alpha: -0.02456857
                                         Beta-Beta:   -0.02101481

 Spin contamination <S**2-Sz**2-Sz>     0.00012272

 Memory could be reduced to 0.38 Mwords without degradation in triples
 

  Correlated core orbitals:             1.1       1.2       1.3       1.5
  Orbital energies:                    -1.7869   -0.9565   -0.9565   -0.9565
 
  UCCSD core-core energy               -0.174360332206
  UCCSD core-valence energy            -0.008357116166
  UCCSD valence correlation energy     -0.000000000603
 

 RESULTS
 =======

  Reference energy                    -27.934622323530
  UCCSD singles energy                 -0.000080850017
  UCCSD pair energy                    -0.182636598959
  UCCSD correlation energy             -0.182717448975
  Triples (T) contribution             -0.001792508039
  Total correlation energy             -0.184509957015
 
  RHF-UCCSD energy                    -28.117339772505
  RHF-UCCSD[T] energy                 -28.119191687310
  RHF-UCCSD-T energy                  -28.119116454722
 !RHF-UCCSD(T) energy                 -28.119132280544

 Program statistics:

 Available memory in ccsd:              7999999650
 Min. memory needed in ccsd:                 21272
 Max. memory used in ccsd:                   26014
 Max. memory used in cckext:                 56326 ( 7 integral passes)
 Max. memory used in cckint:                 79866 ( 1 integral passes)



 **********************************************************************************************************************************
 DATASETS  * FILE   NREC   LENGTH (MB)   RECORD NAMES
              1      20       20.18       500      610      700      900      950      970     1000      129      960     1100   
                                          VAR    BASINP    GEOM    SYMINP    ZMAT    AOBASIS   BASIS     P2S    ABASIS      S 
                                         1400     1410     1420     1200     1210     1080     1600     1650     1300     1700   
                                         EKIN       V       ECP      H0       H01     AOSYM     SMH    MOLCAS    ERIS     OPER   

              2       4        2.76       700     1000      520     2100   
                                         GEOM     BASIS   MCVARS     RHF  

 PROGRAMS   *        TOTAL  UCCSD(T)        HF       INT
 CPU TIMES  *         2.38      0.09      0.06      2.13
 REAL TIME  *        12.71 SEC
 DISK USED  *        25.22 MB      
 **********************************************************************************************************************************
 SETTING POSTHF(I)      =       -28.11913228  AU                              
                                                                                                                                                                                                                                                                

        SCF            POSTHF        EKIN          POT
    -27.93462232   -28.11913228   10.47154301   -6.83911654
                                                  

 UCCSD(T)/USERDEF energy=    -28.119132280544

        UCCSD(T)        HF-SCF  
    -28.11913228    -27.93462232
 **********************************************************************************************************************************
 Molpro calculation terminated
 Variable memory released
