----- GAMESS execution script 'rungms' -----
This job is running on host login1.stampede2.tacc.utexas.edu
under operating system Linux at Wed Feb 6 12:42:50 CST 2019
Available scratch disk space (Kbyte units) at beginning of the job is
Filesystem     1K-blocks   Used Available Use% Mounted on
/dev/md2        73411824 500244  69175724   1% /tmp
GAMESS temporary binary files will be written to /tmp
GAMESS supplementary output files will be written to /work/04843/aannabe/stampede2/docs/accurate/qwalk/Ne/TZ
Copying input file Ne.inp to your run's scratch directory...

 Distributed Data Interface kickoff program.
 Initiating 1 compute processes on 1 nodes to run the following command:
 /work/04843/aannabe/stampede2/codes/gamess-mcb/gamess/gamess.00.x Ne 

          ******************************************************
          *         GAMESS VERSION =  1 MAY 2013 (R1)          *
          *             FROM IOWA STATE UNIVERSITY             *
          * M.W.SCHMIDT, K.K.BALDRIDGE, J.A.BOATZ, S.T.ELBERT, *
          *   M.S.GORDON, J.H.JENSEN, S.KOSEKI, N.MATSUNAGA,   *
          *          K.A.NGUYEN, S.J.SU, T.L.WINDUS,           *
          *       TOGETHER WITH M.DUPUIS, J.A.MONTGOMERY       *
          *         J.COMPUT.CHEM.  14, 1347-1363(1993)        *
          **************** 64 BIT INTEL VERSION ****************

  SINCE 1993, STUDENTS AND POSTDOCS WORKING AT IOWA STATE UNIVERSITY
  AND ALSO IN THEIR VARIOUS JOBS AFTER LEAVING ISU HAVE MADE IMPORTANT
  CONTRIBUTIONS TO THE CODE:
     IVANA ADAMOVIC, CHRISTINE AIKENS, YURI ALEXEEV, POOJA ARORA,
     ANDREY ASADCHEV, ROB BELL, PRADIPTA BANDYOPADHYAY, JONATHAN BENTZ,
     BRETT BODE, GALINA CHABAN, WEI CHEN, CHEOL HO CHOI, PAUL DAY,
     ALBERT DEFUSCO, TIM DUDLEY, DMITRI FEDOROV, GRAHAM FLETCHER,
     MARK FREITAG, KURT GLAESEMANN, DAN KEMP, GRANT MERRILL,
     NORIYUKI MINEZAWA, JONATHAN MULLIN, TAKESHI NAGATA,
     SEAN NEDD, HEATHER NETZLOFF, BOSILJKA NJEGIC, RYAN OLSON, MIKE PAK,
     JIM SHOEMAKER, LYUDMILA SLIPCHENKO, SAROM SOK, JIE SONG,
     TETSUYA TAKETSUGU, SIMON WEBB, SOOHAENG YOO, FEDERICO ZAHARIEV

  ADDITIONAL CODE HAS BEEN PROVIDED BY COLLABORATORS IN OTHER GROUPS:
     IOWA STATE UNIVERSITY:
          JOE IVANIC, LAIMUTIS BYTAUTAS, KLAUS RUEDENBERG
     UNIVERSITY OF TOKYO: KIMIHIKO HIRAO, TAKAHITO NAKAJIMA,
          TAKAO TSUNEDA, MUNEAKI KAMIYA, SUSUMU YANAGISAWA,
          KIYOSHI YAGI, MAHITO CHIBA, SEIKEN TOKURA, NAOAKI KAWAKAMI
     UNIVERSITY OF AARHUS: FRANK JENSEN
     UNIVERSITY OF IOWA: VISVALDAS KAIRYS, HUI LI
     NATIONAL INST. OF STANDARDS AND TECHNOLOGY: WALT STEVENS, DAVID GARMER
     UNIVERSITY OF PISA: BENEDETTA MENNUCCI, JACOPO TOMASI
     UNIVERSITY OF MEMPHIS: HENRY KURTZ, PRAKASHAN KORAMBATH
     UNIVERSITY OF ALBERTA: TOBY ZENG, MARIUSZ KLOBUKOWSKI
     UNIVERSITY OF NEW ENGLAND: MARK SPACKMAN
     MIE UNIVERSITY: HIROAKI UMEDA
     MICHIGAN STATE UNIVERSITY:
          KAROL KOWALSKI, MARTA WLOCH, JEFFREY GOUR, JESSE LUTZ,
          WEI LI, PIOTR PIECUCH
     UNIVERSITY OF SILESIA: MONIKA MUSIAL, STANISLAW KUCHARSKI
     FACULTES UNIVERSITAIRES NOTRE-DAME DE LA PAIX:
          OLIVIER QUINET, BENOIT CHAMPAGNE
     UNIVERSITY OF CALIFORNIA - SANTA BARBARA: BERNARD KIRTMAN
     INSTITUTE FOR MOLECULAR SCIENCE:
          KAZUYA ISHIMURA, MICHIO KATOUDA, AND SHIGERU NAGASE
     UNIVERSITY OF NOTRE DAME: DAN CHIPMAN
     KYUSHU UNIVERSITY:
          HARUYUKI NAKANO,
          FENG LONG GU, JACEK KORCHOWIEC, MARCIN MAKOWSKI, AND YURIKO AOKI,
          HIROTOSHI MORI AND EISAKU MIYOSHI
     PENNSYLVANIA STATE UNIVERSITY:
          TZVETELIN IORDANOV, CHET SWALINA, JONATHAN SKONE,
          SHARON HAMMES-SCHIFFER
     WASEDA UNIVERSITY:
          MASATO KOBAYASHI, TOMOKO AKAMA, TSUGUKI TOUMA,
          TAKESHI YOSHIKAWA, YASUHIRO IKABATA, HIROMI NAKAI
     NANJING UNIVERSITY: SHUHUA LI
     UNIVERSITY OF NEBRASKA:
          PEIFENG SU, DEJUN SI, NANDUN THELLAMUREGE, YALI WANG, HUI LI
     UNIVERSITY OF ZURICH:
          ROBERTO PEVERATI, KIM BALDRIDGE
     N. COPERNICUS UNIVERSITY AND JACKSON STATE UNIVERSITY:
          MARIA BARYSZ

 EXECUTION OF GAMESS BEGUN Wed Feb  6 12:42:50 2019

            ECHO OF THE FIRST FEW INPUT CARDS -
 INPUT CARD> $CONTRL                                                                        
 INPUT CARD>     SCFTYP=ROHF                                                                
 INPUT CARD>     MULT=1                                                                     
 INPUT CARD>     ICHARG=0                                                                   
 INPUT CARD>     RUNTYP=ENERGY                                                              
 INPUT CARD>     MAXIT=150                                                                  
 INPUT CARD>     ECP=READ                                                                   
 INPUT CARD>     ISPHER=1                                                                   
 INPUT CARD> $END                                                                           
 INPUT CARD>                                                                                
 INPUT CARD> $SYSTEM                                                                        
 INPUT CARD>     KDIAG=3                                                                    
 INPUT CARD> $END                                                                           
 INPUT CARD>                                                                                
 INPUT CARD> $GUESS                                                                         
 INPUT CARD>    GUESS=HUCKEL                                                                
 INPUT CARD> $END                                                                           
 INPUT CARD>                                                                                
 INPUT CARD>                                                                                
 INPUT CARD> $DATA                                                                          
 INPUT CARD>                                                                                
 INPUT CARD>Dnh, 2                                                                          
 INPUT CARD>                                                                                
 INPUT CARD>Ne 10    0. 0. 0.                                                               
 INPUT CARD>S  10                                                                           
 INPUT CARD>  1      89.999848  0.00003370                                                  
 INPUT CARD>  2      44.745732  -0.00055860                                                 
 INPUT CARD>  3      22.246488  0.01858840                                                  
 INPUT CARD>  4      11.060411  -0.12689730                                                 
 INPUT CARD>  5       5.498967  -0.04853020                                                 
 INPUT CARD>  6       2.733953  0.17891780                                                  
 INPUT CARD>  7       1.359255  0.37701020                                                  
 INPUT CARD>  8       0.675788  0.39006930                                                  
 INPUT CARD>  9       0.335985  0.18553010                                                  
 INPUT CARD> 10       0.167044  0.02494380                                                  
 INPUT CARD>P  10                                                                           
 INPUT CARD>  1      40.001333  0.00364740                                                  
 INPUT CARD>  2      20.592442  0.03301820                                                  
 INPUT CARD>  3      10.600863  0.06814330                                                  
 INPUT CARD>  4       5.457260  0.13511940                                                  
 INPUT CARD>  5       2.809364  0.21484190                                                  
 INPUT CARD>  6       1.446244  0.26495200                                                  
 INPUT CARD>  7       0.744517  0.25843380                                                  
 INPUT CARD>  8       0.383273  0.19042960                                                  
 INPUT CARD>  9       0.197307  0.08474940                                                  
 INPUT CARD> 10       0.101572  0.01542050                                                  
 INPUT CARD>S  1                                                                            
 INPUT CARD>  1       0.317767  1.00000000                                                  
 INPUT CARD>S  1                                                                            
 INPUT CARD>  1       0.534557  1.00000000                                                  
    1000000 WORDS OF MEMORY AVAILABLE


     RUN TITLE
     ---------
                                                                                 

 THE POINT GROUP OF THE MOLECULE IS DNH     
 THE ORDER OF THE PRINCIPAL AXIS IS     2

 ATOM      ATOMIC                      COORDINATES (BOHR)
           CHARGE         X                   Y                   Z
 NE         10.0     0.0000000000        0.0000000000        0.0000000000

          INTERNUCLEAR DISTANCES (ANGS.)
          ------------------------------

                1 NE    

   1 NE      0.0000000  

  * ... LESS THAN  3.000


     ATOMIC BASIS SET
     ----------------
 THE CONTRACTED PRIMITIVE FUNCTIONS HAVE BEEN UNNORMALIZED
 THE CONTRACTED BASIS FUNCTIONS ARE NOW NORMALIZED TO UNITY

  SHELL TYPE  PRIMITIVE        EXPONENT          CONTRACTION COEFFICIENT(S)

 NE        

      1   S       1            89.9998480    0.000033700004
      1   S       2            44.7457320   -0.000558600066
      1   S       3            22.2464880    0.018588402193
      1   S       4            11.0604110   -0.126897314970
      1   S       5             5.4989670   -0.048530205725
      1   S       6             2.7339530    0.178917821107
      1   S       7             1.3592550    0.377010244476
      1   S       8             0.6757880    0.390069346017
      1   S       9             0.3359850    0.185530121887
      1   S      10             0.1670440    0.024943802943

      2   P      11            40.0013330    0.003647399678
      2   P      12            20.5924420    0.033018197085
      2   P      13            10.6008630    0.068143293984
      2   P      14             5.4572600    0.135119388071
      2   P      15             2.8093640    0.214841881033
      2   P      16             1.4462440    0.264951976609
      2   P      17             0.7445170    0.258433777185
      2   P      18             0.3832730    0.190429583188
      2   P      19             0.1973070    0.084749392518
      2   P      20             0.1015720    0.015420498639

      3   S      21             0.3177670    1.000000000000

      4   S      22             0.5345570    1.000000000000

      5   P      23             0.2946650    1.000000000000

      6   P      24             0.9621260    1.000000000000

      7   D      25             1.1340630    1.000000000000

      8   D      26             4.1614370    1.000000000000

      9   F      27             2.5567510    1.000000000000

 TOTAL NUMBER OF BASIS SET SHELLS             =    9
 NUMBER OF CARTESIAN GAUSSIAN BASIS FUNCTIONS =   34
 NOTE: THIS RUN WILL RESTRICT THE MO VARIATION SPACE TO SPHERICAL HARMONICS.
 THE NUMBER OF ORBITALS KEPT IN THE VARIATIONAL SPACE WILL BE PRINTED LATER.
 NUMBER OF ELECTRONS                          =   10
 CHARGE OF MOLECULE                           =    0
 SPIN MULTIPLICITY                            =    1
 NUMBER OF OCCUPIED ORBITALS (ALPHA)          =    5
 NUMBER OF OCCUPIED ORBITALS (BETA )          =    5
 TOTAL NUMBER OF ATOMS                        =    1
 THE NUCLEAR REPULSION ENERGY IS        0.0000000000
 NOTE THIS RUN IS USING CORE POTENTIALS, AND THE NUMBER OF ELECTRONS,
 OCCUPIED ORBITALS, AND NUCLEAR REPULSION ENERGY WILL BE ADJUSTED BELOW
 AFTER REMOVAL OF THE CORE CHARGES.

 THIS MOLECULE IS RECOGNIZED AS BEING LINEAR,
 ORBITAL LZ DEGENERACY TOLERANCE ETOLLZ= 1.00E-06

     $CONTRL OPTIONS
     ---------------
 SCFTYP=ROHF         RUNTYP=ENERGY       EXETYP=RUN     
 MPLEVL=       0     CITYP =NONE         CCTYP =NONE         VBTYP =NONE    
 DFTTYP=NONE         TDDFT =NONE    
 MULT  =       1     ICHARG=       0     NZVAR =       0     COORD =UNIQUE  
 PP    =READ         RELWFN=NONE         LOCAL =NONE         NUMGRD=       F
 ISPHER=       1     NOSYM =       0     MAXIT =     150     UNITS =ANGS    
 PLTORB=       F     MOLPLT=       F     AIMPAC=       F     FRIEND=        
 NPRINT=       7     IREST =       0     GEOM  =INPUT   
 NORMF =       0     NORMP =       0     ITOL  =      20     ICUT  =       9
 INTTYP=BEST         GRDTYP=BEST         QMTTOL= 1.0E-06

     $SYSTEM OPTIONS
     ---------------
  REPLICATED MEMORY=     1000000 WORDS (ON EVERY NODE).
 DISTRIBUTED MEMDDI=           0 MILLION WORDS IN AGGREGATE,
 MEMDDI DISTRIBUTED OVER   1 PROCESSORS IS           0 WORDS/PROCESSOR.
 TOTAL MEMORY REQUESTED ON EACH PROCESSOR=     1000000 WORDS.
 TIMLIM=      525600.00 MINUTES, OR     365.0 DAYS.
 PARALL= F  BALTYP=  DLB     KDIAG=    3  COREFL= F
 MXSEQ2=     300 MXSEQ3=     150

          --------------
          ECP POTENTIALS
          --------------

 PARAMETERS FOR "NE-CCECP" ON ATOM    1 WITH ZCORE   2 AND LMAX  1 ARE
 FOR L= 1      COEFF    N           ZETA
    1        8.00000    1       14.79351
    2      118.34810    3       16.58204
    3      -70.27886    2       16.08074
 FOR L= 0      COEFF    N           ZETA
    1       81.62206    2       16.55441

 THE ECP RUN REMOVES    2 CORE ELECTRONS, AND THE SAME NUMBER OF PROTONS.
 NUMBER OF ELECTRONS KEPT IN THE CALCULATION IS =    8
 NUMBER OF OCCUPIED ORBITALS (ALPHA) KEPT IS    =    4
 NUMBER OF OCCUPIED ORBITALS (BETA ) KEPT IS    =    4
 THE ADJUSTED NUCLEAR REPULSION ENERGY=        0.0000000000
          ECP ANGULAR INTS.........     0.00 SECONDS

          ----------------
          PROPERTIES INPUT
          ----------------

     MOMENTS            FIELD           POTENTIAL          DENSITY
 IEMOM =       1   IEFLD =       0   IEPOT =       0   IEDEN =       0
 WHERE =COMASS     WHERE =NUCLEI     WHERE =NUCLEI     WHERE =NUCLEI  
 OUTPUT=BOTH       OUTPUT=BOTH       OUTPUT=BOTH       OUTPUT=BOTH    
 IEMINT=       0   IEFINT=       0                     IEDINT=       0
                                                       MORB  =       0
          EXTRAPOLATION IN EFFECT
          SOSCF IN EFFECT
 ORBITAL PRINTING OPTION: NPREO=     1    34     2     1

     -------------------------------
     INTEGRAL TRANSFORMATION OPTIONS
     -------------------------------
     NWORD  =            0
     CUTOFF = 1.0E-09     MPTRAN =       0
     DIRTRF =       F     AOINTS =DUP     

          ----------------------
          INTEGRAL INPUT OPTIONS
          ----------------------
 NOPK  =       1 NORDER=       0 SCHWRZ=       F

     ------------------------------------------
     THE POINT GROUP IS DNH, NAXIS= 2, ORDER= 8
     ------------------------------------------

 -- VARIATIONAL SPACE WILL BE RESTRICTED TO PURE SPHERICAL HARMONICS ONLY --
 AFTER EXCLUDING CONTAMINANT COMBINATIONS FROM THE CARTESIAN GAUSSIAN BASIS
 SET, THE NUMBER OF SPHERICAL HARMONICS KEPT IN THE VARIATION SPACE IS   29

     DIMENSIONS OF THE SYMMETRY SUBSPACES ARE
 AG  =    7     AU  =    1     B3U =    5     B3G =    2     B1G =    2
 B1U =    5     B2U =    5     B2G =    2

 ..... DONE SETTING UP THE RUN .....
 STEP CPU TIME =     0.02 TOTAL CPU TIME =        0.0 (    0.0 MIN)
 TOTAL WALL CLOCK TIME=        0.2 SECONDS, CPU UTILIZATION IS  11.11%

          ********************
          1 ELECTRON INTEGRALS
          ********************
 TIME TO DO ORDINARY INTEGRALS=      0.00
 TIME TO DO      ECP INTEGRALS=      0.00
 ...... END OF ONE-ELECTRON INTEGRALS ......
 STEP CPU TIME =     0.00 TOTAL CPU TIME =        0.0 (    0.0 MIN)
 TOTAL WALL CLOCK TIME=        0.3 SECONDS, CPU UTILIZATION IS   6.67%

          -------------
          GUESS OPTIONS
          -------------
          GUESS =HUCKEL            NORB  =       0          NORDER=       0
          MIX   =       F          PRTMO =       F          PUNMO =       F
          TOLZ  = 1.0E-08          TOLE  = 1.0E-05
          SYMDEN=       F          PURIFY=       F

 INITIAL GUESS ORBITALS GENERATED BY HUCKEL   ROUTINE.
 HUCKEL GUESS REQUIRES      9489 WORDS.

 STATISTICS FOR GENERATION OF SYMMETRY ORBITAL -Q- MATRIX
 NUMBER OF CARTESIAN ATOMIC ORBITALS=         34
 NUMBER OF SPHERICAL CONTAMINANTS DROPPED=     5
 NUMBER OF LINEARLY DEPENDENT MOS DROPPED=     0
 TOTAL NUMBER OF MOS IN VARIATION SPACE=      29

 SYMMETRIES FOR INITIAL GUESS ORBITALS FOLLOW.  ALPHA SET(S).
     4 ORBITALS ARE OCCUPIED (    0 CORE ORBITALS).
     1=AG       2=B3U      3=B2U      4=B1U      5=AG       6=AG       7=AG  
     8=AG       9=AG      10=AG      11=AU      12=B3U     13=B3U     14=B3U 

 SYMMETRIES FOR INITIAL GUESS ORBITALS FOLLOW.   BETA SET(S).
     4 ORBITALS ARE OCCUPIED (    0 CORE ORBITALS).
     1=AG       2=B3U      3=B2U      4=B1U      5=AG       6=AG       7=AG  
     8=AG       9=AG      10=AG      11=AU      12=B3U     13=B3U     14=B3U 
 ...... END OF INITIAL ORBITAL SELECTION ......
 STEP CPU TIME =     0.00 TOTAL CPU TIME =        0.0 (    0.0 MIN)
 TOTAL WALL CLOCK TIME=        0.4 SECONDS, CPU UTILIZATION IS   5.71%

                    ----------------------
                    AO INTEGRAL TECHNOLOGY
                    ----------------------
     S,P,L SHELL ROTATED AXIS INTEGRALS, REPROGRAMMED BY
        KAZUYA ISHIMURA (IMS) AND JOSE SIERRA (SYNSTAR).
     S,P,D,L SHELL ROTATED AXIS INTEGRALS PROGRAMMED BY
        KAZUYA ISHIMURA (INSTITUTE FOR MOLECULAR SCIENCE).
     S,P,D,F,G SHELL TO TOTAL QUARTET ANGULAR MOMENTUM SUM 5,
        ERIC PROGRAM BY GRAHAM FLETCHER (ELORET AND NASA ADVANCED
        SUPERCOMPUTING DIVISION, AMES RESEARCH CENTER).
     S,P,D,F,G,L SHELL GENERAL RYS QUADRATURE PROGRAMMED BY
        MICHEL DUPUIS (PACIFIC NORTHWEST NATIONAL LABORATORY).

          --------------------
          2 ELECTRON INTEGRALS
          --------------------

 THE -PK- OPTION IS OFF, THE INTEGRALS ARE NOT IN SUPERMATRIX FORM.
 STORING   15000 INTEGRALS/RECORD ON DISK, USING 12 BYTES/INTEGRAL.
 TWO ELECTRON INTEGRAL EVALUATION REQUIRES   99145 WORDS OF MEMORY.
 II,JST,KST,LST =  1  1  1  1 NREC =         1 INTLOC =    1
 II,JST,KST,LST =  2  1  1  1 NREC =         1 INTLOC =    2
 II,JST,KST,LST =  3  1  1  1 NREC =         1 INTLOC =   17
 II,JST,KST,LST =  4  1  1  1 NREC =         1 INTLOC =   34
 II,JST,KST,LST =  5  1  1  1 NREC =         1 INTLOC =   67
 II,JST,KST,LST =  6  1  1  1 NREC =         1 INTLOC =  214
 II,JST,KST,LST =  7  1  1  1 NREC =         1 INTLOC =  571
 II,JST,KST,LST =  8  1  1  1 NREC =         1 INTLOC = 2257
 II,JST,KST,LST =  9  1  1  1 NREC =         1 INTLOC = 6628
 TOTAL NUMBER OF NONZERO TWO-ELECTRON INTEGRALS =               24016
          2 INTEGRAL RECORDS WERE STORED ON DISK FILE  8.
  ...... END OF TWO-ELECTRON INTEGRALS .....
 STEP CPU TIME =     0.03 TOTAL CPU TIME =        0.0 (    0.0 MIN)
 TOTAL WALL CLOCK TIME=        0.4 SECONDS, CPU UTILIZATION IS  12.20%

          ---------------------------
                 ROHF SCF CALCULATION
          ---------------------------

     NUCLEAR ENERGY =         0.0000000000
     MAXIT =150     NPUNCH=  2     MULT=  1
     EXTRAP=T  DAMP=F  SHIFT=F  RSTRCT=F  DIIS=F  SOSCF=T
     DENSITY MATRIX CONV=  1.00E-05
     ROHF CANONICALIZATION PARAMETERS
             C-C     O-O     V-V
     ALPHA -0.5000  0.5000  1.5000
     BETA   1.5000  0.5000 -0.5000
     SOSCF WILL OPTIMIZE     100 ORBITAL ROTATION ANGLES. SOGTOL= 2.500E-01
     MEMORY REQUIRED FOR UHF/ROHF ITERS=     41514 WORDS.

 ITER EX      TOTAL ENERGY        E CHANGE  DENSITY CHANGE    ORB. GRAD 
   1  0      -34.6592185874   -34.6592185874   0.217290985   0.000000000
          ---------------START SECOND ORDER SCF---------------
   2  1      -34.7083590532    -0.0491404658   0.015871517   0.013194355
   3  2      -34.7088108204    -0.0004517672   0.005737704   0.002674985
   4  3      -34.7088174356    -0.0000066152   0.001560270   0.000929994
   5  4      -34.7088185697    -0.0000011341   0.000044427   0.000019656
   6  5      -34.7088185703    -0.0000000006   0.000009436   0.000003290
   7  6      -34.7088185703    -0.0000000000   0.000000511   0.000000159

          -----------------
          DENSITY CONVERGED
          -----------------
     TIME TO FORM FOCK OPERATORS=       0.0 SECONDS (       0.0 SEC/ITER)
     TIME TO SOLVE SCF EQUATIONS=       0.0 SECONDS (       0.0 SEC/ITER)

 FINAL ROHF ENERGY IS      -34.7088185703 AFTER   7 ITERATIONS

          --------------------
          SPIN SZ   =    0.000
          S-SQUARED =    0.000
          --------------------

 LZ VALUE ANALYSIS FOR THE MOS
 ----------------------------------------
 MO     1 (    1) HAS LZ(WEIGHT)= 0.00(100.0%) 
 MO     2 (    2) HAS LZ(WEIGHT)=-1.00( 50.0%)  1.00( 50.0%) 
 MO     3 (    2) HAS LZ(WEIGHT)= 0.00(100.0%) 
 MO     4 (    2) HAS LZ(WEIGHT)=-1.00( 50.0%)  1.00( 50.0%) 
 MO     5 (    3) HAS LZ(WEIGHT)= 0.00(100.0%) 
 MO     6 (    4) HAS LZ(WEIGHT)=-1.00( 50.0%)  1.00( 50.0%) 
 MO     7 (    4) HAS LZ(WEIGHT)=-1.00( 50.0%)  1.00( 50.0%) 
 MO     8 (    4) HAS LZ(WEIGHT)= 0.00(100.0%) 
 MO     9 (    5) HAS LZ(WEIGHT)=-1.00( 50.0%)  1.00( 50.0%) 
 MO    10 (    5) HAS LZ(WEIGHT)= 0.00(100.0%) 
 MO    11 (    5) HAS LZ(WEIGHT)=-1.00( 50.0%)  1.00( 50.0%) 
 MO    12 (    5) HAS LZ(WEIGHT)=-2.00( 50.0%)  2.00( 50.0%) 
 MO    13 (    5) HAS LZ(WEIGHT)=-2.00( 50.0%)  2.00( 50.0%) 
 MO    14 (    6) HAS LZ(WEIGHT)=-1.00( 50.0%)  1.00( 50.0%) 
 MO    15 (    6) HAS LZ(WEIGHT)= 0.00(100.0%) 
 MO    16 (    6) HAS LZ(WEIGHT)=-1.00( 50.0%)  1.00( 50.0%) 
 MO    17 (    7) HAS LZ(WEIGHT)= 0.00(100.0%) 
 MO    18 (    8) HAS LZ(WEIGHT)=-1.00( 50.0%)  1.00( 50.0%) 
 MO    19 (    8) HAS LZ(WEIGHT)=-1.00( 50.0%)  1.00( 50.0%) 
 MO    20 (    8) HAS LZ(WEIGHT)=-3.00( 50.0%)  3.00( 50.0%) 
 MO    21 (    8) HAS LZ(WEIGHT)=-3.00( 50.0%)  3.00( 50.0%) 
 MO    22 (    8) HAS LZ(WEIGHT)=-2.00( 50.0%)  2.00( 50.0%) 
 MO    23 (    8) HAS LZ(WEIGHT)= 0.00(100.0%) 
 MO    24 (    8) HAS LZ(WEIGHT)=-2.00( 50.0%)  2.00( 50.0%) 
 MO    25 (    9) HAS LZ(WEIGHT)= 0.00(100.0%) 
 MO    26 (    9) HAS LZ(WEIGHT)=-1.00( 50.0%)  1.00( 50.0%) 
 MO    27 (    9) HAS LZ(WEIGHT)=-2.00( 50.0%)  2.00( 50.0%) 
 MO    28 (    9) HAS LZ(WEIGHT)=-2.00( 50.0%)  2.00( 50.0%) 
 MO    29 (    9) HAS LZ(WEIGHT)=-1.00( 50.0%)  1.00( 50.0%) 

          ------------
          EIGENVECTORS
          ------------

                      1          2          3          4          5
                   -1.9415    -0.8508    -0.8508    -0.8508     0.7016
                     AG         B3U        B1U        B2U        AG  
    1  NE 1  S    0.999995   0.000000   0.000000   0.000000  -0.168362
    2  NE 1  X    0.000000   0.999999   0.000000   0.000000   0.000000
    3  NE 1  Y    0.000000   0.000000   0.000000   0.999999   0.000000
    4  NE 1  Z    0.000000   0.000000   0.999999   0.000000   0.000000
    5  NE 1  S   -0.000009   0.000000   0.000000   0.000000   3.098888
    6  NE 1  S    0.000013   0.000000   0.000000   0.000000  -2.613092
    7  NE 1  X    0.000000   0.000001   0.000000   0.000000   0.000000
    8  NE 1  Y    0.000000   0.000000   0.000000   0.000001   0.000000
    9  NE 1  Z    0.000000   0.000000   0.000001   0.000000   0.000000
   10  NE 1  X    0.000000   0.000001   0.000000   0.000000   0.000000
   11  NE 1  Y    0.000000   0.000000   0.000000   0.000001   0.000000
   12  NE 1  Z    0.000000   0.000000   0.000001   0.000000   0.000000
   13  NE 1 XX    0.000000   0.000000   0.000000   0.000000   0.000000
   14  NE 1 YY    0.000000   0.000000   0.000000   0.000000   0.000000
   15  NE 1 ZZ    0.000000   0.000000   0.000000   0.000000   0.000000
   16  NE 1 XY    0.000000   0.000000   0.000000   0.000000   0.000000
   17  NE 1 XZ    0.000000   0.000000   0.000000   0.000000   0.000000
   18  NE 1 YZ    0.000000   0.000000   0.000000   0.000000   0.000000
   19  NE 1 XX    0.000000   0.000000   0.000000   0.000000   0.000000
   20  NE 1 YY    0.000000   0.000000   0.000000   0.000000   0.000000
   21  NE 1 ZZ    0.000000   0.000000   0.000000   0.000000   0.000000
   22  NE 1 XY    0.000000   0.000000   0.000000   0.000000   0.000000
   23  NE 1 XZ    0.000000   0.000000   0.000000   0.000000   0.000000
   24  NE 1 YZ    0.000000   0.000000   0.000000   0.000000   0.000000
   25  NE 1 XXX   0.000000   0.000000   0.000000   0.000000   0.000000
   26  NE 1 YYY   0.000000   0.000000   0.000000   0.000000   0.000000
   27  NE 1 ZZZ   0.000000   0.000000   0.000000   0.000000   0.000000
   28  NE 1 XXY   0.000000   0.000000   0.000000   0.000000   0.000000
   29  NE 1 XXZ   0.000000   0.000000   0.000000   0.000000   0.000000
   30  NE 1 YYX   0.000000   0.000000   0.000000   0.000000   0.000000
   31  NE 1 YYZ   0.000000   0.000000   0.000000   0.000000   0.000000
   32  NE 1 ZZX   0.000000   0.000000   0.000000   0.000000   0.000000
   33  NE 1 ZZY   0.000000   0.000000   0.000000   0.000000   0.000000
   34  NE 1 XYZ   0.000000   0.000000   0.000000   0.000000   0.000000

                      6          7          8          9         10
                    0.9410     0.9410     0.9410     2.8993     2.8993
                     B3U        B2U        B1U        B2G        AG  
    1  NE 1  S    0.000000   0.000000   0.000000   0.000000   0.000000
    2  NE 1  X   -0.555209   0.000000   0.000000   0.000000   0.000000
    3  NE 1  Y    0.000000  -0.555209   0.000000   0.000000   0.000000
    4  NE 1  Z    0.000000   0.000000  -0.555209   0.000000   0.000000
    5  NE 1  S    0.000000   0.000000   0.000000   0.000000   0.000000
    6  NE 1  S    0.000000   0.000000   0.000000   0.000000   0.000000
    7  NE 1  X    1.376343   0.000000   0.000000   0.000000   0.000000
    8  NE 1  Y    0.000000   1.376343   0.000000   0.000000   0.000000
    9  NE 1  Z    0.000000   0.000000   1.376343   0.000000   0.000000
   10  NE 1  X   -0.418379   0.000000   0.000000   0.000000   0.000000
   11  NE 1  Y    0.000000  -0.418379   0.000000   0.000000   0.000000
   12  NE 1  Z    0.000000   0.000000  -0.418379   0.000000   0.000000
   13  NE 1 XX    0.000000   0.000000   0.000000   0.000000  -0.501761
   14  NE 1 YY    0.000000   0.000000   0.000000   0.000000  -0.501761
   15  NE 1 ZZ    0.000000   0.000000   0.000000   0.000000   1.003523
   16  NE 1 XY    0.000000   0.000000   0.000000   0.000000   0.000000
   17  NE 1 XZ    0.000000   0.000000   0.000000   1.003523   0.000000
   18  NE 1 YZ    0.000000   0.000000   0.000000   0.000000   0.000000
   19  NE 1 XX    0.000000   0.000000   0.000000   0.000000   0.003540
   20  NE 1 YY    0.000000   0.000000   0.000000   0.000000   0.003540
   21  NE 1 ZZ    0.000000   0.000000   0.000000   0.000000  -0.007079
   22  NE 1 XY    0.000000   0.000000   0.000000   0.000000   0.000000
   23  NE 1 XZ    0.000000   0.000000   0.000000  -0.007079   0.000000
   24  NE 1 YZ    0.000000   0.000000   0.000000   0.000000   0.000000
   25  NE 1 XXX   0.000000   0.000000   0.000000   0.000000   0.000000
   26  NE 1 YYY   0.000000   0.000000   0.000000   0.000000   0.000000
   27  NE 1 ZZZ   0.000000   0.000000   0.000000   0.000000   0.000000
   28  NE 1 XXY   0.000000   0.000000   0.000000   0.000000   0.000000
   29  NE 1 XXZ   0.000000   0.000000   0.000000   0.000000   0.000000
   30  NE 1 YYX   0.000000   0.000000   0.000000   0.000000   0.000000
   31  NE 1 YYZ   0.000000   0.000000   0.000000   0.000000   0.000000
   32  NE 1 ZZX   0.000000   0.000000   0.000000   0.000000   0.000000
   33  NE 1 ZZY   0.000000   0.000000   0.000000   0.000000   0.000000
   34  NE 1 XYZ   0.000000   0.000000   0.000000   0.000000   0.000000

                     11         12         13         14         15
                    2.8993     2.8993     2.8993     5.0578     5.0578
                     B3G        B1G        AG         B3U        B1U 
    1  NE 1  S    0.000000   0.000000   0.000000   0.000000   0.000000
    2  NE 1  X    0.000000   0.000000   0.000000  -2.527183   0.000000
    3  NE 1  Y    0.000000   0.000000   0.000000   0.000000   0.000000
    4  NE 1  Z    0.000000   0.000000   0.000000   0.000000  -2.527183
    5  NE 1  S    0.000000   0.000000   0.000000   0.000000   0.000000
    6  NE 1  S    0.000000   0.000000   0.000000   0.000000   0.000000
    7  NE 1  X    0.000000   0.000000   0.000000   0.088342   0.000000
    8  NE 1  Y    0.000000   0.000000   0.000000   0.000000   0.000000
    9  NE 1  Z    0.000000   0.000000   0.000000   0.000000   0.088342
   10  NE 1  X    0.000000   0.000000   0.000000   2.658648   0.000000
   11  NE 1  Y    0.000000   0.000000   0.000000   0.000000   0.000000
   12  NE 1  Z    0.000000   0.000000   0.000000   0.000000   2.658648
   13  NE 1 XX    0.000000   0.000000   0.869076   0.000000   0.000000
   14  NE 1 YY    0.000000   0.000000  -0.869076   0.000000   0.000000
   15  NE 1 ZZ    0.000000   0.000000   0.000000   0.000000   0.000000
   16  NE 1 XY    0.000000   1.003523   0.000000   0.000000   0.000000
   17  NE 1 XZ    0.000000   0.000000   0.000000   0.000000   0.000000
   18  NE 1 YZ    1.003523   0.000000   0.000000   0.000000   0.000000
   19  NE 1 XX    0.000000   0.000000  -0.006131   0.000000   0.000000
   20  NE 1 YY    0.000000   0.000000   0.006131   0.000000   0.000000
   21  NE 1 ZZ    0.000000   0.000000   0.000000   0.000000   0.000000
   22  NE 1 XY    0.000000  -0.007079   0.000000   0.000000   0.000000
   23  NE 1 XZ    0.000000   0.000000   0.000000   0.000000   0.000000
   24  NE 1 YZ   -0.007079   0.000000   0.000000   0.000000   0.000000
   25  NE 1 XXX   0.000000   0.000000   0.000000   0.000000   0.000000
   26  NE 1 YYY   0.000000   0.000000   0.000000   0.000000   0.000000
   27  NE 1 ZZZ   0.000000   0.000000   0.000000   0.000000   0.000000
   28  NE 1 XXY   0.000000   0.000000   0.000000   0.000000   0.000000
   29  NE 1 XXZ   0.000000   0.000000   0.000000   0.000000   0.000000
   30  NE 1 YYX   0.000000   0.000000   0.000000   0.000000   0.000000
   31  NE 1 YYZ   0.000000   0.000000   0.000000   0.000000   0.000000
   32  NE 1 ZZX   0.000000   0.000000   0.000000   0.000000   0.000000
   33  NE 1 ZZY   0.000000   0.000000   0.000000   0.000000   0.000000
   34  NE 1 XYZ   0.000000   0.000000   0.000000   0.000000   0.000000

                     16         17         18         19         20
                    5.0578     5.8008     9.6996     9.6996     9.6996
                     B2U        AG         B2U        B3U        B3U 
    1  NE 1  S    0.000000  -5.053416   0.000000   0.000000   0.000000
    2  NE 1  X    0.000000   0.000000   0.000000   0.000000   0.000000
    3  NE 1  Y   -2.527183   0.000000   0.000000   0.000000   0.000000
    4  NE 1  Z    0.000000   0.000000   0.000000   0.000000   0.000000
    5  NE 1  S    0.000000  -2.857424   0.000000   0.000000   0.000000
    6  NE 1  S    0.000000   7.792823   0.000000   0.000000   0.000000
    7  NE 1  X    0.000000   0.000000   0.000000   0.000000   0.000000
    8  NE 1  Y    0.088342   0.000000   0.000000   0.000000   0.000000
    9  NE 1  Z    0.000000   0.000000   0.000000   0.000000   0.000000
   10  NE 1  X    0.000000   0.000000   0.000000   0.000000   0.000000
   11  NE 1  Y    2.658648   0.000000   0.000000   0.000000   0.000000
   12  NE 1  Z    0.000000   0.000000   0.000000   0.000000   0.000000
   13  NE 1 XX    0.000000   0.000000   0.000000   0.000000   0.000000
   14  NE 1 YY    0.000000   0.000000   0.000000   0.000000   0.000000
   15  NE 1 ZZ    0.000000   0.000000   0.000000   0.000000   0.000000
   16  NE 1 XY    0.000000   0.000000   0.000000   0.000000   0.000000
   17  NE 1 XZ    0.000000   0.000000   0.000000   0.000000   0.000000
   18  NE 1 YZ    0.000000   0.000000   0.000000   0.000000   0.000000
   19  NE 1 XX    0.000000   0.000000   0.000000   0.000000   0.000000
   20  NE 1 YY    0.000000   0.000000   0.000000   0.000000   0.000000
   21  NE 1 ZZ    0.000000   0.000000   0.000000   0.000000   0.000000
   22  NE 1 XY    0.000000   0.000000   0.000000   0.000000   0.000000
   23  NE 1 XZ    0.000000   0.000000   0.000000   0.000000   0.000000
   24  NE 1 YZ    0.000000   0.000000   0.000000   0.000000   0.000000
   25  NE 1 XXX   0.000000   0.000000   0.000000  -0.612372  -0.790569
   26  NE 1 YYY   0.000000   0.000000  -0.612372   0.000000   0.000000
   27  NE 1 ZZZ   0.000000   0.000000   0.000000   0.000000   0.000000
   28  NE 1 XXY   0.000000   0.000000  -0.273861   0.000000   0.000000
   29  NE 1 XXZ   0.000000   0.000000   0.000000   0.000000   0.000000
   30  NE 1 YYX   0.000000   0.000000   0.000000  -0.273861   1.060660
   31  NE 1 YYZ   0.000000   0.000000   0.000000   0.000000   0.000000
   32  NE 1 ZZX   0.000000   0.000000   0.000000   1.095445   0.000000
   33  NE 1 ZZY   0.000000   0.000000   1.095445   0.000000   0.000000
   34  NE 1 XYZ   0.000000   0.000000   0.000000   0.000000   0.000000

                     21         22         23         24         25
                    9.6996     9.6996     9.6996     9.6996    11.5939
                     B2U        B1U        B1U        AU         AG  
    1  NE 1  S    0.000000   0.000000   0.000000   0.000000   0.000000
    2  NE 1  X    0.000000   0.000000   0.000000   0.000000   0.000000
    3  NE 1  Y    0.000000   0.000000   0.000000   0.000000   0.000000
    4  NE 1  Z    0.000000   0.000000   0.000000   0.000000   0.000000
    5  NE 1  S    0.000000   0.000000   0.000000   0.000000   0.000000
    6  NE 1  S    0.000000   0.000000   0.000000   0.000000   0.000000
    7  NE 1  X    0.000000   0.000000   0.000000   0.000000   0.000000
    8  NE 1  Y    0.000000   0.000000   0.000000   0.000000   0.000000
    9  NE 1  Z    0.000000   0.000000   0.000000   0.000000   0.000000
   10  NE 1  X    0.000000   0.000000   0.000000   0.000000   0.000000
   11  NE 1  Y    0.000000   0.000000   0.000000   0.000000   0.000000
   12  NE 1  Z    0.000000   0.000000   0.000000   0.000000   0.000000
   13  NE 1 XX    0.000000   0.000000   0.000000   0.000000   0.285828
   14  NE 1 YY    0.000000   0.000000   0.000000   0.000000   0.285828
   15  NE 1 ZZ    0.000000   0.000000   0.000000   0.000000  -0.571656
   16  NE 1 XY    0.000000   0.000000   0.000000   0.000000   0.000000
   17  NE 1 XZ    0.000000   0.000000   0.000000   0.000000   0.000000
   18  NE 1 YZ    0.000000   0.000000   0.000000   0.000000   0.000000
   19  NE 1 XX    0.000000   0.000000   0.000000   0.000000  -0.577451
   20  NE 1 YY    0.000000   0.000000   0.000000   0.000000  -0.577451
   21  NE 1 ZZ    0.000000   0.000000   0.000000   0.000000   1.154902
   22  NE 1 XY    0.000000   0.000000   0.000000   0.000000   0.000000
   23  NE 1 XZ    0.000000   0.000000   0.000000   0.000000   0.000000
   24  NE 1 YZ    0.000000   0.000000   0.000000   0.000000   0.000000
   25  NE 1 XXX   0.000000   0.000000   0.000000   0.000000   0.000000
   26  NE 1 YYY  -0.790569   0.000000   0.000000   0.000000   0.000000
   27  NE 1 ZZZ   0.000000   0.000000   1.000000   0.000000   0.000000
   28  NE 1 XXY   1.060660   0.000000   0.000000   0.000000   0.000000
   29  NE 1 XXZ   0.000000   0.866025  -0.670820   0.000000   0.000000
   30  NE 1 YYX   0.000000   0.000000   0.000000   0.000000   0.000000
   31  NE 1 YYZ   0.000000  -0.866025  -0.670820   0.000000   0.000000
   32  NE 1 ZZX   0.000000   0.000000   0.000000   0.000000   0.000000
   33  NE 1 ZZY   0.000000   0.000000   0.000000   0.000000   0.000000
   34  NE 1 XYZ   0.000000   0.000000   0.000000   1.000000   0.000000

                     26         27         28         29
                   11.5939    11.5939    11.5939    11.5939
                     B2G        AG         B1G        B3G 
    1  NE 1  S    0.000000   0.000000   0.000000   0.000000
    2  NE 1  X    0.000000   0.000000   0.000000   0.000000
    3  NE 1  Y    0.000000   0.000000   0.000000   0.000000
    4  NE 1  Z    0.000000   0.000000   0.000000   0.000000
    5  NE 1  S    0.000000   0.000000   0.000000   0.000000
    6  NE 1  S    0.000000   0.000000   0.000000   0.000000
    7  NE 1  X    0.000000   0.000000   0.000000   0.000000
    8  NE 1  Y    0.000000   0.000000   0.000000   0.000000
    9  NE 1  Z    0.000000   0.000000   0.000000   0.000000
   10  NE 1  X    0.000000   0.000000   0.000000   0.000000
   11  NE 1  Y    0.000000   0.000000   0.000000   0.000000
   12  NE 1  Z    0.000000   0.000000   0.000000   0.000000
   13  NE 1 XX    0.000000  -0.495068   0.000000   0.000000
   14  NE 1 YY    0.000000   0.495068   0.000000   0.000000
   15  NE 1 ZZ    0.000000   0.000000   0.000000   0.000000
   16  NE 1 XY    0.000000   0.000000  -0.571656   0.000000
   17  NE 1 XZ   -0.571656   0.000000   0.000000   0.000000
   18  NE 1 YZ    0.000000   0.000000   0.000000  -0.571656
   19  NE 1 XX    0.000000   1.000174   0.000000   0.000000
   20  NE 1 YY    0.000000  -1.000174   0.000000   0.000000
   21  NE 1 ZZ    0.000000   0.000000   0.000000   0.000000
   22  NE 1 XY    0.000000   0.000000   1.154902   0.000000
   23  NE 1 XZ    1.154902   0.000000   0.000000   0.000000
   24  NE 1 YZ    0.000000   0.000000   0.000000   1.154902
   25  NE 1 XXX   0.000000   0.000000   0.000000   0.000000
   26  NE 1 YYY   0.000000   0.000000   0.000000   0.000000
   27  NE 1 ZZZ   0.000000   0.000000   0.000000   0.000000
   28  NE 1 XXY   0.000000   0.000000   0.000000   0.000000
   29  NE 1 XXZ   0.000000   0.000000   0.000000   0.000000
   30  NE 1 YYX   0.000000   0.000000   0.000000   0.000000
   31  NE 1 YYZ   0.000000   0.000000   0.000000   0.000000
   32  NE 1 ZZX   0.000000   0.000000   0.000000   0.000000
   33  NE 1 ZZY   0.000000   0.000000   0.000000   0.000000
   34  NE 1 XYZ   0.000000   0.000000   0.000000   0.000000
 ...... END OF ROHF CALCULATION ......
 STEP CPU TIME =     0.01 TOTAL CPU TIME =        0.1 (    0.0 MIN)
 TOTAL WALL CLOCK TIME=        0.5 SECONDS, CPU UTILIZATION IS  12.77%

     ----------------------------------------------------------------
     PROPERTY VALUES FOR THE ROHF  SELF-CONSISTENT FIELD WAVEFUNCTION
     ----------------------------------------------------------------

          -----------------
          ENERGY COMPONENTS
          -----------------

         WAVEFUNCTION NORMALIZATION =       1.0000000000

                ONE ELECTRON ENERGY =     -60.4301200579
                TWO ELECTRON ENERGY =      25.7213014876
           NUCLEAR REPULSION ENERGY =       0.0000000000
                                      ------------------
                       TOTAL ENERGY =     -34.7088185703

 ELECTRON-ELECTRON POTENTIAL ENERGY =      25.7213014876
  NUCLEUS-ELECTRON POTENTIAL ENERGY =     -88.4725675777
   NUCLEUS-NUCLEUS POTENTIAL ENERGY =       0.0000000000
                                      ------------------
             TOTAL POTENTIAL ENERGY =     -62.7512660901
               TOTAL KINETIC ENERGY =      28.0424475198
                 VIRIAL RATIO (V/T) =       2.2377242944

          ---------------------------------------
          MULLIKEN AND LOWDIN POPULATION ANALYSES
          ---------------------------------------

     ATOMIC MULLIKEN POPULATION IN EACH MOLECULAR ORBITAL

                      1          2          3          4

                  2.000000   2.000000   2.000000   2.000000

    1             2.000000   2.000000   2.000000   2.000000

          MULLIKEN SPHERICAL HARMONIC POPULATIONS
       ATOM           S       P       D      F      G      H      I    TOTAL
    1 NE            1.00    3.00    0.00   0.00   0.00   0.00   0.00    4.00

          MULLIKEN SPHERICAL HARMONIC POPULATIONS
       ATOM           S       P       D      F      G      H      I    TOTAL
    1 NE            1.00    3.00    0.00   0.00   0.00   0.00   0.00    4.00

     ATOMIC SPIN POPULATION (ALPHA MINUS BETA)
       ATOM         MULL.POP.                    LOW.POP.
    1 NE            0.000000                     0.000000

               ----- POPULATIONS IN EACH AO -----
                             MULLIKEN      LOWDIN
              1  NE 1  S      1.99999     0.47685
              2  NE 1  X      2.00000     1.00708
              3  NE 1  Y      2.00000     1.00708
              4  NE 1  Z      2.00000     1.00708
              5  NE 1  S     -0.00002     0.23339
              6  NE 1  S      0.00002     0.35837
              7  NE 1  X      0.00000     0.19295
              8  NE 1  Y      0.00000     0.19295
              9  NE 1  Z      0.00000     0.19295
             10  NE 1  X      0.00000     0.35209
             11  NE 1  Y      0.00000     0.35209
             12  NE 1  Z      0.00000     0.35209
             13  NE 1 XX      0.00000     0.13127
             14  NE 1 YY      0.00000     0.13127
             15  NE 1 ZZ      0.00000     0.13127
             16  NE 1 XY      0.00000     0.00000
             17  NE 1 XZ      0.00000     0.00000
             18  NE 1 YZ      0.00000     0.00000
             19  NE 1 XX      0.00000     0.17920
             20  NE 1 YY      0.00000     0.17920
             21  NE 1 ZZ      0.00000     0.17920
             22  NE 1 XY      0.00000     0.00000
             23  NE 1 XZ      0.00000     0.00000
             24  NE 1 YZ      0.00000     0.00000
             25  NE 1 XXX     0.00000     0.23148
             26  NE 1 YYY     0.00000     0.23148
             27  NE 1 ZZZ     0.00000     0.23148
             28  NE 1 XXY     0.00000     0.10820
             29  NE 1 XXZ     0.00000     0.10820
             30  NE 1 YYX     0.00000     0.10820
             31  NE 1 YYZ     0.00000     0.10820
             32  NE 1 ZZX     0.00000     0.10820
             33  NE 1 ZZY     0.00000     0.10820
             34  NE 1 XYZ     0.00000     0.00000

          ----- MULLIKEN ATOMIC OVERLAP POPULATIONS -----
          (OFF-DIAGONAL ELEMENTS NEED TO BE MULTIPLIED BY 2)

             1

    1    8.0000000

          TOTAL MULLIKEN AND LOWDIN ATOMIC POPULATIONS
       ATOM         MULL.POP.    CHARGE          LOW.POP.     CHARGE
    1 NE            8.000000    0.000000         8.000000   -0.000000

          MULLIKEN SPHERICAL HARMONIC POPULATIONS
       ATOM           S       P       D      F      G      H      I    TOTAL
    1 NE            2.00    6.00    0.00   0.00   0.00   0.00   0.00    8.00

          -------------------------------
          BOND ORDER AND VALENCE ANALYSIS     BOND ORDER THRESHOLD=0.050
          -------------------------------

                   BOND                       BOND                       BOND
  ATOM PAIR DIST  ORDER      ATOM PAIR DIST  ORDER      ATOM PAIR DIST  ORDER

                       TOTAL       BONDED        FREE
      ATOM            VALENCE     VALENCE     VALENCE
    1 NE                0.000       0.000       0.000

          -----------------------------------------
          ATOMIC SPIN DENSITY AT THE NUCLEUS (A.U.)
          -----------------------------------------
                            SPIN DENS    ALPHA DENS     BETA DENS
    1  NE           8.0     0.0000000       0.11315       0.11315

          ---------------------
          ELECTROSTATIC MOMENTS
          ---------------------

 POINT   1           X           Y           Z (BOHR)    CHARGE
                 0.000000    0.000000    0.000000        0.00 (A.U.)
         DX          DY          DZ         /D/  (DEBYE)
     0.000000    0.000000    0.000000    0.000000
 ...... END OF PROPERTY EVALUATION ......
 STEP CPU TIME =     0.00 TOTAL CPU TIME =        0.1 (    0.0 MIN)
 TOTAL WALL CLOCK TIME=        0.5 SECONDS, CPU UTILIZATION IS  12.50%
                580000  WORDS OF DYNAMIC MEMORY USED
 EXECUTION OF GAMESS TERMINATED NORMALLY Wed Feb  6 12:42:50 2019
 DDI: 263624 bytes (0.3 MB / 0 MWords) used by master data server.

 ----------------------------------------
 CPU timing information for all processes
 ========================================
 0: 0.38 + 0.38 = 0.76
 ----------------------------------------
 ddikick.x: exited gracefully.
----- accounting info -----
Files used on the master node login1.stampede2.tacc.utexas.edu were:
-rw------- 1 aannabe G-801537    1311 Feb  6 12:42 /tmp/Ne.F05
-rw------- 1 aannabe G-801537  360032 Feb  6 12:42 /tmp/Ne.F08
-rw------- 1 aannabe G-801537 2617600 Feb  6 12:42 /tmp/Ne.F10
Wed Feb  6 12:42:53 CST 2019
0.234u 0.167s 0:04.06 9.6%	0+0k 0+32io 0pf+0w
