TACC:  Starting up job 2812548 
TACC:  Starting parallel tasks... 
  Input file(s): Ni.log.qmc.in-wfj.xml 

=====================================================
                    QMCPACK 3.6.0

       (c) Copyright 2003-  QMCPACK developers

                    Please cite:
 J. Kim et al. J. Phys. Cond. Mat. 30 195901 (2018)
      https://doi.org/10.1088/1361-648X/aab9c3

  Git branch: develop
  Last git commit: 8025d469c3748fa6a35dc38bfa5b192a28e9e66e
  Last git commit date: Mon Jan 14 15:08:34 2019 -0600
  Last git commit subject: Merge pull request #1314 from prckent/update_citations
=====================================================
  Global options 

  MPI Nodes             = 1024
  MPI Nodes per group   = 1024
  MPI Group ID          = 0
  OMP 1st level threads = 1
  OMP nested threading disabled or only 1 thread on the 2nd level

  Precision used in this calculation, see definitions in the manual:
  Base precision      = double
  Full precision      = double

  Structure-of-arrays (SoA) optimization enabled

  Input XML = Ni.log.qmc.in-wfj.xml

  Project = Ni.log
  date    = 2019-01-23 16:14:11 CST
  host    = c455-003.stampede2.tacc.utexas.edu

 Random Number
 -------------
  Offset for the random number seeds based on time: 819

  Range of prime numbers to use as seeds over processors and threads = 6311-15809


 Particle Set 
 ------------
  Name: ion0
  All the species have the same mass 1
  Particle set size: 1

 Particle Set 
 ------------
  Name: e
  All the species have the same mass 1
  Particle set size: 18

 Wavefunction setup: 
 ------------------- 
  Name: psi0
  LCAO: SoaAtomicBasisSet<MultiQuintic,1>

  Distance table for similar particles (A-A):
    source/target: e
    Using structure-of-arrays (SoA) data layout
    Distance computations use open boundary conditions in 3D.


  Distance table for dissimilar particles (A-B):
    source: ion0  target: e
    Using structure-of-arrays (SoA) data layout
    Distance computations use open boundary conditions in 3D.

Reading BasisSet from HDF5 file:Ni.log.h5
<input node="atomicBasisSet" name="gaussian" expandYlm="pyscf" angular="spherical" elementType="Ni" normalized="no" type="Numerical" expM="0" />
  AO BasisSet for Ni
   Spherical Harmonics contain (-1)^m factor
   Angular momentum m expanded as -l, ... ,l, with the exception of L=1 (1,-1,0)
   Grid is created by the input paremters in h5
    Using log grid ri = 1e-06 rf = 100 npts = 1001
   R(n,l,m,s) 0 0 0 0
   R(n,l,m,s) 1 0 0 0
   R(n,l,m,s) 2 0 0 0
   R(n,l,m,s) 3 0 0 0
   R(n,l,m,s) 4 0 0 0
   R(n,l,m,s) 5 0 0 0
   R(n,l,m,s) 6 0 0 0
   R(n,l,m,s) 7 1 0 0
   R(n,l,m,s) 8 1 0 0
   R(n,l,m,s) 9 1 0 0
   R(n,l,m,s) 10 1 0 0
   R(n,l,m,s) 11 1 0 0
   R(n,l,m,s) 12 1 0 0
   R(n,l,m,s) 13 1 0 0
   R(n,l,m,s) 14 2 0 0
   R(n,l,m,s) 15 2 0 0
   R(n,l,m,s) 16 2 0 0
   R(n,l,m,s) 17 2 0 0
   R(n,l,m,s) 18 2 0 0
   R(n,l,m,s) 19 2 0 0
   R(n,l,m,s) 20 3 0 0
   R(n,l,m,s) 21 3 0 0
   R(n,l,m,s) 22 3 0 0
   R(n,l,m,s) 23 3 0 0
   R(n,l,m,s) 24 4 0 0
   R(n,l,m,s) 25 4 0 0
   R(n,l,m,s) 26 4 0 0
Expanding Ylm as L=1 as (1,-1,0) and L>1 as -l,-l+1,...,l-1,l
   Adding 1 spherical orbitals
   Adding 1 spherical orbitals
   Adding 1 spherical orbitals
   Adding 1 spherical orbitals
   Adding 1 spherical orbitals
   Adding 1 spherical orbitals
   Adding 1 spherical orbitals
   Adding 3 spherical orbitals
   Adding 3 spherical orbitals
   Adding 3 spherical orbitals
   Adding 3 spherical orbitals
   Adding 3 spherical orbitals
   Adding 3 spherical orbitals
   Adding 3 spherical orbitals
   Adding 5 spherical orbitals
   Adding 5 spherical orbitals
   Adding 5 spherical orbitals
   Adding 5 spherical orbitals
   Adding 5 spherical orbitals
   Adding 5 spherical orbitals
   Adding 7 spherical orbitals
   Adding 7 spherical orbitals
   Adding 7 spherical orbitals
   Adding 7 spherical orbitals
   Adding 9 spherical orbitals
   Adding 9 spherical orbitals
   Adding 9 spherical orbitals
   Maximum Angular Momentum  = 4
   Number of Radial functors = 27
   Basis size                = 113

  Created SPOSet builder named 'LCAOBSet' of type molecularorbital
Reuse SPOSetBuilder "LCAOBSet" type MolecularOrbital
  Building SPOSet '' with '' basis set.
Reuse SPOSetBuilder "LCAOBSet" type MolecularOrbital
  Building SPOSet '' with '' basis set.
  Creating a determinant updet group=0 sposet=updet
  Reusing a SPO set updet
Using DiracDeterminant
Using rank-1 Sherman-Morrison Fahy update

  Creating a determinant downdet group=1 sposet=downdet
  Reusing a SPO set downdet
Using DiracDeterminant
Using rank-1 Sherman-Morrison Fahy update

  FermionWF = SlaterDet
  RadialJastrowBuilder adds a functor with cusp = -0.25
 size = 10 parameters 
 cusp = -0.25
 rcut = 12.1
Parameter     Name      Value
uu_0 0 1 1  ON 0
uu_1 0 1 1  ON 1
uu_2 0 1 1  ON 2
uu_3 0 1 1  ON 3
uu_4 0 1 1  ON 4
uu_5 0 1 1  ON 5
uu_6 0 1 1  ON 6
uu_7 0 1 1  ON 7
uu_8 0 1 1  ON 8
uu_9 0 1 1  ON 9
  RadialJastrowBuilder adds a functor with cusp = -0.5
 size = 10 parameters 
 cusp = -0.5
 rcut = 12.1
Parameter     Name      Value
ud_0 0 1 1  ON 0
ud_1 0 1 1  ON 1
ud_2 0 1 1  ON 2
ud_3 0 1 1  ON 3
ud_4 0 1 1  ON 4
ud_5 0 1 1  ON 5
ud_6 0 1 1  ON 6
ud_7 0 1 1  ON 7
ud_8 0 1 1  ON 8
ud_9 0 1 1  ON 9
 size = 10 parameters 
 cusp = 0
 rcut = 12.1
Parameter     Name      Value
eNi_0 0 1 1  ON 0
eNi_1 0 1 1  ON 1
eNi_2 0 1 1  ON 2
eNi_3 0 1 1  ON 3
eNi_4 0 1 1  ON 4
eNi_5 0 1 1  ON 5
eNi_6 0 1 1  ON 6
eNi_7 0 1 1  ON 7
eNi_8 0 1 1  ON 8
eNi_9 0 1 1  ON 9
Expected 26 parameters, but found 0 in PolynomialFunctor3D.
Expected 26 parameters, but found 0 in PolynomialFunctor3D.
  QMCHamiltonian::addOperator Kinetic to H, physical Hamiltonian 
  QMCHamiltonian::addOperator ElecElec to H, physical Hamiltonian 
QMCHamiltonian::addOperatorType added type coulomb named ElecElec
  CoulombAA for ion0 is not created.  Number of particles == 1 and nonPeriodic

  ECPotential builder for pseudopotential 

  Adding pseudopotential for Ni
   Linear grid  ri=0 rf=10 npts = 10001
    ECPComponentBuilder::buildSemiLocalAndLocal 
    Assuming Hartree unit
   Number of angular momentum channels 3
   Maximum angular momentum channel 2
   Creating a Linear Grid Rmax=1.145
  Using global grid with delta = 0.001
   Making L=2 a local potential with a radial cutoff of 9.999
    Non-local pseudopotential parameters
    Maximum angular mementum = 1
    Number of non-local channels = 2
       l(0)=0
       l(1)=1
    Cutoff radius = 1.145
    Spherical grids and weights: 
                        1                 0                 0       0.08333333333
                       -1   1.224646799e-16                 0       0.08333333333
             0.4472135955       0.894427191                 0       0.08333333333
            -0.4472135955      0.7236067977      0.5257311121       0.08333333333
             0.4472135955      0.2763932023      0.8506508084       0.08333333333
            -0.4472135955     -0.2763932023      0.8506508084       0.08333333333
             0.4472135955     -0.7236067977      0.5257311121       0.08333333333
            -0.4472135955      -0.894427191   1.095357397e-16       0.08333333333
             0.4472135955     -0.7236067977     -0.5257311121       0.08333333333
            -0.4472135955     -0.2763932023     -0.8506508084       0.08333333333
             0.4472135955      0.2763932023     -0.8506508084       0.08333333333
            -0.4472135955      0.7236067977     -0.5257311121       0.08333333333
    Maximum cutoff radius 1.145
  QMCHamiltonian::addOperator LocalECP to H, physical Hamiltonian 

  Using NonLocalECP potential 
    Maximum grid on a sphere for NonLocalECPotential: 12
  QMCHamiltonian::addOperator NonLocalECP to H, physical Hamiltonian 
QMCHamiltonian::addOperatorType added type pseudo named PseudoPot

  QMCHamiltonian::add2WalkerProperty added
    4 to P::PropertyList 
    0 to P::Collectables 
    starting Index of the observables in P::PropertyList = 9
ParticleSetPool::randomize 
<init source="ion0" target="e">
</init>
  Initialization Execution time = 0.6762 secs
=========================================================
 Summary of QMC systems 
=========================================================
ParticleSetPool has: 

  ParticleSet e : 0 10 18 

    18

    u -6.1612253133e-01 -2.9647695088e-01  2.0696140630e+00
    u -3.3029708610e+00 -6.9380758191e-01 -1.5421414241e+00
    u  8.4399244091e-01  1.0524165900e+00 -9.0708007671e-01
    u -9.6517706100e-01 -6.4814447583e-01 -7.0358987041e-01
    u -9.0183354001e-01 -1.9217231425e-01  3.2139705964e-01
    u  5.3891786161e-03  2.3976152219e+00  2.0909195133e-01
    u -3.1401435753e+00  1.7510308877e+00  2.9192304335e-01
    u -1.4547448021e+00 -2.2416262230e+00  1.1524114863e+00
    u -7.9102846446e-02 -6.0900448230e-01  1.7356009274e+00
    u -1.0990990596e+00  2.9880945960e+00  1.7730259453e+00
    (... and 8 more particle positions ...)

  ParticleSet ion0 : 0 1 

    1

    Ni  0.0000000000e+00  0.0000000000e+00  0.0000000000e+00

  Hamiltonian h0
  Kinetic         Kinetic energy
  ElecElec        CoulombAA source/target e

  LocalECP        LocalECPotential: ion0
  NonLocalECP     NonLocalECPotential: ion0

=========================================================
  Start VMC
  File Root Ni.log.s000 append = no 
=========================================================
  Adding 1 walkers to 0 existing sets
  Total number of walkers: 1.0240000000e+03
  Total weight: 1.0240000000e+03
  Resetting Properties of the walkers 1 x 13

<vmc function="put">
  qmc_counter=0  my_counter=0
  time step      = 1.5000000000e-01
  blocks         = 200
  steps          = 1
  substeps       = 5
  current        = 0
  target samples = 1.0240000000e+03
  walkers/mpi    = 1

  stepsbetweensamples = 200
<parameter name="blocks" condition="int">200</parameter>
<parameter name="blocks_between_recompute" condition="int">0</parameter>
<parameter name="check_properties" condition="int">100</parameter>
<parameter name="checkproperties" condition="int">100</parameter>
<parameter name="current" condition="int">0</parameter>
<parameter name="dmcwalkersperthread" condition="real">1.0000000000e+00</parameter>
<parameter name="maxcpusecs" condition="real">3.6000000000e+05</parameter>
<parameter name="record_configs" condition="int">0</parameter>
<parameter name="record_walkers" condition="int">200</parameter>
<parameter name="recordconfigs" condition="int">0</parameter>
<parameter name="recordwalkers" condition="int">200</parameter>
<parameter name="rewind" condition="int">0</parameter>
<parameter name="samples" condition="real">1.0240000000e+03</parameter>
<parameter name="samplesperthread" condition="real">1.0000000000e+00</parameter>
<parameter name="steps" condition="int">1</parameter>
<parameter name="stepsbetweensamples" condition="int">200</parameter>
<parameter name="store_configs" condition="int">0</parameter>
<parameter name="storeconfigs" condition="int">0</parameter>
<parameter name="sub_steps" condition="int">5</parameter>
<parameter name="substeps" condition="int">5</parameter>
<parameter name="tau" condition="au">1.5000000000e-01</parameter>
<parameter name="time_step" condition="au">1.5000000000e-01</parameter>
<parameter name="timestep" condition="au">1.5000000000e-01</parameter>
<parameter name="use_drift" condition="string">no</parameter>
<parameter name="usedrift" condition="string">no</parameter>
<parameter name="walkers" condition="int">1</parameter>
<parameter name="warmup_steps" condition="int">100</parameter>
<parameter name="warmupsteps" condition="int">100</parameter>
  DumpConfig==false Nothing (configurations, state) will be saved.
  Walker Samples are dumped every 200 steps.
</vmc>
  Initial partition of walkers 0 1 

  Using Particle by Particle moves
  Walker moves without drift
  Total Sample Size   =1024
  Walker distribution on root = 0 1 
  Using Locality Approximation
===== Memory Usage after the buffer registration =====
Available memory on node 0, free + buffers : 85328 MB
Memory footprint by rank 0 on node 0       : 75 MB
==================================================
  Anonymous Buffer size per walker : 10208 Bytes.
MEMORY increase 0 MB VMC::resetRun
====================================================
  SimpleFixedNodeBranch::finalize after a VMC block
    QMC counter        = 0
    time step          = 0.15
    reference energy   = -168.627
    reference variance = 8.19764
====================================================
  QMC Execution time = 1.9465e+00 secs
Loop execution max-interations = 5

=========================================================
  Start QMCFixedSampleLinearOptimize
  File Root Ni.log.s001 append = no 
=========================================================
  Skip QMCDriver::putQMCInfo 
  Resetting Properties of the walkers 1 x 13

=========================================================
  Start VMC
  File Root Ni.log.s001 append = no 
=========================================================
  Using the current 1 walkers.
  Total number of walkers: 1.0240e+03
  Total weight: 1.0240e+03
  Resetting Properties of the walkers 1 x 13

<vmc function="put">
  qmc_counter=0  my_counter=0
  time step      = 1.5000e-01
  blocks         = 400
  steps          = 1
  substeps       = 5
  current        = 0
  target samples = 2.5600e+05
  walkers/mpi    = 1

  stepsbetweensamples = 1
<parameter name="blocks" condition="int">400</parameter>
<parameter name="blocks_between_recompute" condition="int">0</parameter>
<parameter name="check_properties" condition="int">100</parameter>
<parameter name="checkproperties" condition="int">100</parameter>
<parameter name="current" condition="int">0</parameter>
<parameter name="dmcwalkersperthread" condition="real">2.5000e+02</parameter>
<parameter name="maxcpusecs" condition="real">3.6000e+05</parameter>
<parameter name="record_configs" condition="int">0</parameter>
<parameter name="record_walkers" condition="int">1</parameter>
<parameter name="recordconfigs" condition="int">0</parameter>
<parameter name="recordwalkers" condition="int">1</parameter>
<parameter name="rewind" condition="int">0</parameter>
<parameter name="samples" condition="real">2.5600e+05</parameter>
<parameter name="samplesperthread" condition="real">2.5000e+02</parameter>
<parameter name="steps" condition="int">1</parameter>
<parameter name="stepsbetweensamples" condition="int">1</parameter>
<parameter name="store_configs" condition="int">0</parameter>
<parameter name="storeconfigs" condition="int">0</parameter>
<parameter name="sub_steps" condition="int">5</parameter>
<parameter name="substeps" condition="int">5</parameter>
<parameter name="tau" condition="au">1.5000e-01</parameter>
<parameter name="time_step" condition="au">1.5000e-01</parameter>
<parameter name="timestep" condition="au">1.5000e-01</parameter>
<parameter name="use_drift" condition="string">no</parameter>
<parameter name="usedrift" condition="string">no</parameter>
<parameter name="walkers" condition="int">1</parameter>
<parameter name="warmup_steps" condition="int">0</parameter>
<parameter name="warmupsteps" condition="int">0</parameter>
  DumpConfig==false Nothing (configurations, state) will be saved.
  Walker Samples are dumped every 1 steps.
</vmc>
    Restarting, cummulative properties:
      energy     = -1.6863e+02
      variance   = 0.0000e+00
      r2accepted = 1.0000e-10
      r2proposed = 1.0000e-10
 Using QMCCostFunction::QMCCostFunction
  EstimatorManagerBase::add replace LocalEnergy estimator.
<optimization-report>
<vmc stage="main" blocks="400">
  Cannot make clones again. Use existing 1 clones
  Initial partition of walkers 0 1 

  Using Particle by Particle moves
  Walker moves without drift
  Total Sample Size   =256000
  Walker distribution on root = 0 1 
  Using Locality Approximation
===== Memory Usage after the buffer registration =====
Available memory on node 0, free + buffers : 85291 MB
Memory footprint by rank 0 on node 0       : 76 MB
==================================================
  Anonymous Buffer size per walker : 10208 Bytes.
MEMORY increase 0 MB VMC::resetRun
====================================================
  SimpleFixedNodeBranch::finalize after a VMC block
    QMC counter        = 1
    time step          = 0.15
    reference energy   = -168.761
    reference variance = 7.90798
====================================================
  Execution time = 3.7900e+00
</vmc>
<opt stage="setup">
  <log>
   Reading configurations from h5FileRoot Ni.log.s001
  QMCCostFunction is created with 1 threads.
  Using Nonlocal PP in Opt: NonLocalECP
   Number of samples loaded to each thread : 250 
  VMC Eavg = -1.6864e+02
  VMC Evar = 8.2576e+00
  Total weights = 2.5600e+05
  Execution time = 5.8172e-01
  </log>
</opt>
<opt stage="main" walkers="256000">
  <log>

*****************************************
Building overlap and Hamiltonian matrices
*****************************************

Among totally 30 optimized parameters, largest LM parameter change : 1.1605e+00 at parameter 20

******************************************************************************
Init Cost =   8.2576e+00    New Cost =   3.7574e+00  Delta Cost =  -4.5002e+00
******************************************************************************

The new set of parameters is valid. Updating the trial wave function!

*****************************************************************************
Applying the update for shift_i =   1.0000e-02     and shift_s =   2.5000e-01
*****************************************************************************
  Execution time = 5.9020e+00
  </log>
  <optVariables href="Ni.log.s001.opt.xml">
uu_0 1.1421e-01 1 1  ON 0
uu_1 2.8402e-03 1 1  ON 1
uu_2 -2.8271e-02 1 1  ON 2
uu_3 -3.3392e-02 1 1  ON 3
uu_4 -2.2074e-02 1 1  ON 4
uu_5 -8.9764e-03 1 1  ON 5
uu_6 -5.1487e-03 1 1  ON 6
uu_7 -4.2287e-03 1 1  ON 7
uu_8 -8.7015e-03 1 1  ON 8
uu_9 1.1767e-02 1 1  ON 9
ud_0 1.3265e-01 1 1  ON 10
ud_1 1.7241e-02 1 1  ON 11
ud_2 -2.9269e-02 1 1  ON 12
ud_3 -3.3792e-02 1 1  ON 13
ud_4 -2.7563e-02 1 1  ON 14
ud_5 -1.6481e-02 1 1  ON 15
ud_6 -1.1499e-02 1 1  ON 16
ud_7 -3.2480e-03 1 1  ON 17
ud_8 -5.6439e-03 1 1  ON 18
ud_9 2.5984e-03 1 1  ON 19
eNi_0 -1.1605e+00 1 1  ON 20
eNi_1 -1.1327e-01 1 1  ON 21
eNi_2 3.4811e-01 1 1  ON 22
eNi_3 4.4410e-01 1 1  ON 23
eNi_4 3.1314e-01 1 1  ON 24
eNi_5 1.3738e-01 1 1  ON 25
eNi_6 3.4089e-02 1 1  ON 26
eNi_7 2.2056e-03 1 1  ON 27
eNi_8 -1.8549e-03 1 1  ON 28
eNi_9 -4.9193e-04 1 1  ON 29
  </optVariables>
   Restore the number of walkers to 1, removing 0 walkers.
</opt>
</optimization-report>
  QMC Execution time = 5.9108e+00 secs
  Reusing QMCFixedSampleLinearOptimize
 Using QMCCostFunction::QMCCostFunction

=========================================================
  Start QMCFixedSampleLinearOptimize
  File Root Ni.log.s002 append = no 
=========================================================
  Skip QMCDriver::putQMCInfo 
  Resetting Properties of the walkers 1 x 13

=========================================================
  Start VMC
  File Root Ni.log.s002 append = no 
=========================================================
Using existing walkers 
  Resetting Properties of the walkers 1 x 13

<vmc function="put">
  qmc_counter=1  my_counter=1
  time step      = 1.5000e-01
  blocks         = 400
  steps          = 1
  substeps       = 5
  current        = 0
  target samples = 2.5600e+05
  walkers/mpi    = 1

  stepsbetweensamples = 1
<parameter name="blocks" condition="int">400</parameter>
<parameter name="blocks_between_recompute" condition="int">0</parameter>
<parameter name="check_properties" condition="int">100</parameter>
<parameter name="checkproperties" condition="int">100</parameter>
<parameter name="current" condition="int">0</parameter>
<parameter name="dmcwalkersperthread" condition="real">2.5000e+02</parameter>
<parameter name="maxcpusecs" condition="real">3.6000e+05</parameter>
<parameter name="record_configs" condition="int">0</parameter>
<parameter name="record_walkers" condition="int">1</parameter>
<parameter name="recordconfigs" condition="int">0</parameter>
<parameter name="recordwalkers" condition="int">1</parameter>
<parameter name="rewind" condition="int">0</parameter>
<parameter name="samples" condition="real">2.5600e+05</parameter>
<parameter name="samplesperthread" condition="real">2.5000e+02</parameter>
<parameter name="steps" condition="int">1</parameter>
<parameter name="stepsbetweensamples" condition="int">1</parameter>
<parameter name="store_configs" condition="int">0</parameter>
<parameter name="storeconfigs" condition="int">0</parameter>
<parameter name="sub_steps" condition="int">5</parameter>
<parameter name="substeps" condition="int">5</parameter>
<parameter name="tau" condition="au">1.5000e-01</parameter>
<parameter name="time_step" condition="au">1.5000e-01</parameter>
<parameter name="timestep" condition="au">1.5000e-01</parameter>
<parameter name="use_drift" condition="string">no</parameter>
<parameter name="usedrift" condition="string">no</parameter>
<parameter name="walkers" condition="int">1</parameter>
<parameter name="warmup_steps" condition="int">0</parameter>
<parameter name="warmupsteps" condition="int">0</parameter>
  DumpConfig==false Nothing (configurations, state) will be saved.
  Walker Samples are dumped every 1 steps.
</vmc>
  EstimatorManagerBase::add replace LocalEnergy estimator.
  EstimatorManagerBase::add replace LocalEnergy estimator.
<optimization-report>
<vmc stage="main" blocks="400">
  Cannot make clones again. Use existing 1 clones
  Initial partition of walkers 0 1 
  Using Particle by Particle moves
  Walker moves without drift
  Total Sample Size   =256000
  Walker distribution on root = 0 1 
  Using Locality Approximation
===== Memory Usage after the buffer registration =====
Available memory on node 0, free + buffers : 85270 MB
Memory footprint by rank 0 on node 0       : 78 MB
==================================================
====================================================
  SimpleFixedNodeBranch::finalize after a VMC block
    QMC counter        = 2
    time step          = 0.15
    reference energy   = -169.127
    reference variance = 3.59148
====================================================
  Execution time = 6.0186e+00
</vmc>
<opt stage="setup">
  <log>
   Reading configurations from h5FileRoot Ni.log.s002
  QMCCostFunction is created with 1 threads.
  Using Nonlocal PP in Opt: NonLocalECP
   Number of samples loaded to each thread : 250 
  VMC Eavg = -1.6915e+02
  VMC Evar = 3.4629e+00
  Total weights = 2.5600e+05
  Execution time = 1.5162e+00
  </log>
</opt>
<opt stage="main" walkers="256000">
  <log>

*****************************************
Building overlap and Hamiltonian matrices
*****************************************

Among totally 30 optimized parameters, largest LM parameter change : 4.7222e-01 at parameter 20

******************************************************************************
Init Cost =   3.4629e+00    New Cost =   3.8107e+00  Delta Cost =   3.4777e-01
******************************************************************************

The new set of parameters is valid. Updating the trial wave function!

*****************************************************************************
Applying the update for shift_i =   1.0000e-02     and shift_s =   6.2500e-02
*****************************************************************************
  Execution time = 8.9996e+00
  </log>
  <optVariables href="Ni.log.s002.opt.xml">
uu_0 1.5628e-01 1 1  ON 0
uu_1 1.2034e-02 1 1  ON 1
uu_2 -3.6948e-02 1 1  ON 2
uu_3 -4.9599e-02 1 1  ON 3
uu_4 -3.7913e-02 1 1  ON 4
uu_5 -2.1010e-02 1 1  ON 5
uu_6 -6.7192e-03 1 1  ON 6
uu_7 4.6668e-03 1 1  ON 7
uu_8 4.1940e-03 1 1  ON 8
uu_9 -1.0404e-03 1 1  ON 9
ud_0 1.8161e-01 1 1  ON 10
ud_1 3.5655e-02 1 1  ON 11
ud_2 -3.3475e-02 1 1  ON 12
ud_3 -4.6453e-02 1 1  ON 13
ud_4 -4.1426e-02 1 1  ON 14
ud_5 -2.3376e-02 1 1  ON 15
ud_6 -1.6150e-02 1 1  ON 16
ud_7 -1.1783e-02 1 1  ON 17
ud_8 -7.6781e-03 1 1  ON 18
ud_9 -5.5449e-03 1 1  ON 19
eNi_0 -1.6327e+00 1 1  ON 20
eNi_1 -2.9687e-01 1 1  ON 21
eNi_2 4.5380e-01 1 1  ON 22
eNi_3 6.5045e-01 1 1  ON 23
eNi_4 5.0721e-01 1 1  ON 24
eNi_5 2.4228e-01 1 1  ON 25
eNi_6 7.9776e-02 1 1  ON 26
eNi_7 2.2628e-03 1 1  ON 27
eNi_8 -1.3374e-03 1 1  ON 28
eNi_9 -2.9759e-03 1 1  ON 29
  </optVariables>
   Restore the number of walkers to 1, removing 0 walkers.
</opt>
</optimization-report>
  QMC Execution time = 9.0082e+00 secs
  Reusing QMCFixedSampleLinearOptimize
 Using QMCCostFunction::QMCCostFunction

=========================================================
  Start QMCFixedSampleLinearOptimize
  File Root Ni.log.s003 append = no 
=========================================================
  Skip QMCDriver::putQMCInfo 
  Resetting Properties of the walkers 1 x 13

=========================================================
  Start VMC
  File Root Ni.log.s003 append = no 
=========================================================
Using existing walkers 
  Resetting Properties of the walkers 1 x 13

<vmc function="put">
  qmc_counter=2  my_counter=2
  time step      = 1.5000e-01
  blocks         = 400
  steps          = 1
  substeps       = 5
  current        = 0
  target samples = 2.5600e+05
  walkers/mpi    = 1

  stepsbetweensamples = 1
<parameter name="blocks" condition="int">400</parameter>
<parameter name="blocks_between_recompute" condition="int">0</parameter>
<parameter name="check_properties" condition="int">100</parameter>
<parameter name="checkproperties" condition="int">100</parameter>
<parameter name="current" condition="int">0</parameter>
<parameter name="dmcwalkersperthread" condition="real">2.5000e+02</parameter>
<parameter name="maxcpusecs" condition="real">3.6000e+05</parameter>
<parameter name="record_configs" condition="int">0</parameter>
<parameter name="record_walkers" condition="int">1</parameter>
<parameter name="recordconfigs" condition="int">0</parameter>
<parameter name="recordwalkers" condition="int">1</parameter>
<parameter name="rewind" condition="int">0</parameter>
<parameter name="samples" condition="real">2.5600e+05</parameter>
<parameter name="samplesperthread" condition="real">2.5000e+02</parameter>
<parameter name="steps" condition="int">1</parameter>
<parameter name="stepsbetweensamples" condition="int">1</parameter>
<parameter name="store_configs" condition="int">0</parameter>
<parameter name="storeconfigs" condition="int">0</parameter>
<parameter name="sub_steps" condition="int">5</parameter>
<parameter name="substeps" condition="int">5</parameter>
<parameter name="tau" condition="au">1.5000e-01</parameter>
<parameter name="time_step" condition="au">1.5000e-01</parameter>
<parameter name="timestep" condition="au">1.5000e-01</parameter>
<parameter name="use_drift" condition="string">no</parameter>
<parameter name="usedrift" condition="string">no</parameter>
<parameter name="walkers" condition="int">1</parameter>
<parameter name="warmup_steps" condition="int">0</parameter>
<parameter name="warmupsteps" condition="int">0</parameter>
  DumpConfig==false Nothing (configurations, state) will be saved.
  Walker Samples are dumped every 1 steps.
</vmc>
  EstimatorManagerBase::add replace LocalEnergy estimator.
  EstimatorManagerBase::add replace LocalEnergy estimator.
<optimization-report>
<vmc stage="main" blocks="400">
  Cannot make clones again. Use existing 1 clones
  Initial partition of walkers 0 1 
  Using Particle by Particle moves
  Walker moves without drift
  Total Sample Size   =256000
  Walker distribution on root = 0 1 
  Using Locality Approximation
===== Memory Usage after the buffer registration =====
Available memory on node 0, free + buffers : 85266 MB
Memory footprint by rank 0 on node 0       : 80 MB
==================================================
====================================================
  SimpleFixedNodeBranch::finalize after a VMC block
    QMC counter        = 3
    time step          = 0.15
    reference energy   = -169.117
    reference variance = 2.72858
====================================================
  Execution time = 5.6365e+00
</vmc>
<opt stage="setup">
  <log>
   Reading configurations from h5FileRoot Ni.log.s003
  QMCCostFunction is created with 1 threads.
  Using Nonlocal PP in Opt: NonLocalECP
   Number of samples loaded to each thread : 250 
  VMC Eavg = -1.6919e+02
  VMC Evar = 3.6470e+00
  Total weights = 2.5600e+05
  Execution time = 1.4475e+00
  </log>
</opt>
<opt stage="main" walkers="256000">
  <log>

*****************************************
Building overlap and Hamiltonian matrices
*****************************************

Among totally 30 optimized parameters, largest LM parameter change : 1.7552e-01 at parameter 20

******************************************************************************
Init Cost =   3.6470e+00    New Cost =   3.7201e+00  Delta Cost =   7.3038e-02
******************************************************************************

The new set of parameters is valid. Updating the trial wave function!

*****************************************************************************
Applying the update for shift_i =   1.0000e-02     and shift_s =   1.5625e-02
*****************************************************************************
  Execution time = 8.2784e+00
  </log>
  <optVariables href="Ni.log.s003.opt.xml">
uu_0 1.6330e-01 1 1  ON 0
uu_1 1.6352e-02 1 1  ON 1
uu_2 -3.7945e-02 1 1  ON 2
uu_3 -5.5861e-02 1 1  ON 3
uu_4 -4.8373e-02 1 1  ON 4
uu_5 -2.8815e-02 1 1  ON 5
uu_6 -1.2131e-02 1 1  ON 6
uu_7 -1.3740e-02 1 1  ON 7
uu_8 -1.3785e-02 1 1  ON 8
uu_9 7.3251e-03 1 1  ON 9
ud_0 1.9126e-01 1 1  ON 10
ud_1 4.2962e-02 1 1  ON 11
ud_2 -3.2238e-02 1 1  ON 12
ud_3 -5.2027e-02 1 1  ON 13
ud_4 -5.4650e-02 1 1  ON 14
ud_5 -3.7813e-02 1 1  ON 15
ud_6 -2.2138e-02 1 1  ON 16
ud_7 -2.0291e-02 1 1  ON 17
ud_8 -2.0205e-02 1 1  ON 18
ud_9 -1.8889e-02 1 1  ON 19
eNi_0 -1.8082e+00 1 1  ON 20
eNi_1 -4.3405e-01 1 1  ON 21
eNi_2 3.8980e-01 1 1  ON 22
eNi_3 7.0093e-01 1 1  ON 23
eNi_4 6.5879e-01 1 1  ON 24
eNi_5 3.6938e-01 1 1  ON 25
eNi_6 1.1611e-01 1 1  ON 26
eNi_7 6.3038e-03 1 1  ON 27
eNi_8 -5.7744e-05 1 1  ON 28
eNi_9 -2.6088e-03 1 1  ON 29
  </optVariables>
   Restore the number of walkers to 1, removing 0 walkers.
</opt>
</optimization-report>
  QMC Execution time = 8.3158e+00 secs
  Reusing QMCFixedSampleLinearOptimize
 Using QMCCostFunction::QMCCostFunction

=========================================================
  Start QMCFixedSampleLinearOptimize
  File Root Ni.log.s004 append = no 
=========================================================
  Skip QMCDriver::putQMCInfo 
  Resetting Properties of the walkers 1 x 13

=========================================================
  Start VMC
  File Root Ni.log.s004 append = no 
=========================================================
Using existing walkers 
  Resetting Properties of the walkers 1 x 13

<vmc function="put">
  qmc_counter=3  my_counter=3
  time step      = 1.5000e-01
  blocks         = 400
  steps          = 1
  substeps       = 5
  current        = 0
  target samples = 2.5600e+05
  walkers/mpi    = 1

  stepsbetweensamples = 1
<parameter name="blocks" condition="int">400</parameter>
<parameter name="blocks_between_recompute" condition="int">0</parameter>
<parameter name="check_properties" condition="int">100</parameter>
<parameter name="checkproperties" condition="int">100</parameter>
<parameter name="current" condition="int">0</parameter>
<parameter name="dmcwalkersperthread" condition="real">2.5000e+02</parameter>
<parameter name="maxcpusecs" condition="real">3.6000e+05</parameter>
<parameter name="record_configs" condition="int">0</parameter>
<parameter name="record_walkers" condition="int">1</parameter>
<parameter name="recordconfigs" condition="int">0</parameter>
<parameter name="recordwalkers" condition="int">1</parameter>
<parameter name="rewind" condition="int">0</parameter>
<parameter name="samples" condition="real">2.5600e+05</parameter>
<parameter name="samplesperthread" condition="real">2.5000e+02</parameter>
<parameter name="steps" condition="int">1</parameter>
<parameter name="stepsbetweensamples" condition="int">1</parameter>
<parameter name="store_configs" condition="int">0</parameter>
<parameter name="storeconfigs" condition="int">0</parameter>
<parameter name="sub_steps" condition="int">5</parameter>
<parameter name="substeps" condition="int">5</parameter>
<parameter name="tau" condition="au">1.5000e-01</parameter>
<parameter name="time_step" condition="au">1.5000e-01</parameter>
<parameter name="timestep" condition="au">1.5000e-01</parameter>
<parameter name="use_drift" condition="string">no</parameter>
<parameter name="usedrift" condition="string">no</parameter>
<parameter name="walkers" condition="int">1</parameter>
<parameter name="warmup_steps" condition="int">0</parameter>
<parameter name="warmupsteps" condition="int">0</parameter>
  DumpConfig==false Nothing (configurations, state) will be saved.
  Walker Samples are dumped every 1 steps.
</vmc>
  EstimatorManagerBase::add replace LocalEnergy estimator.
  EstimatorManagerBase::add replace LocalEnergy estimator.
<optimization-report>
<vmc stage="main" blocks="400">
  Cannot make clones again. Use existing 1 clones
  Initial partition of walkers 0 1 
  Using Particle by Particle moves
  Walker moves without drift
  Total Sample Size   =256000
  Walker distribution on root = 0 1 
  Using Locality Approximation
===== Memory Usage after the buffer registration =====
Available memory on node 0, free + buffers : 85263 MB
Memory footprint by rank 0 on node 0       : 83 MB
==================================================
====================================================
  SimpleFixedNodeBranch::finalize after a VMC block
    QMC counter        = 4
    time step          = 0.15
    reference energy   = -169.128
    reference variance = 3.09342
====================================================
  Execution time = 5.1862e+00
</vmc>
<opt stage="setup">
  <log>
   Reading configurations from h5FileRoot Ni.log.s004
  QMCCostFunction is created with 1 threads.
  Using Nonlocal PP in Opt: NonLocalECP
   Number of samples loaded to each thread : 250 
  VMC Eavg = -1.6919e+02
  VMC Evar = 3.6891e+00
  Total weights = 2.5600e+05
  Execution time = 1.2053e+00
  </log>
</opt>
<opt stage="main" walkers="256000">
  <log>

*****************************************
Building overlap and Hamiltonian matrices
*****************************************

Among totally 30 optimized parameters, largest LM parameter change : 1.1658e-01 at parameter 25

******************************************************************************
Init Cost =   3.6891e+00    New Cost =   3.7162e+00  Delta Cost =   2.7042e-02
******************************************************************************

The new set of parameters is valid. Updating the trial wave function!

*****************************************************************************
Applying the update for shift_i =   1.0000e-02     and shift_s =   3.9062e-03
*****************************************************************************
  Execution time = 7.4838e+00
  </log>
  <optVariables href="Ni.log.s004.opt.xml">
uu_0 1.6242e-01 1 1  ON 0
uu_1 1.3687e-02 1 1  ON 1
uu_2 -4.1211e-02 1 1  ON 2
uu_3 -6.3372e-02 1 1  ON 3
uu_4 -5.9843e-02 1 1  ON 4
uu_5 -4.4730e-02 1 1  ON 5
uu_6 -1.8347e-02 1 1  ON 6
uu_7 -4.5782e-03 1 1  ON 7
uu_8 -6.1257e-03 1 1  ON 8
uu_9 1.0137e-02 1 1  ON 9
ud_0 1.9447e-01 1 1  ON 10
ud_1 4.5359e-02 1 1  ON 11
ud_2 -3.1273e-02 1 1  ON 12
ud_3 -5.3157e-02 1 1  ON 13
ud_4 -6.2328e-02 1 1  ON 14
ud_5 -4.5353e-02 1 1  ON 15
ud_6 -2.5865e-02 1 1  ON 16
ud_7 -1.3977e-02 1 1  ON 17
ud_8 -2.0977e-02 1 1  ON 18
ud_9 -1.8950e-02 1 1  ON 19
eNi_0 -1.8982e+00 1 1  ON 20
eNi_1 -5.0912e-01 1 1  ON 21
eNi_2 3.3163e-01 1 1  ON 22
eNi_3 6.7129e-01 1 1  ON 23
eNi_4 7.2063e-01 1 1  ON 24
eNi_5 4.8596e-01 1 1  ON 25
eNi_6 1.8098e-01 1 1  ON 26
eNi_7 1.3952e-02 1 1  ON 27
eNi_8 -3.7566e-03 1 1  ON 28
eNi_9 -5.4608e-04 1 1  ON 29
  </optVariables>
   Restore the number of walkers to 1, removing 0 walkers.
</opt>
</optimization-report>
  QMC Execution time = 7.4919e+00 secs
  Reusing QMCFixedSampleLinearOptimize
 Using QMCCostFunction::QMCCostFunction

=========================================================
  Start QMCFixedSampleLinearOptimize
  File Root Ni.log.s005 append = no 
=========================================================
  Skip QMCDriver::putQMCInfo 
  Resetting Properties of the walkers 1 x 13

=========================================================
  Start VMC
  File Root Ni.log.s005 append = no 
=========================================================
Using existing walkers 
  Resetting Properties of the walkers 1 x 13

<vmc function="put">
  qmc_counter=4  my_counter=4
  time step      = 1.5000e-01
  blocks         = 400
  steps          = 1
  substeps       = 5
  current        = 0
  target samples = 2.5600e+05
  walkers/mpi    = 1

  stepsbetweensamples = 1
<parameter name="blocks" condition="int">400</parameter>
<parameter name="blocks_between_recompute" condition="int">0</parameter>
<parameter name="check_properties" condition="int">100</parameter>
<parameter name="checkproperties" condition="int">100</parameter>
<parameter name="current" condition="int">0</parameter>
<parameter name="dmcwalkersperthread" condition="real">2.5000e+02</parameter>
<parameter name="maxcpusecs" condition="real">3.6000e+05</parameter>
<parameter name="record_configs" condition="int">0</parameter>
<parameter name="record_walkers" condition="int">1</parameter>
<parameter name="recordconfigs" condition="int">0</parameter>
<parameter name="recordwalkers" condition="int">1</parameter>
<parameter name="rewind" condition="int">0</parameter>
<parameter name="samples" condition="real">2.5600e+05</parameter>
<parameter name="samplesperthread" condition="real">2.5000e+02</parameter>
<parameter name="steps" condition="int">1</parameter>
<parameter name="stepsbetweensamples" condition="int">1</parameter>
<parameter name="store_configs" condition="int">0</parameter>
<parameter name="storeconfigs" condition="int">0</parameter>
<parameter name="sub_steps" condition="int">5</parameter>
<parameter name="substeps" condition="int">5</parameter>
<parameter name="tau" condition="au">1.5000e-01</parameter>
<parameter name="time_step" condition="au">1.5000e-01</parameter>
<parameter name="timestep" condition="au">1.5000e-01</parameter>
<parameter name="use_drift" condition="string">no</parameter>
<parameter name="usedrift" condition="string">no</parameter>
<parameter name="walkers" condition="int">1</parameter>
<parameter name="warmup_steps" condition="int">0</parameter>
<parameter name="warmupsteps" condition="int">0</parameter>
  DumpConfig==false Nothing (configurations, state) will be saved.
  Walker Samples are dumped every 1 steps.
</vmc>
  EstimatorManagerBase::add replace LocalEnergy estimator.
  EstimatorManagerBase::add replace LocalEnergy estimator.
<optimization-report>
<vmc stage="main" blocks="400">
  Cannot make clones again. Use existing 1 clones
  Initial partition of walkers 0 1 
  Using Particle by Particle moves
  Walker moves without drift
  Total Sample Size   =256000
  Walker distribution on root = 0 1 
  Using Locality Approximation
===== Memory Usage after the buffer registration =====
Available memory on node 0, free + buffers : 85260 MB
Memory footprint by rank 0 on node 0       : 86 MB
==================================================
====================================================
  SimpleFixedNodeBranch::finalize after a VMC block
    QMC counter        = 5
    time step          = 0.15
    reference energy   = -169.16
    reference variance = 3.28878
====================================================
  Execution time = 4.8214e+00
</vmc>
<opt stage="setup">
  <log>
   Reading configurations from h5FileRoot Ni.log.s005
  QMCCostFunction is created with 1 threads.
  Using Nonlocal PP in Opt: NonLocalECP
   Number of samples loaded to each thread : 250 
  VMC Eavg = -1.6919e+02
  VMC Evar = 3.7562e+00
  Total weights = 2.5600e+05
  Execution time = 1.1074e+00
  </log>
</opt>
<opt stage="main" walkers="256000">
  <log>

*****************************************
Building overlap and Hamiltonian matrices
*****************************************

Among totally 30 optimized parameters, largest LM parameter change : 1.0048e-01 at parameter 25

******************************************************************************
Init Cost =   3.7562e+00    New Cost =   3.7554e+00  Delta Cost =  -8.3524e-04
******************************************************************************

The new set of parameters is valid. Updating the trial wave function!

*****************************************************************************
Applying the update for shift_i =   1.0000e-02     and shift_s =   3.9062e-03
*****************************************************************************
  Execution time = 6.9224e+00
  </log>
  <optVariables href="Ni.log.s005.opt.xml">
uu_0 1.5907e-01 1 1  ON 0
uu_1 1.1094e-02 1 1  ON 1
uu_2 -4.4374e-02 1 1  ON 2
uu_3 -6.5501e-02 1 1  ON 3
uu_4 -6.6318e-02 1 1  ON 4
uu_5 -5.1011e-02 1 1  ON 5
uu_6 -2.8188e-02 1 1  ON 6
uu_7 -8.1335e-03 1 1  ON 7
uu_8 -4.0991e-03 1 1  ON 8
uu_9 8.8436e-04 1 1  ON 9
ud_0 1.9656e-01 1 1  ON 10
ud_1 4.7480e-02 1 1  ON 11
ud_2 -3.0014e-02 1 1  ON 12
ud_3 -5.2813e-02 1 1  ON 13
ud_4 -6.5374e-02 1 1  ON 14
ud_5 -5.6403e-02 1 1  ON 15
ud_6 -3.0364e-02 1 1  ON 16
ud_7 -2.6728e-02 1 1  ON 17
ud_8 -1.8809e-02 1 1  ON 18
ud_9 -3.3855e-02 1 1  ON 19
eNi_0 -1.9620e+00 1 1  ON 20
eNi_1 -5.6993e-01 1 1  ON 21
eNi_2 2.7579e-01 1 1  ON 22
eNi_3 6.4224e-01 1 1  ON 23
eNi_4 7.4786e-01 1 1  ON 24
eNi_5 5.8644e-01 1 1  ON 25
eNi_6 2.4856e-01 1 1  ON 26
eNi_7 2.3362e-02 1 1  ON 27
eNi_8 -7.2423e-04 1 1  ON 28
eNi_9 -3.8978e-03 1 1  ON 29
  </optVariables>
   Restore the number of walkers to 1, removing 0 walkers.
</opt>
</optimization-report>
  QMC Execution time = 6.9308e+00 secs
Loop execution max-interations = 5
  Reusing QMCFixedSampleLinearOptimize
 Using QMCCostFunction::QMCCostFunction

=========================================================
  Start QMCFixedSampleLinearOptimize
  File Root Ni.log.s006 append = no 
=========================================================
  Skip QMCDriver::putQMCInfo 
  Resetting Properties of the walkers 1 x 13

=========================================================
  Start VMC
  File Root Ni.log.s006 append = no 
=========================================================
  Using the current 1 walkers.
  Total number of walkers: 1.0240e+03
  Total weight: 1.0240e+03
  Resetting Properties of the walkers 1 x 13

<vmc function="put">
  qmc_counter=0  my_counter=5
  time step      = 1.5000e-01
  blocks         = 400
  steps          = 1
  substeps       = 5
  current        = 0
  target samples = 2.5600e+05
  walkers/mpi    = 1

  stepsbetweensamples = 1
<parameter name="blocks" condition="int">400</parameter>
<parameter name="blocks_between_recompute" condition="int">0</parameter>
<parameter name="check_properties" condition="int">100</parameter>
<parameter name="checkproperties" condition="int">100</parameter>
<parameter name="current" condition="int">0</parameter>
<parameter name="dmcwalkersperthread" condition="real">2.5000e+02</parameter>
<parameter name="maxcpusecs" condition="real">3.6000e+05</parameter>
<parameter name="record_configs" condition="int">0</parameter>
<parameter name="record_walkers" condition="int">1</parameter>
<parameter name="recordconfigs" condition="int">0</parameter>
<parameter name="recordwalkers" condition="int">1</parameter>
<parameter name="rewind" condition="int">0</parameter>
<parameter name="samples" condition="real">2.5600e+05</parameter>
<parameter name="samplesperthread" condition="real">2.5000e+02</parameter>
<parameter name="steps" condition="int">1</parameter>
<parameter name="stepsbetweensamples" condition="int">1</parameter>
<parameter name="store_configs" condition="int">0</parameter>
<parameter name="storeconfigs" condition="int">0</parameter>
<parameter name="sub_steps" condition="int">5</parameter>
<parameter name="substeps" condition="int">5</parameter>
<parameter name="tau" condition="au">1.5000e-01</parameter>
<parameter name="time_step" condition="au">1.5000e-01</parameter>
<parameter name="timestep" condition="au">1.5000e-01</parameter>
<parameter name="use_drift" condition="string">no</parameter>
<parameter name="usedrift" condition="string">no</parameter>
<parameter name="walkers" condition="int">1</parameter>
<parameter name="warmup_steps" condition="int">0</parameter>
<parameter name="warmupsteps" condition="int">0</parameter>
  DumpConfig==false Nothing (configurations, state) will be saved.
  Walker Samples are dumped every 1 steps.
</vmc>
  EstimatorManagerBase::add replace LocalEnergy estimator.
  EstimatorManagerBase::add replace LocalEnergy estimator.
<optimization-report>
<vmc stage="main" blocks="400">
  Cannot make clones again. Use existing 1 clones
  Initial partition of walkers 0 1 
  Using Particle by Particle moves
  Walker moves without drift
  Total Sample Size   =256000
  Walker distribution on root = 0 1 
  Using Locality Approximation
===== Memory Usage after the buffer registration =====
Available memory on node 0, free + buffers : 85257 MB
Memory footprint by rank 0 on node 0       : 88 MB
==================================================
====================================================
  SimpleFixedNodeBranch::finalize after a VMC block
    QMC counter        = 6
    time step          = 0.15
    reference energy   = -169.221
    reference variance = 3.09337
====================================================
  Execution time = 4.5612e+00
</vmc>
<opt stage="setup">
  <log>
   Reading configurations from h5FileRoot Ni.log.s006
  QMCCostFunction is created with 1 threads.
  Using Nonlocal PP in Opt: NonLocalECP
   Number of samples loaded to each thread : 250 
  VMC Eavg = -1.6919e+02
  VMC Evar = 3.7067e+00
  Total weights = 2.5600e+05
  Execution time = 1.0209e+00
  </log>
</opt>
<opt stage="main" walkers="256000">
  <log>

*****************************************
Building overlap and Hamiltonian matrices
*****************************************

Among totally 30 optimized parameters, largest LM parameter change : 6.9486e-02 at parameter 25

******************************************************************************
Init Cost =   3.7067e+00    New Cost =   3.7118e+00  Delta Cost =   5.1694e-03
******************************************************************************

The new set of parameters is valid. Updating the trial wave function!

*****************************************************************************
Applying the update for shift_i =   1.0000e-02     and shift_s =   3.9062e-03
*****************************************************************************
  Execution time = 6.5123e+00
  </log>
  <optVariables href="Ni.log.s006.opt.xml">
uu_0 1.6013e-01 1 1  ON 0
uu_1 1.2210e-02 1 1  ON 1
uu_2 -4.4521e-02 1 1  ON 2
uu_3 -6.8101e-02 1 1  ON 3
uu_4 -6.8938e-02 1 1  ON 4
uu_5 -5.8727e-02 1 1  ON 5
uu_6 -3.0515e-02 1 1  ON 6
uu_7 -8.6293e-03 1 1  ON 7
uu_8 -1.2478e-02 1 1  ON 8
uu_9 -8.2044e-04 1 1  ON 9
ud_0 1.9592e-01 1 1  ON 10
ud_1 4.6665e-02 1 1  ON 11
ud_2 -3.1214e-02 1 1  ON 12
ud_3 -5.4452e-02 1 1  ON 13
ud_4 -6.8622e-02 1 1  ON 14
ud_5 -6.0887e-02 1 1  ON 15
ud_6 -4.2386e-02 1 1  ON 16
ud_7 -1.8039e-02 1 1  ON 17
ud_8 -2.2432e-02 1 1  ON 18
ud_9 -3.3393e-02 1 1  ON 19
eNi_0 -2.0224e+00 1 1  ON 20
eNi_1 -6.2959e-01 1 1  ON 21
eNi_2 2.3675e-01 1 1  ON 22
eNi_3 6.2915e-01 1 1  ON 23
eNi_4 7.6777e-01 1 1  ON 24
eNi_5 6.5592e-01 1 1  ON 25
eNi_6 3.1297e-01 1 1  ON 26
eNi_7 3.7375e-02 1 1  ON 27
eNi_8 1.6514e-03 1 1  ON 28
eNi_9 -4.8675e-03 1 1  ON 29
  </optVariables>
   Restore the number of walkers to 1, removing 0 walkers.
</opt>
</optimization-report>
  QMC Execution time = 6.5210e+00 secs
  Reusing QMCFixedSampleLinearOptimize
 Using QMCCostFunction::QMCCostFunction

=========================================================
  Start QMCFixedSampleLinearOptimize
  File Root Ni.log.s007 append = no 
=========================================================
  Skip QMCDriver::putQMCInfo 
  Resetting Properties of the walkers 1 x 13

=========================================================
  Start VMC
  File Root Ni.log.s007 append = no 
=========================================================
Using existing walkers 
  Resetting Properties of the walkers 1 x 13

<vmc function="put">
  qmc_counter=1  my_counter=6
  time step      = 1.5000e-01
  blocks         = 400
  steps          = 1
  substeps       = 5
  current        = 0
  target samples = 2.5600e+05
  walkers/mpi    = 1

  stepsbetweensamples = 1
<parameter name="blocks" condition="int">400</parameter>
<parameter name="blocks_between_recompute" condition="int">0</parameter>
<parameter name="check_properties" condition="int">100</parameter>
<parameter name="checkproperties" condition="int">100</parameter>
<parameter name="current" condition="int">0</parameter>
<parameter name="dmcwalkersperthread" condition="real">2.5000e+02</parameter>
<parameter name="maxcpusecs" condition="real">3.6000e+05</parameter>
<parameter name="record_configs" condition="int">0</parameter>
<parameter name="record_walkers" condition="int">1</parameter>
<parameter name="recordconfigs" condition="int">0</parameter>
<parameter name="recordwalkers" condition="int">1</parameter>
<parameter name="rewind" condition="int">0</parameter>
<parameter name="samples" condition="real">2.5600e+05</parameter>
<parameter name="samplesperthread" condition="real">2.5000e+02</parameter>
<parameter name="steps" condition="int">1</parameter>
<parameter name="stepsbetweensamples" condition="int">1</parameter>
<parameter name="store_configs" condition="int">0</parameter>
<parameter name="storeconfigs" condition="int">0</parameter>
<parameter name="sub_steps" condition="int">5</parameter>
<parameter name="substeps" condition="int">5</parameter>
<parameter name="tau" condition="au">1.5000e-01</parameter>
<parameter name="time_step" condition="au">1.5000e-01</parameter>
<parameter name="timestep" condition="au">1.5000e-01</parameter>
<parameter name="use_drift" condition="string">no</parameter>
<parameter name="usedrift" condition="string">no</parameter>
<parameter name="walkers" condition="int">1</parameter>
<parameter name="warmup_steps" condition="int">0</parameter>
<parameter name="warmupsteps" condition="int">0</parameter>
  DumpConfig==false Nothing (configurations, state) will be saved.
  Walker Samples are dumped every 1 steps.
</vmc>
  EstimatorManagerBase::add replace LocalEnergy estimator.
  EstimatorManagerBase::add replace LocalEnergy estimator.
<optimization-report>
<vmc stage="main" blocks="400">
  Cannot make clones again. Use existing 1 clones
  Initial partition of walkers 0 1 
  Using Particle by Particle moves
  Walker moves without drift
  Total Sample Size   =256000
  Walker distribution on root = 0 1 
  Using Locality Approximation
===== Memory Usage after the buffer registration =====
Available memory on node 0, free + buffers : 85253 MB
Memory footprint by rank 0 on node 0       : 91 MB
==================================================
====================================================
  SimpleFixedNodeBranch::finalize after a VMC block
    QMC counter        = 7
    time step          = 0.15
    reference energy   = -169.153
    reference variance = 3.55342
====================================================
  Execution time = 4.4234e+00
</vmc>
<opt stage="setup">
  <log>
   Reading configurations from h5FileRoot Ni.log.s007
  QMCCostFunction is created with 1 threads.
  Using Nonlocal PP in Opt: NonLocalECP
   Number of samples loaded to each thread : 250 
  VMC Eavg = -1.6919e+02
  VMC Evar = 3.7014e+00
  Total weights = 2.5600e+05
  Execution time = 9.5308e-01
  </log>
</opt>
<opt stage="main" walkers="256000">
  <log>

*****************************************
Building overlap and Hamiltonian matrices
*****************************************

Among totally 30 optimized parameters, largest LM parameter change : 4.3692e-02 at parameter 25

******************************************************************************
Init Cost =   3.7014e+00    New Cost =   3.7121e+00  Delta Cost =   1.0719e-02
******************************************************************************

The new set of parameters is valid. Updating the trial wave function!

*****************************************************************************
Applying the update for shift_i =   1.0000e-02     and shift_s =   3.9062e-03
*****************************************************************************
  Execution time = 6.2530e+00
  </log>
  <optVariables href="Ni.log.s007.opt.xml">
uu_0 1.7006e-01 1 1  ON 0
uu_1 2.1086e-02 1 1  ON 1
uu_2 -3.4844e-02 1 1  ON 2
uu_3 -5.8645e-02 1 1  ON 3
uu_4 -6.3189e-02 1 1  ON 4
uu_5 -5.9821e-02 1 1  ON 5
uu_6 -4.2211e-02 1 1  ON 6
uu_7 -2.2972e-02 1 1  ON 7
uu_8 -1.5333e-02 1 1  ON 8
uu_9 -1.2653e-02 1 1  ON 9
ud_0 2.0483e-01 1 1  ON 10
ud_1 5.4809e-02 1 1  ON 11
ud_2 -2.3282e-02 1 1  ON 12
ud_3 -4.7809e-02 1 1  ON 13
ud_4 -6.3495e-02 1 1  ON 14
ud_5 -6.6945e-02 1 1  ON 15
ud_6 -4.9186e-02 1 1  ON 16
ud_7 -4.1429e-02 1 1  ON 17
ud_8 -2.8336e-02 1 1  ON 18
ud_9 -1.2964e-02 1 1  ON 19
eNi_0 -2.0583e+00 1 1  ON 20
eNi_1 -6.5973e-01 1 1  ON 21
eNi_2 2.0570e-01 1 1  ON 22
eNi_3 6.2057e-01 1 1  ON 23
eNi_4 7.8941e-01 1 1  ON 24
eNi_5 6.9961e-01 1 1  ON 25
eNi_6 3.3429e-01 1 1  ON 26
eNi_7 5.6756e-02 1 1  ON 27
eNi_8 9.6639e-04 1 1  ON 28
eNi_9 -4.5304e-03 1 1  ON 29
  </optVariables>
   Restore the number of walkers to 1, removing 0 walkers.
</opt>
</optimization-report>
  QMC Execution time = 6.2617e+00 secs
  Reusing QMCFixedSampleLinearOptimize
 Using QMCCostFunction::QMCCostFunction

=========================================================
  Start QMCFixedSampleLinearOptimize
  File Root Ni.log.s008 append = no 
=========================================================
  Skip QMCDriver::putQMCInfo 
  Resetting Properties of the walkers 1 x 13

=========================================================
  Start VMC
  File Root Ni.log.s008 append = no 
=========================================================
Using existing walkers 
  Resetting Properties of the walkers 1 x 13

<vmc function="put">
  qmc_counter=2  my_counter=7
  time step      = 1.5000e-01
  blocks         = 400
  steps          = 1
  substeps       = 5
  current        = 0
  target samples = 2.5600e+05
  walkers/mpi    = 1

  stepsbetweensamples = 1
<parameter name="blocks" condition="int">400</parameter>
<parameter name="blocks_between_recompute" condition="int">0</parameter>
<parameter name="check_properties" condition="int">100</parameter>
<parameter name="checkproperties" condition="int">100</parameter>
<parameter name="current" condition="int">0</parameter>
<parameter name="dmcwalkersperthread" condition="real">2.5000e+02</parameter>
<parameter name="maxcpusecs" condition="real">3.6000e+05</parameter>
<parameter name="record_configs" condition="int">0</parameter>
<parameter name="record_walkers" condition="int">1</parameter>
<parameter name="recordconfigs" condition="int">0</parameter>
<parameter name="recordwalkers" condition="int">1</parameter>
<parameter name="rewind" condition="int">0</parameter>
<parameter name="samples" condition="real">2.5600e+05</parameter>
<parameter name="samplesperthread" condition="real">2.5000e+02</parameter>
<parameter name="steps" condition="int">1</parameter>
<parameter name="stepsbetweensamples" condition="int">1</parameter>
<parameter name="store_configs" condition="int">0</parameter>
<parameter name="storeconfigs" condition="int">0</parameter>
<parameter name="sub_steps" condition="int">5</parameter>
<parameter name="substeps" condition="int">5</parameter>
<parameter name="tau" condition="au">1.5000e-01</parameter>
<parameter name="time_step" condition="au">1.5000e-01</parameter>
<parameter name="timestep" condition="au">1.5000e-01</parameter>
<parameter name="use_drift" condition="string">no</parameter>
<parameter name="usedrift" condition="string">no</parameter>
<parameter name="walkers" condition="int">1</parameter>
<parameter name="warmup_steps" condition="int">0</parameter>
<parameter name="warmupsteps" condition="int">0</parameter>
  DumpConfig==false Nothing (configurations, state) will be saved.
  Walker Samples are dumped every 1 steps.
</vmc>
  EstimatorManagerBase::add replace LocalEnergy estimator.
  EstimatorManagerBase::add replace LocalEnergy estimator.
<optimization-report>
<vmc stage="main" blocks="400">
  Cannot make clones again. Use existing 1 clones
  Initial partition of walkers 0 1 
  Using Particle by Particle moves
  Walker moves without drift
  Total Sample Size   =256000
  Walker distribution on root = 0 1 
  Using Locality Approximation
===== Memory Usage after the buffer registration =====
Available memory on node 0, free + buffers : 85249 MB
Memory footprint by rank 0 on node 0       : 94 MB
==================================================
====================================================
  SimpleFixedNodeBranch::finalize after a VMC block
    QMC counter        = 8
    time step          = 0.15
    reference energy   = -169.199
    reference variance = 3.8257
====================================================
  Execution time = 4.3710e+00
</vmc>
<opt stage="setup">
  <log>
   Reading configurations from h5FileRoot Ni.log.s008
  QMCCostFunction is created with 1 threads.
  Using Nonlocal PP in Opt: NonLocalECP
   Number of samples loaded to each thread : 250 
  VMC Eavg = -1.6919e+02
  VMC Evar = 3.8661e+00
  Total weights = 2.5600e+05
  Execution time = 8.9742e-01
  </log>
</opt>
<opt stage="main" walkers="256000">
  <log>

*****************************************
Building overlap and Hamiltonian matrices
*****************************************

Among totally 30 optimized parameters, largest LM parameter change : 4.9846e-02 at parameter 26

******************************************************************************
Init Cost =   3.8661e+00    New Cost =   3.8656e+00  Delta Cost =  -4.9386e-04
******************************************************************************

The new set of parameters is valid. Updating the trial wave function!

*****************************************************************************
Applying the update for shift_i =   1.0000e-02     and shift_s =   3.9062e-03
*****************************************************************************
  Execution time = 6.0998e+00
  </log>
  <optVariables href="Ni.log.s008.opt.xml">
uu_0 1.7739e-01 1 1  ON 0
uu_1 2.7920e-02 1 1  ON 1
uu_2 -2.8807e-02 1 1  ON 2
uu_3 -5.2856e-02 1 1  ON 3
uu_4 -5.8709e-02 1 1  ON 4
uu_5 -5.2171e-02 1 1  ON 5
uu_6 -2.5844e-02 1 1  ON 6
uu_7 -3.1107e-03 1 1  ON 7
uu_8 1.0548e-02 1 1  ON 8
uu_9 2.0409e-03 1 1  ON 9
ud_0 2.1823e-01 1 1  ON 10
ud_1 6.8837e-02 1 1  ON 11
ud_2 -9.0870e-03 1 1  ON 12
ud_3 -3.5407e-02 1 1  ON 13
ud_4 -5.3115e-02 1 1  ON 14
ud_5 -5.3622e-02 1 1  ON 15
ud_6 -3.3245e-02 1 1  ON 16
ud_7 -2.1798e-02 1 1  ON 17
ud_8 -1.9514e-02 1 1  ON 18
ud_9 -3.0755e-02 1 1  ON 19
eNi_0 -2.0955e+00 1 1  ON 20
eNi_1 -6.9602e-01 1 1  ON 21
eNi_2 1.7654e-01 1 1  ON 22
eNi_3 6.0384e-01 1 1  ON 23
eNi_4 8.1510e-01 1 1  ON 24
eNi_5 7.3877e-01 1 1  ON 25
eNi_6 3.8414e-01 1 1  ON 26
eNi_7 7.4458e-02 1 1  ON 27
eNi_8 3.4532e-03 1 1  ON 28
eNi_9 -7.5054e-03 1 1  ON 29
  </optVariables>
   Restore the number of walkers to 1, removing 0 walkers.
</opt>
</optimization-report>
  QMC Execution time = 6.1082e+00 secs
  Reusing QMCFixedSampleLinearOptimize
 Using QMCCostFunction::QMCCostFunction

=========================================================
  Start QMCFixedSampleLinearOptimize
  File Root Ni.log.s009 append = no 
=========================================================
  Skip QMCDriver::putQMCInfo 
  Resetting Properties of the walkers 1 x 13

=========================================================
  Start VMC
  File Root Ni.log.s009 append = no 
=========================================================
Using existing walkers 
  Resetting Properties of the walkers 1 x 13

<vmc function="put">
  qmc_counter=3  my_counter=8
  time step      = 1.5000e-01
  blocks         = 400
  steps          = 1
  substeps       = 5
  current        = 0
  target samples = 2.5600e+05
  walkers/mpi    = 1

  stepsbetweensamples = 1
<parameter name="blocks" condition="int">400</parameter>
<parameter name="blocks_between_recompute" condition="int">0</parameter>
<parameter name="check_properties" condition="int">100</parameter>
<parameter name="checkproperties" condition="int">100</parameter>
<parameter name="current" condition="int">0</parameter>
<parameter name="dmcwalkersperthread" condition="real">2.5000e+02</parameter>
<parameter name="maxcpusecs" condition="real">3.6000e+05</parameter>
<parameter name="record_configs" condition="int">0</parameter>
<parameter name="record_walkers" condition="int">1</parameter>
<parameter name="recordconfigs" condition="int">0</parameter>
<parameter name="recordwalkers" condition="int">1</parameter>
<parameter name="rewind" condition="int">0</parameter>
<parameter name="samples" condition="real">2.5600e+05</parameter>
<parameter name="samplesperthread" condition="real">2.5000e+02</parameter>
<parameter name="steps" condition="int">1</parameter>
<parameter name="stepsbetweensamples" condition="int">1</parameter>
<parameter name="store_configs" condition="int">0</parameter>
<parameter name="storeconfigs" condition="int">0</parameter>
<parameter name="sub_steps" condition="int">5</parameter>
<parameter name="substeps" condition="int">5</parameter>
<parameter name="tau" condition="au">1.5000e-01</parameter>
<parameter name="time_step" condition="au">1.5000e-01</parameter>
<parameter name="timestep" condition="au">1.5000e-01</parameter>
<parameter name="use_drift" condition="string">no</parameter>
<parameter name="usedrift" condition="string">no</parameter>
<parameter name="walkers" condition="int">1</parameter>
<parameter name="warmup_steps" condition="int">0</parameter>
<parameter name="warmupsteps" condition="int">0</parameter>
  DumpConfig==false Nothing (configurations, state) will be saved.
  Walker Samples are dumped every 1 steps.
</vmc>
  EstimatorManagerBase::add replace LocalEnergy estimator.
  EstimatorManagerBase::add replace LocalEnergy estimator.
<optimization-report>
<vmc stage="main" blocks="400">
  Cannot make clones again. Use existing 1 clones
  Initial partition of walkers 0 1 
  Using Particle by Particle moves
  Walker moves without drift
  Total Sample Size   =256000
  Walker distribution on root = 0 1 
  Using Locality Approximation
===== Memory Usage after the buffer registration =====
Available memory on node 0, free + buffers : 85247 MB
Memory footprint by rank 0 on node 0       : 96 MB
==================================================
====================================================
  SimpleFixedNodeBranch::finalize after a VMC block
    QMC counter        = 9
    time step          = 0.15
    reference energy   = -169.166
    reference variance = 3.0131
====================================================
  Execution time = 4.2205e+00
</vmc>
<opt stage="setup">
  <log>
   Reading configurations from h5FileRoot Ni.log.s009
  QMCCostFunction is created with 1 threads.
  Using Nonlocal PP in Opt: NonLocalECP
   Number of samples loaded to each thread : 250 
  VMC Eavg = -1.6919e+02
  VMC Evar = 3.6631e+00
  Total weights = 2.5600e+05
  Execution time = 8.6531e-01
  </log>
</opt>
<opt stage="main" walkers="256000">
  <log>

*****************************************
Building overlap and Hamiltonian matrices
*****************************************

Among totally 30 optimized parameters, largest LM parameter change : 4.3772e-02 at parameter 26

******************************************************************************
Init Cost =   3.6631e+00    New Cost =   3.6667e+00  Delta Cost =   3.5082e-03
******************************************************************************

The new set of parameters is valid. Updating the trial wave function!

*****************************************************************************
Applying the update for shift_i =   1.0000e-02     and shift_s =   3.9062e-03
*****************************************************************************
  Execution time = 5.8925e+00
  </log>
  <optVariables href="Ni.log.s009.opt.xml">
uu_0 1.7663e-01 1 1  ON 0
uu_1 2.8541e-02 1 1  ON 1
uu_2 -2.8873e-02 1 1  ON 2
uu_3 -5.1463e-02 1 1  ON 3
uu_4 -5.9930e-02 1 1  ON 4
uu_5 -5.5352e-02 1 1  ON 5
uu_6 -3.5687e-02 1 1  ON 6
uu_7 7.0781e-03 1 1  ON 7
uu_8 5.6677e-03 1 1  ON 8
uu_9 3.7566e-04 1 1  ON 9
ud_0 2.1624e-01 1 1  ON 10
ud_1 6.5996e-02 1 1  ON 11
ud_2 -1.2818e-02 1 1  ON 12
ud_3 -3.8975e-02 1 1  ON 13
ud_4 -5.5143e-02 1 1  ON 14
ud_5 -5.3079e-02 1 1  ON 15
ud_6 -3.0872e-02 1 1  ON 16
ud_7 -7.2850e-03 1 1  ON 17
ud_8 -2.6123e-02 1 1  ON 18
ud_9 -2.3733e-02 1 1  ON 19
eNi_0 -2.1135e+00 1 1  ON 20
eNi_1 -7.1491e-01 1 1  ON 21
eNi_2 1.6713e-01 1 1  ON 22
eNi_3 5.8004e-01 1 1  ON 23
eNi_4 7.9071e-01 1 1  ON 24
eNi_5 7.6161e-01 1 1  ON 25
eNi_6 4.2791e-01 1 1  ON 26
eNi_7 1.0199e-01 1 1  ON 27
eNi_8 5.7603e-04 1 1  ON 28
eNi_9 -5.2745e-03 1 1  ON 29
  </optVariables>
   Restore the number of walkers to 1, removing 0 walkers.
</opt>
</optimization-report>
  QMC Execution time = 5.9007e+00 secs
  Reusing QMCFixedSampleLinearOptimize
 Using QMCCostFunction::QMCCostFunction

=========================================================
  Start QMCFixedSampleLinearOptimize
  File Root Ni.log.s010 append = no 
=========================================================
  Skip QMCDriver::putQMCInfo 
  Resetting Properties of the walkers 1 x 13

=========================================================
  Start VMC
  File Root Ni.log.s010 append = no 
=========================================================
Using existing walkers 
  Resetting Properties of the walkers 1 x 13

<vmc function="put">
  qmc_counter=4  my_counter=9
  time step      = 1.5000e-01
  blocks         = 400
  steps          = 1
  substeps       = 5
  current        = 0
  target samples = 2.5600e+05
  walkers/mpi    = 1

  stepsbetweensamples = 1
<parameter name="blocks" condition="int">400</parameter>
<parameter name="blocks_between_recompute" condition="int">0</parameter>
<parameter name="check_properties" condition="int">100</parameter>
<parameter name="checkproperties" condition="int">100</parameter>
<parameter name="current" condition="int">0</parameter>
<parameter name="dmcwalkersperthread" condition="real">2.5000e+02</parameter>
<parameter name="maxcpusecs" condition="real">3.6000e+05</parameter>
<parameter name="record_configs" condition="int">0</parameter>
<parameter name="record_walkers" condition="int">1</parameter>
<parameter name="recordconfigs" condition="int">0</parameter>
<parameter name="recordwalkers" condition="int">1</parameter>
<parameter name="rewind" condition="int">0</parameter>
<parameter name="samples" condition="real">2.5600e+05</parameter>
<parameter name="samplesperthread" condition="real">2.5000e+02</parameter>
<parameter name="steps" condition="int">1</parameter>
<parameter name="stepsbetweensamples" condition="int">1</parameter>
<parameter name="store_configs" condition="int">0</parameter>
<parameter name="storeconfigs" condition="int">0</parameter>
<parameter name="sub_steps" condition="int">5</parameter>
<parameter name="substeps" condition="int">5</parameter>
<parameter name="tau" condition="au">1.5000e-01</parameter>
<parameter name="time_step" condition="au">1.5000e-01</parameter>
<parameter name="timestep" condition="au">1.5000e-01</parameter>
<parameter name="use_drift" condition="string">no</parameter>
<parameter name="usedrift" condition="string">no</parameter>
<parameter name="walkers" condition="int">1</parameter>
<parameter name="warmup_steps" condition="int">0</parameter>
<parameter name="warmupsteps" condition="int">0</parameter>
  DumpConfig==false Nothing (configurations, state) will be saved.
  Walker Samples are dumped every 1 steps.
</vmc>
  EstimatorManagerBase::add replace LocalEnergy estimator.
  EstimatorManagerBase::add replace LocalEnergy estimator.
<optimization-report>
<vmc stage="main" blocks="400">
  Cannot make clones again. Use existing 1 clones
  Initial partition of walkers 0 1 
  Using Particle by Particle moves
  Walker moves without drift
  Total Sample Size   =256000
  Walker distribution on root = 0 1 
  Using Locality Approximation
===== Memory Usage after the buffer registration =====
Available memory on node 0, free + buffers : 85244 MB
Memory footprint by rank 0 on node 0       : 99 MB
==================================================
====================================================
  SimpleFixedNodeBranch::finalize after a VMC block
    QMC counter        = 10
    time step          = 0.15
    reference energy   = -169.314
    reference variance = 4.65932
====================================================
  Execution time = 4.2420e+00
</vmc>
<opt stage="setup">
  <log>
   Reading configurations from h5FileRoot Ni.log.s010
  QMCCostFunction is created with 1 threads.
  Using Nonlocal PP in Opt: NonLocalECP
   Number of samples loaded to each thread : 250 
  VMC Eavg = -1.6919e+02
  VMC Evar = 3.7227e+00
  Total weights = 2.5600e+05
  Execution time = 8.4364e-01
  </log>
</opt>
<opt stage="main" walkers="256000">
  <log>

*****************************************
Building overlap and Hamiltonian matrices
*****************************************

Among totally 30 optimized parameters, largest LM parameter change : 3.4345e-02 at parameter 20

******************************************************************************
Init Cost =   3.7227e+00    New Cost =   3.7367e+00  Delta Cost =   1.3994e-02
******************************************************************************

The new set of parameters is valid. Updating the trial wave function!

*****************************************************************************
Applying the update for shift_i =   1.0000e-02     and shift_s =   3.9062e-03
*****************************************************************************
  Execution time = 5.8597e+00
  </log>
  <optVariables href="Ni.log.s010.opt.xml">
uu_0 1.7194e-01 1 1  ON 0
uu_1 2.2416e-02 1 1  ON 1
uu_2 -3.4919e-02 1 1  ON 2
uu_3 -5.9180e-02 1 1  ON 3
uu_4 -6.3936e-02 1 1  ON 4
uu_5 -6.2200e-02 1 1  ON 5
uu_6 -3.1918e-02 1 1  ON 6
uu_7 -3.2360e-03 1 1  ON 7
uu_8 9.9572e-03 1 1  ON 8
uu_9 1.5600e-02 1 1  ON 9
ud_0 2.2152e-01 1 1  ON 10
ud_1 7.1207e-02 1 1  ON 11
ud_2 -8.7696e-03 1 1  ON 12
ud_3 -3.4285e-02 1 1  ON 13
ud_4 -5.6074e-02 1 1  ON 14
ud_5 -5.8526e-02 1 1  ON 15
ud_6 -4.2528e-02 1 1  ON 16
ud_7 -2.7232e-02 1 1  ON 17
ud_8 -3.9744e-02 1 1  ON 18
ud_9 -1.3872e-02 1 1  ON 19
eNi_0 -2.1478e+00 1 1  ON 20
eNi_1 -7.4171e-01 1 1  ON 21
eNi_2 1.4687e-01 1 1  ON 22
eNi_3 5.7607e-01 1 1  ON 23
eNi_4 8.0750e-01 1 1  ON 24
eNi_5 7.7468e-01 1 1  ON 25
eNi_6 4.6058e-01 1 1  ON 26
eNi_7 1.2059e-01 1 1  ON 27
eNi_8 -2.6591e-03 1 1  ON 28
eNi_9 -4.2560e-04 1 1  ON 29
  </optVariables>
   Restore the number of walkers to 1, removing 0 walkers.
</opt>
</optimization-report>
  QMC Execution time = 5.8675e+00 secs
Loop execution max-interations = 10
  Reusing QMCFixedSampleLinearOptimize
 Using QMCCostFunction::QMCCostFunction

=========================================================
  Start QMCFixedSampleLinearOptimize
  File Root Ni.log.s011 append = no 
=========================================================
  Skip QMCDriver::putQMCInfo 
  Resetting Properties of the walkers 1 x 13

=========================================================
  Start VMC
  File Root Ni.log.s011 append = no 
=========================================================
  Using the current 1 walkers.
  Total number of walkers: 1.0240e+03
  Total weight: 1.0240e+03
  Resetting Properties of the walkers 1 x 13

<vmc function="put">
  qmc_counter=0  my_counter=10
  time step      = 1.5000e-01
  blocks         = 400
  steps          = 2
  substeps       = 5
  current        = 0
  target samples = 5.1200e+05
  walkers/mpi    = 1

  stepsbetweensamples = 1
<parameter name="blocks" condition="int">400</parameter>
<parameter name="blocks_between_recompute" condition="int">0</parameter>
<parameter name="check_properties" condition="int">100</parameter>
<parameter name="checkproperties" condition="int">100</parameter>
<parameter name="current" condition="int">0</parameter>
<parameter name="dmcwalkersperthread" condition="real">5.0000e+02</parameter>
<parameter name="maxcpusecs" condition="real">3.6000e+05</parameter>
<parameter name="record_configs" condition="int">0</parameter>
<parameter name="record_walkers" condition="int">1</parameter>
<parameter name="recordconfigs" condition="int">0</parameter>
<parameter name="recordwalkers" condition="int">1</parameter>
<parameter name="rewind" condition="int">0</parameter>
<parameter name="samples" condition="real">5.1200e+05</parameter>
<parameter name="samplesperthread" condition="real">5.0000e+02</parameter>
<parameter name="steps" condition="int">2</parameter>
<parameter name="stepsbetweensamples" condition="int">1</parameter>
<parameter name="store_configs" condition="int">0</parameter>
<parameter name="storeconfigs" condition="int">0</parameter>
<parameter name="sub_steps" condition="int">5</parameter>
<parameter name="substeps" condition="int">5</parameter>
<parameter name="tau" condition="au">1.5000e-01</parameter>
<parameter name="time_step" condition="au">1.5000e-01</parameter>
<parameter name="timestep" condition="au">1.5000e-01</parameter>
<parameter name="use_drift" condition="string">no</parameter>
<parameter name="usedrift" condition="string">no</parameter>
<parameter name="walkers" condition="int">1</parameter>
<parameter name="warmup_steps" condition="int">0</parameter>
<parameter name="warmupsteps" condition="int">0</parameter>
  DumpConfig==false Nothing (configurations, state) will be saved.
  Walker Samples are dumped every 1 steps.
</vmc>
  EstimatorManagerBase::add replace LocalEnergy estimator.
  EstimatorManagerBase::add replace LocalEnergy estimator.
<optimization-report>
<vmc stage="main" blocks="400">
  Cannot make clones again. Use existing 1 clones
  Initial partition of walkers 0 1 
  Using Particle by Particle moves
  Walker moves without drift
  Total Sample Size   =512000
  Walker distribution on root = 0 1 
  Using Locality Approximation
===== Memory Usage after the buffer registration =====
Available memory on node 0, free + buffers : 85241 MB
Memory footprint by rank 0 on node 0       : 102 MB
==================================================
====================================================
  SimpleFixedNodeBranch::finalize after a VMC block
    QMC counter        = 11
    time step          = 0.15
    reference energy   = -169.244
    reference variance = 3.57908
====================================================
  Execution time = 6.3183e+00
</vmc>
<opt stage="setup">
  <log>
   Reading configurations from h5FileRoot Ni.log.s011
  QMCCostFunction is created with 1 threads.
  Using Nonlocal PP in Opt: NonLocalECP
   Number of samples loaded to each thread : 500 
  VMC Eavg = -1.6919e+02
  VMC Evar = 3.7121e+00
  Total weights = 5.1200e+05
  Execution time = 1.5743e+00
  </log>
</opt>
<opt stage="main" walkers="512000">
  <log>

*****************************************
Building overlap and Hamiltonian matrices
*****************************************

Among totally 30 optimized parameters, largest LM parameter change : 3.4738e-02 at parameter 26

******************************************************************************
Init Cost =  -1.6055e+02    New Cost =  -1.6055e+02  Delta Cost =  -7.3615e-04
******************************************************************************

The new set of parameters is valid. Updating the trial wave function!

*****************************************************************************
Applying the update for shift_i =   1.0000e-02     and shift_s =   3.9062e-03
*****************************************************************************
  Execution time = 9.3782e+00
  </log>
  <optVariables href="Ni.log.s011.opt.xml">
uu_0 1.7142e-01 1 1  ON 0
uu_1 2.2435e-02 1 1  ON 1
uu_2 -3.4514e-02 1 1  ON 2
uu_3 -6.0082e-02 1 1  ON 3
uu_4 -6.9878e-02 1 1  ON 4
uu_5 -6.6359e-02 1 1  ON 5
uu_6 -4.1702e-02 1 1  ON 6
uu_7 -1.2181e-02 1 1  ON 7
uu_8 9.0527e-03 1 1  ON 8
uu_9 1.3016e-02 1 1  ON 9
ud_0 2.1620e-01 1 1  ON 10
ud_1 6.6190e-02 1 1  ON 11
ud_2 -1.2430e-02 1 1  ON 12
ud_3 -3.9687e-02 1 1  ON 13
ud_4 -5.7959e-02 1 1  ON 14
ud_5 -6.2997e-02 1 1  ON 15
ud_6 -5.1090e-02 1 1  ON 16
ud_7 -3.6140e-02 1 1  ON 17
ud_8 -3.4019e-02 1 1  ON 18
ud_9 -1.3350e-02 1 1  ON 19
eNi_0 -2.1620e+00 1 1  ON 20
eNi_1 -7.5993e-01 1 1  ON 21
eNi_2 1.2068e-01 1 1  ON 22
eNi_3 5.6061e-01 1 1  ON 23
eNi_4 7.9941e-01 1 1  ON 24
eNi_5 7.9087e-01 1 1  ON 25
eNi_6 4.9532e-01 1 1  ON 26
eNi_7 1.4071e-01 1 1  ON 27
eNi_8 2.6835e-03 1 1  ON 28
eNi_9 1.0608e-03 1 1  ON 29
  </optVariables>
   Restore the number of walkers to 1, removing 0 walkers.
</opt>
</optimization-report>
  QMC Execution time = 9.3874e+00 secs
  Reusing QMCFixedSampleLinearOptimize
 Using QMCCostFunction::QMCCostFunction

=========================================================
  Start QMCFixedSampleLinearOptimize
  File Root Ni.log.s012 append = no 
=========================================================
  Skip QMCDriver::putQMCInfo 
  Resetting Properties of the walkers 1 x 13

=========================================================
  Start VMC
  File Root Ni.log.s012 append = no 
=========================================================
Using existing walkers 
  Resetting Properties of the walkers 1 x 13

<vmc function="put">
  qmc_counter=1  my_counter=11
  time step      = 1.5000e-01
  blocks         = 400
  steps          = 2
  substeps       = 5
  current        = 0
  target samples = 5.1200e+05
  walkers/mpi    = 1

  stepsbetweensamples = 1
<parameter name="blocks" condition="int">400</parameter>
<parameter name="blocks_between_recompute" condition="int">0</parameter>
<parameter name="check_properties" condition="int">100</parameter>
<parameter name="checkproperties" condition="int">100</parameter>
<parameter name="current" condition="int">0</parameter>
<parameter name="dmcwalkersperthread" condition="real">5.0000e+02</parameter>
<parameter name="maxcpusecs" condition="real">3.6000e+05</parameter>
<parameter name="record_configs" condition="int">0</parameter>
<parameter name="record_walkers" condition="int">1</parameter>
<parameter name="recordconfigs" condition="int">0</parameter>
<parameter name="recordwalkers" condition="int">1</parameter>
<parameter name="rewind" condition="int">0</parameter>
<parameter name="samples" condition="real">5.1200e+05</parameter>
<parameter name="samplesperthread" condition="real">5.0000e+02</parameter>
<parameter name="steps" condition="int">2</parameter>
<parameter name="stepsbetweensamples" condition="int">1</parameter>
<parameter name="store_configs" condition="int">0</parameter>
<parameter name="storeconfigs" condition="int">0</parameter>
<parameter name="sub_steps" condition="int">5</parameter>
<parameter name="substeps" condition="int">5</parameter>
<parameter name="tau" condition="au">1.5000e-01</parameter>
<parameter name="time_step" condition="au">1.5000e-01</parameter>
<parameter name="timestep" condition="au">1.5000e-01</parameter>
<parameter name="use_drift" condition="string">no</parameter>
<parameter name="usedrift" condition="string">no</parameter>
[...]
<opt stage="setup">
  <log>
   Reading configurations from h5FileRoot Ni.log.s017
  QMCCostFunction is created with 1 threads.
  Using Nonlocal PP in Opt: NonLocalECP
   Number of samples loaded to each thread : 500 
  VMC Eavg = -1.6919e+02
  VMC Evar = 3.7980e+00
  Total weights = 5.1200e+05
  Execution time = 1.3679e+00
  </log>
</opt>
<opt stage="main" walkers="512000">
  <log>

*****************************************
Building overlap and Hamiltonian matrices
*****************************************

Among totally 30 optimized parameters, largest LM parameter change : 2.3147e-02 at parameter 26

******************************************************************************
Init Cost =  -1.6054e+02    New Cost =  -1.6054e+02  Delta Cost =   1.7977e-04
******************************************************************************

The new set of parameters is valid. Updating the trial wave function!

*****************************************************************************
Applying the update for shift_i =   1.0000e-02     and shift_s =   3.9062e-03
*****************************************************************************
  Execution time = 8.6185e+00
  </log>
  <optVariables href="Ni.log.s017.opt.xml">
uu_0 1.8390e-01 1 1  ON 0
uu_1 3.4043e-02 1 1  ON 1
uu_2 -2.3554e-02 1 1  ON 2
uu_3 -4.9855e-02 1 1  ON 3
uu_4 -6.1407e-02 1 1  ON 4
uu_5 -6.3968e-02 1 1  ON 5
uu_6 -4.9503e-02 1 1  ON 6
uu_7 -2.1902e-02 1 1  ON 7
uu_8 -3.0476e-03 1 1  ON 8
uu_9 -9.9759e-03 1 1  ON 9
ud_0 2.2284e-01 1 1  ON 10
ud_1 7.2468e-02 1 1  ON 11
ud_2 -6.8761e-03 1 1  ON 12
ud_3 -3.2571e-02 1 1  ON 13
ud_4 -5.2034e-02 1 1  ON 14
ud_5 -5.5981e-02 1 1  ON 15
ud_6 -5.0545e-02 1 1  ON 16
ud_7 -2.3386e-02 1 1  ON 17
ud_8 -1.8100e-02 1 1  ON 18
ud_9 -2.5681e-02 1 1  ON 19
eNi_0 -2.2526e+00 1 1  ON 20
eNi_1 -8.4140e-01 1 1  ON 21
eNi_2 4.0962e-02 1 1  ON 22
eNi_3 4.9266e-01 1 1  ON 23
eNi_4 7.5589e-01 1 1  ON 24
eNi_5 8.4006e-01 1 1  ON 25
eNi_6 6.7915e-01 1 1  ON 26
eNi_7 2.5367e-01 1 1  ON 27
eNi_8 2.6344e-02 1 1  ON 28
eNi_9 -2.6023e-03 1 1  ON 29
  </optVariables>
   Restore the number of walkers to 1, removing 0 walkers.
</opt>
</optimization-report>
  QMC Execution time = 8.6272e+00 secs
  Reusing QMCFixedSampleLinearOptimize
 Using QMCCostFunction::QMCCostFunction

=========================================================
  Start QMCFixedSampleLinearOptimize
  File Root Ni.log.s018 append = no 
=========================================================
  Skip QMCDriver::putQMCInfo 
  Resetting Properties of the walkers 1 x 13

=========================================================
  Start VMC
  File Root Ni.log.s018 append = no 
=========================================================
Using existing walkers 
  Resetting Properties of the walkers 1 x 13

<vmc function="put">
  qmc_counter=7  my_counter=17
  time step      = 1.5000e-01
  blocks         = 400
  steps          = 2
  substeps       = 5
  current        = 0
  target samples = 5.1200e+05
  walkers/mpi    = 1

  stepsbetweensamples = 1
<parameter name="blocks" condition="int">400</parameter>
<parameter name="blocks_between_recompute" condition="int">0</parameter>
<parameter name="check_properties" condition="int">100</parameter>
<parameter name="checkproperties" condition="int">100</parameter>
<parameter name="current" condition="int">0</parameter>
<parameter name="dmcwalkersperthread" condition="real">5.0000e+02</parameter>
<parameter name="maxcpusecs" condition="real">3.6000e+05</parameter>
<parameter name="record_configs" condition="int">0</parameter>
<parameter name="record_walkers" condition="int">1</parameter>
<parameter name="recordconfigs" condition="int">0</parameter>
<parameter name="recordwalkers" condition="int">1</parameter>
<parameter name="rewind" condition="int">0</parameter>
<parameter name="samples" condition="real">5.1200e+05</parameter>
<parameter name="samplesperthread" condition="real">5.0000e+02</parameter>
<parameter name="steps" condition="int">2</parameter>
<parameter name="stepsbetweensamples" condition="int">1</parameter>
<parameter name="store_configs" condition="int">0</parameter>
<parameter name="storeconfigs" condition="int">0</parameter>
<parameter name="sub_steps" condition="int">5</parameter>
<parameter name="substeps" condition="int">5</parameter>
<parameter name="tau" condition="au">1.5000e-01</parameter>
<parameter name="time_step" condition="au">1.5000e-01</parameter>
<parameter name="timestep" condition="au">1.5000e-01</parameter>
<parameter name="use_drift" condition="string">no</parameter>
<parameter name="usedrift" condition="string">no</parameter>
<parameter name="walkers" condition="int">1</parameter>
<parameter name="warmup_steps" condition="int">0</parameter>
<parameter name="warmupsteps" condition="int">0</parameter>
  DumpConfig==false Nothing (configurations, state) will be saved.
  Walker Samples are dumped every 1 steps.
</vmc>
  EstimatorManagerBase::add replace LocalEnergy estimator.
  EstimatorManagerBase::add replace LocalEnergy estimator.
<optimization-report>
<vmc stage="main" blocks="400">
  Cannot make clones again. Use existing 1 clones
  Initial partition of walkers 0 1 
  Using Particle by Particle moves
  Walker moves without drift
  Total Sample Size   =512000
  Walker distribution on root = 0 1 
  Using Locality Approximation
===== Memory Usage after the buffer registration =====
Available memory on node 0, free + buffers : 85169 MB
Memory footprint by rank 0 on node 0       : 121 MB
==================================================
====================================================
  SimpleFixedNodeBranch::finalize after a VMC block
    QMC counter        = 18
    time step          = 0.15
    reference energy   = -169.168
    reference variance = 4.52021
====================================================
  Execution time = 5.9051e+00
</vmc>
<opt stage="setup">
  <log>
   Reading configurations from h5FileRoot Ni.log.s018
  QMCCostFunction is created with 1 threads.
  Using Nonlocal PP in Opt: NonLocalECP
   Number of samples loaded to each thread : 500 
  VMC Eavg = -1.6920e+02
  VMC Evar = 3.6919e+00
  Total weights = 5.1200e+05
  Execution time = 1.3341e+00
  </log>
</opt>
<opt stage="main" walkers="512000">
  <log>

*****************************************
Building overlap and Hamiltonian matrices
*****************************************

Among totally 30 optimized parameters, largest LM parameter change : 2.2089e-02 at parameter 27

******************************************************************************
Init Cost =  -1.6055e+02    New Cost =  -1.6055e+02  Delta Cost =  -1.0455e-04
******************************************************************************

The new set of parameters is valid. Updating the trial wave function!

*****************************************************************************
Applying the update for shift_i =   1.0000e-02     and shift_s =   3.9062e-03
*****************************************************************************
  Execution time = 8.5021e+00
  </log>
  <optVariables href="Ni.log.s018.opt.xml">
uu_0 1.8359e-01 1 1  ON 0
uu_1 3.4002e-02 1 1  ON 1
uu_2 -2.2551e-02 1 1  ON 2
uu_3 -4.8870e-02 1 1  ON 3
uu_4 -5.6499e-02 1 1  ON 4
uu_5 -6.1702e-02 1 1  ON 5
uu_6 -5.3599e-02 1 1  ON 6
uu_7 -2.4138e-02 1 1  ON 7
uu_8 -2.1309e-03 1 1  ON 8
uu_9 -4.7717e-04 1 1  ON 9
ud_0 2.2822e-01 1 1  ON 10
ud_1 7.7492e-02 1 1  ON 11
ud_2 -2.2576e-03 1 1  ON 12
ud_3 -3.0504e-02 1 1  ON 13
ud_4 -5.0904e-02 1 1  ON 14
ud_5 -5.5852e-02 1 1  ON 15
ud_6 -4.9687e-02 1 1  ON 16
ud_7 -2.4014e-02 1 1  ON 17
ud_8 -1.9204e-02 1 1  ON 18
ud_9 -1.7483e-02 1 1  ON 19
eNi_0 -2.2652e+00 1 1  ON 20
eNi_1 -8.5766e-01 1 1  ON 21
eNi_2 3.3821e-02 1 1  ON 22
eNi_3 4.9246e-01 1 1  ON 23
eNi_4 7.4554e-01 1 1  ON 24
eNi_5 8.4961e-01 1 1  ON 25
eNi_6 6.9284e-01 1 1  ON 26
eNi_7 2.7576e-01 1 1  ON 27
eNi_8 2.8152e-02 1 1  ON 28
eNi_9 -7.8713e-04 1 1  ON 29
  </optVariables>
   Restore the number of walkers to 1, removing 0 walkers.
</opt>
</optimization-report>
  QMC Execution time = 8.5107e+00 secs
  Reusing QMCFixedSampleLinearOptimize
 Using QMCCostFunction::QMCCostFunction

=========================================================
  Start QMCFixedSampleLinearOptimize
  File Root Ni.log.s019 append = no 
=========================================================
  Skip QMCDriver::putQMCInfo 
  Resetting Properties of the walkers 1 x 13

=========================================================
  Start VMC
  File Root Ni.log.s019 append = no 
=========================================================
Using existing walkers 
  Resetting Properties of the walkers 1 x 13

<vmc function="put">
  qmc_counter=8  my_counter=18
  time step      = 1.5000e-01
  blocks         = 400
  steps          = 2
  substeps       = 5
  current        = 0
  target samples = 5.1200e+05
  walkers/mpi    = 1

  stepsbetweensamples = 1
<parameter name="blocks" condition="int">400</parameter>
<parameter name="blocks_between_recompute" condition="int">0</parameter>
<parameter name="check_properties" condition="int">100</parameter>
<parameter name="checkproperties" condition="int">100</parameter>
<parameter name="current" condition="int">0</parameter>
<parameter name="dmcwalkersperthread" condition="real">5.0000e+02</parameter>
<parameter name="maxcpusecs" condition="real">3.6000e+05</parameter>
<parameter name="record_configs" condition="int">0</parameter>
<parameter name="record_walkers" condition="int">1</parameter>
<parameter name="recordconfigs" condition="int">0</parameter>
<parameter name="recordwalkers" condition="int">1</parameter>
<parameter name="rewind" condition="int">0</parameter>
<parameter name="samples" condition="real">5.1200e+05</parameter>
<parameter name="samplesperthread" condition="real">5.0000e+02</parameter>
<parameter name="steps" condition="int">2</parameter>
<parameter name="stepsbetweensamples" condition="int">1</parameter>
<parameter name="store_configs" condition="int">0</parameter>
<parameter name="storeconfigs" condition="int">0</parameter>
<parameter name="sub_steps" condition="int">5</parameter>
<parameter name="substeps" condition="int">5</parameter>
<parameter name="tau" condition="au">1.5000e-01</parameter>
<parameter name="time_step" condition="au">1.5000e-01</parameter>
<parameter name="timestep" condition="au">1.5000e-01</parameter>
<parameter name="use_drift" condition="string">no</parameter>
<parameter name="usedrift" condition="string">no</parameter>
<parameter name="walkers" condition="int">1</parameter>
<parameter name="warmup_steps" condition="int">0</parameter>
<parameter name="warmupsteps" condition="int">0</parameter>
  DumpConfig==false Nothing (configurations, state) will be saved.
  Walker Samples are dumped every 1 steps.
</vmc>
  EstimatorManagerBase::add replace LocalEnergy estimator.
  EstimatorManagerBase::add replace LocalEnergy estimator.
<optimization-report>
<vmc stage="main" blocks="400">
  Cannot make clones again. Use existing 1 clones
  Initial partition of walkers 0 1 
  Using Particle by Particle moves
  Walker moves without drift
  Total Sample Size   =512000
  Walker distribution on root = 0 1 
  Using Locality Approximation
===== Memory Usage after the buffer registration =====
Available memory on node 0, free + buffers : 85165 MB
Memory footprint by rank 0 on node 0       : 123 MB
==================================================
====================================================
  SimpleFixedNodeBranch::finalize after a VMC block
    QMC counter        = 19
    time step          = 0.15
    reference energy   = -169.138
    reference variance = 4.64771
====================================================
  Execution time = 5.9211e+00
</vmc>
<opt stage="setup">
  <log>
   Reading configurations from h5FileRoot Ni.log.s019
  QMCCostFunction is created with 1 threads.
  Using Nonlocal PP in Opt: NonLocalECP
   Number of samples loaded to each thread : 500 
  VMC Eavg = -1.6920e+02
  VMC Evar = 3.6835e+00
  Total weights = 5.1200e+05
  Execution time = 1.3199e+00
  </log>
</opt>
<opt stage="main" walkers="512000">
  <log>

*****************************************
Building overlap and Hamiltonian matrices
*****************************************

Among totally 30 optimized parameters, largest LM parameter change : 2.3715e-02 at parameter 26

******************************************************************************
Init Cost =  -1.6055e+02    New Cost =  -1.6055e+02  Delta Cost =  -5.0120e-04
******************************************************************************

The new set of parameters is valid. Updating the trial wave function!

*****************************************************************************
Applying the update for shift_i =   1.0000e-02     and shift_s =   3.9062e-03
*****************************************************************************
  Execution time = 8.4889e+00
  </log>
  <optVariables href="Ni.log.s019.opt.xml">
uu_0 1.8405e-01 1 1  ON 0
uu_1 3.5174e-02 1 1  ON 1
uu_2 -2.2291e-02 1 1  ON 2
uu_3 -4.7860e-02 1 1  ON 3
uu_4 -5.6491e-02 1 1  ON 4
uu_5 -5.9625e-02 1 1  ON 5
uu_6 -4.6413e-02 1 1  ON 6
uu_7 -1.8143e-02 1 1  ON 7
uu_8 1.9135e-03 1 1  ON 8
uu_9 -6.6804e-03 1 1  ON 9
ud_0 2.3239e-01 1 1  ON 10
ud_1 8.2376e-02 1 1  ON 11
ud_2 2.8083e-03 1 1  ON 12
ud_3 -2.4798e-02 1 1  ON 13
ud_4 -4.5276e-02 1 1  ON 14
ud_5 -5.3922e-02 1 1  ON 15
ud_6 -4.9456e-02 1 1  ON 16
ud_7 -3.5705e-02 1 1  ON 17
ud_8 -1.0568e-02 1 1  ON 18
ud_9 -1.9680e-02 1 1  ON 19
eNi_0 -2.2709e+00 1 1  ON 20
eNi_1 -8.6459e-01 1 1  ON 21
eNi_2 2.4721e-02 1 1  ON 22
eNi_3 4.7725e-01 1 1  ON 23
eNi_4 7.3879e-01 1 1  ON 24
eNi_5 8.4764e-01 1 1  ON 25
eNi_6 7.1656e-01 1 1  ON 26
eNi_7 2.9684e-01 1 1  ON 27
eNi_8 3.3931e-02 1 1  ON 28
eNi_9 -3.0811e-03 1 1  ON 29
  </optVariables>
   Restore the number of walkers to 1, removing 0 walkers.
</opt>
</optimization-report>
  QMC Execution time = 8.4975e+00 secs
  Reusing QMCFixedSampleLinearOptimize
 Using QMCCostFunction::QMCCostFunction

=========================================================
  Start QMCFixedSampleLinearOptimize
  File Root Ni.log.s020 append = no 
=========================================================
  Skip QMCDriver::putQMCInfo 
  Resetting Properties of the walkers 1 x 13

=========================================================
  Start VMC
  File Root Ni.log.s020 append = no 
=========================================================
Using existing walkers 
  Resetting Properties of the walkers 1 x 13

<vmc function="put">
  qmc_counter=9  my_counter=19
  time step      = 1.5000e-01
  blocks         = 400
  steps          = 2
  substeps       = 5
  current        = 0
  target samples = 5.1200e+05
  walkers/mpi    = 1

  stepsbetweensamples = 1
<parameter name="blocks" condition="int">400</parameter>
<parameter name="blocks_between_recompute" condition="int">0</parameter>
<parameter name="check_properties" condition="int">100</parameter>
<parameter name="checkproperties" condition="int">100</parameter>
<parameter name="current" condition="int">0</parameter>
<parameter name="dmcwalkersperthread" condition="real">5.0000e+02</parameter>
<parameter name="maxcpusecs" condition="real">3.6000e+05</parameter>
<parameter name="record_configs" condition="int">0</parameter>
<parameter name="record_walkers" condition="int">1</parameter>
<parameter name="recordconfigs" condition="int">0</parameter>
<parameter name="recordwalkers" condition="int">1</parameter>
<parameter name="rewind" condition="int">0</parameter>
<parameter name="samples" condition="real">5.1200e+05</parameter>
<parameter name="samplesperthread" condition="real">5.0000e+02</parameter>
<parameter name="steps" condition="int">2</parameter>
<parameter name="stepsbetweensamples" condition="int">1</parameter>
<parameter name="store_configs" condition="int">0</parameter>
<parameter name="storeconfigs" condition="int">0</parameter>
<parameter name="sub_steps" condition="int">5</parameter>
<parameter name="substeps" condition="int">5</parameter>
<parameter name="tau" condition="au">1.5000e-01</parameter>
<parameter name="time_step" condition="au">1.5000e-01</parameter>
<parameter name="timestep" condition="au">1.5000e-01</parameter>
<parameter name="use_drift" condition="string">no</parameter>
<parameter name="usedrift" condition="string">no</parameter>
<parameter name="walkers" condition="int">1</parameter>
<parameter name="warmup_steps" condition="int">0</parameter>
<parameter name="warmupsteps" condition="int">0</parameter>
  DumpConfig==false Nothing (configurations, state) will be saved.
  Walker Samples are dumped every 1 steps.
</vmc>
  EstimatorManagerBase::add replace LocalEnergy estimator.
  EstimatorManagerBase::add replace LocalEnergy estimator.
<optimization-report>
<vmc stage="main" blocks="400">
  Cannot make clones again. Use existing 1 clones
  Initial partition of walkers 0 1 
  Using Particle by Particle moves
  Walker moves without drift
  Total Sample Size   =512000
  Walker distribution on root = 0 1 
  Using Locality Approximation
===== Memory Usage after the buffer registration =====
Available memory on node 0, free + buffers : 85162 MB
Memory footprint by rank 0 on node 0       : 126 MB
==================================================
====================================================
  SimpleFixedNodeBranch::finalize after a VMC block
    QMC counter        = 20
    time step          = 0.15
    reference energy   = -169.217
    reference variance = 3.51514
====================================================
  Execution time = 5.8725e+00
</vmc>
<opt stage="setup">
  <log>
   Reading configurations from h5FileRoot Ni.log.s020
  QMCCostFunction is created with 1 threads.
  Using Nonlocal PP in Opt: NonLocalECP
   Number of samples loaded to each thread : 500 
  VMC Eavg = -1.6919e+02
  VMC Evar = 3.7091e+00
  Total weights = 5.1200e+05
  Execution time = 1.2903e+00
  </log>
</opt>
<opt stage="main" walkers="512000">
  <log>

*****************************************
Building overlap and Hamiltonian matrices
*****************************************

Among totally 30 optimized parameters, largest LM parameter change : 2.5780e-02 at parameter 27

******************************************************************************
Init Cost =  -1.6055e+02    New Cost =  -1.6055e+02  Delta Cost =  -5.3245e-05
******************************************************************************

The new set of parameters is valid. Updating the trial wave function!

*****************************************************************************
Applying the update for shift_i =   1.0000e-02     and shift_s =   3.9062e-03
*****************************************************************************
  Execution time = 8.3826e+00
  </log>
  <optVariables href="Ni.log.s020.opt.xml">
uu_0 1.9037e-01 1 1  ON 0
uu_1 4.1361e-02 1 1  ON 1
uu_2 -1.5710e-02 1 1  ON 2
uu_3 -4.2874e-02 1 1  ON 3
uu_4 -5.2978e-02 1 1  ON 4
uu_5 -5.8271e-02 1 1  ON 5
uu_6 -4.8699e-02 1 1  ON 6
uu_7 -1.7050e-02 1 1  ON 7
uu_8 1.0090e-02 1 1  ON 8
uu_9 -3.7456e-04 1 1  ON 9
ud_0 2.3395e-01 1 1  ON 10
ud_1 8.3550e-02 1 1  ON 11
ud_2 4.1946e-03 1 1  ON 12
ud_3 -2.2620e-02 1 1  ON 13
ud_4 -4.4687e-02 1 1  ON 14
ud_5 -4.7934e-02 1 1  ON 15
ud_6 -4.7228e-02 1 1  ON 16
ud_7 -1.9140e-02 1 1  ON 17
ud_8 -3.8532e-03 1 1  ON 18
ud_9 -1.2463e-02 1 1  ON 19
eNi_0 -2.2876e+00 1 1  ON 20
eNi_1 -8.8234e-01 1 1  ON 21
eNi_2 6.8407e-03 1 1  ON 22
eNi_3 4.7334e-01 1 1  ON 23
eNi_4 7.4575e-01 1 1  ON 24
eNi_5 8.5136e-01 1 1  ON 25
eNi_6 7.3677e-01 1 1  ON 26
eNi_7 3.2262e-01 1 1  ON 27
eNi_8 4.0529e-02 1 1  ON 28
eNi_9 -3.4223e-03 1 1  ON 29
  </optVariables>
   Restore the number of walkers to 1, removing 0 walkers.
</opt>
</optimization-report>
  QMC Execution time = 8.3902e+00 secs
  Total Execution time = 1.5871e+02 secs

=========================================================
  A new xml input file : Ni.log.s020.cont.xml
TACC:  Shutdown complete. Exiting. 
