
 Primary working directories    : /global/cscratch1/sd/aannabe
 Secondary working directories  : /global/cscratch1/sd/aannabe
 Wavefunction directory         : /global/homes/a/aannabe/wfu/
 Main file repository           : /global/cscratch1/sd/aannabe/

 SHA1      : 2873118e99aab1bc19f5b6fc1784693c06d15c95
 NAME      : 2015.1.8
 ARCHNAME  : linux/x86_64
 FC        : /opt/cray/pe/craype/2.5.5/bin/ftn
 BLASLIB   : -Wl,-_start-group /opt/intel/compilers_and_libraries_2016.3.210/linux/mkl/lib/intel64/libmkl_intel_ilp64.a /opt/intel/compilers_and_libraries_2016.3.210/linux/mkl/lib/intel64/libmkl_intel_thread.a /opt/intel/compilers_and_libraries_2016.3.210/linux/mkl/lib/intel64/libmkl_core.a -Wl,-_end-group
 id        : lbl

 Nodes     nprocs
 nid01467     1

 Using customized tuning parameters: mindgm=8; mindgv=16; mindgc=4; mindgr=1; noblas=0; minvec=7
 default implementation of scratch files=df  

 ***,Co
 memory,512,m
 gthresh,twoint=1.e-12
 
 gprint,basis,orbitals
 gexpec,ekin,pot
 
 angstrom
 geometry={
 1                                                                               ! Number of atoms
 Co 0.0 0.0 0.0
 }
 
 basis={
 Including file /global/homes/a/aannabe/docs/accurate/ccECP_D2h/pps/Co.pp
 Including file /global/homes/a/aannabe/docs/accurate/ccECP_D2h/basis/aug-cc-pVnZ/Co_dz.basis
 }
 
 {hf
 wf,17,6,3
 occ,4,1,1,1,1,1,1,0
 closed,3,1,1,0,1,1,0,0
                                                                                 !open,4.1,1.7,1.4
 sym,1,1,1,3,2
 }
 scf(i)=energy
 
 _CC_NORM_MAX=2.0
 {ci
 maxit,100
 core
 }
 posthf(i)=energy
 
 table,scf,posthf,ekin,pot
 save,2.csv,new
 
 

 Variables initialized (889), CPU time= 0.00 sec
 Commands  initialized (702), CPU time= 0.01 sec, 572 directives.
 Default parameters read. Elapsed time= 0.10 sec

 Checking input...
 Passed
1


                                         ***  PROGRAM SYSTEM MOLPRO  ***
                                       Copyright, TTI GmbH Stuttgart, 2015
                                    Version 2015.1 linked Sep  7 2016 23:09:38


 **********************************************************************************************************************************
 LABEL *   Co                                                                            
  64 bit serial version                                                                  DATE: 28-Oct-18          TIME: 14:35:14  
 **********************************************************************************************************************************

 SHA1:             2873118e99aab1bc19f5b6fc1784693c06d15c95
 **********************************************************************************************************************************

 THRESHOLDS:

 ZERO    =  1.00D-12  ONEINT  =  1.00D-12  TWOINT  =  1.00D-12  PREFAC  =  1.00D-14  LOCALI  =  1.00D-09  EORDER  =  1.00D-04
 ENERGY  =  0.00D+00  ETEST   =  0.00D+00  EDENS   =  0.00D+00  THRDEDEF=  1.00D-06  GRADIENT=  1.00D-02  STEP    =  1.00D-03
 ORBITAL =  1.00D-05  CIVEC   =  1.00D-05  COEFF   =  1.00D-04  PRINTCI =  5.00D-02  PUNCHCI =  9.90D+01  OPTGRAD =  3.00D-04
 OPTENERG=  1.00D-06  OPTSTEP =  3.00D-04  THRGRAD =  1.00D-10  COMPRESS=  1.00D-11  VARMIN  =  1.00D-07  VARMAX  =  1.00D-03
 THRDOUB =  0.00D+00  THRDIV  =  1.00D-05  THRRED  =  1.00D-07  THRPSP  =  1.00D+00  THRDC   =  1.00D-10  THRCS   =  1.00D-10
 THRNRM  =  1.00D-08  THREQ   =  0.00D+00  THRDE   =  1.00D+00  THRREF  =  1.00D-05  SPARFAC =  1.00D+00  THRDLP  =  1.00D-07
 THRDIA  =  1.00D-10  THRDLS  =  1.00D-07  THRGPS  =  0.00D+00  THRKEX  =  0.00D+00  THRDIS  =  2.00D-01  THRVAR  =  1.00D-10
 THRLOC  =  1.00D-06  THRGAP  =  1.00D-06  THRLOCT = -1.00D+00  THRGAPT = -1.00D+00  THRORB  =  1.00D-06  THRMLTP =  0.00D+00
 THRCPQCI=  1.00D-10  KEXTA   =  0.00D+00  THRCOARS=  0.00D+00  SYMTOL  =  1.00D-06  GRADTOL =  1.00D-06  THROVL  =  1.00D-08
 THRORTH =  1.00D-08  GRID    =  1.00D-06  GRIDMAX =  1.00D-03  DTMAX   =  0.00D+00  THROCCDE=  1.00D-01  THROCCDE=  1.00D-01



 ZUNIT=ANG
 

Geometry recognized as XYZ


 Variable memory set to  512000000 words,  buffer space   230000 words

 SETTING BASIS          =    USERDEF


 Recomputing integrals since basis changed


 Using spherical harmonics



 PROGRAM * SEWARD (Integral evaluation for generally contracted gaussian basis sets)     Author: Roland Lindh, 1990

 Geometry written to block  1 of record 700

 Orientation using atomic masses  
 Molecule type: Atom
 Symmetry elements: X,Y,Z
 Rotational constants:       0.0000000      0.0000000      0.0000000 GHz  (calculated with average atomic masses)

 Point group  D2h 



 ATOMIC COORDINATES

 NR  ATOM    CHARGE       X              Y              Z

   1  CO     17.00    0.000000000    0.000000000    0.000000000


          CO  CORE POTENTIAL

          d POTENTIAL

 POWERS             1              3              2              2
 EXPONENTIALS   25.00124       22.83490       23.47468       10.33795    
 COEFFICIENTS   17.00000       425.0211      -195.4821      -2.815729    

          s - d POTENTIAL

 POWERS             2              2
 EXPONENTIALS   23.41427       10.76932    
 COEFFICIENTS   271.7771       54.26461    

          p - d POTENTIAL

 POWERS             2              2
 EXPONENTIALS   25.47446       10.68405    
 COEFFICIENTS   201.5343       38.99232    


 BASIS DATA

   Nr Sym  Nuc  Type         Exponents   Contraction coefficients

    1.1 Ag    1  1s          90.663831     0.000774   -0.000154   -0.000047    0.000000
    2.1 Ag                   46.961414    -0.011316    0.002525    0.003654    0.000000
    3.1 Ag                   24.110274     0.101209   -0.024443   -0.046132    0.000000
    4.1 Ag                   14.430881    -0.081642    0.022200    0.036483    0.000000
                              8.757423    -0.354812    0.088416    0.217265    0.000000
                              4.484459    -0.090362    0.016820   -0.011883    0.000000
                              2.519739     0.498174   -0.134582   -0.324688    0.000000
                              1.236850     0.604123   -0.231295   -0.680581    0.000000
                              0.601882     0.190775   -0.163986    0.256936    0.000000
                              0.223338     0.006578    0.121337    1.224005    0.000000
                              0.123422    -0.000905    0.402414    0.236837    0.000000
                              0.059941     0.000171    0.506113   -0.604064    0.000000
                              0.027978    -0.000025    0.145436   -0.574947    1.000000
    5.1 Ag    1  1s           0.013000     1.000000
    6.1 Ag    1  3d0        160.444504     0.000034
                             52.598830     0.006553
                             27.491581     0.036185
                             12.745988     0.083026
                              6.184310     0.176960
                              3.029146     0.263990
                              1.474099     0.292447
                              0.714391     0.249597
                              0.348520     0.171637
                              0.174166     0.080649
                              0.087891     0.041212
    7.1 Ag    1  3d2+       160.444504     0.000034
                             52.598830     0.006553
                             27.491581     0.036185
                             12.745988     0.083026
                              6.184310     0.176960
                              3.029146     0.263990
                              1.474099     0.292447
                              0.714391     0.249597
                              0.348520     0.171637
                              0.174166     0.080649
                              0.087891     0.041212
    8.1 Ag    1  3d0        160.444504    -0.000031
                             52.598830    -0.007869
                             27.491581    -0.041992
                             12.745988    -0.101388
                              6.184310    -0.216996
                              3.029146    -0.283962
                              1.474099    -0.127179
                              0.714391     0.177125
                              0.348520     0.375596
                              0.174166     0.284631
                              0.087891     0.200277
    9.1 Ag    1  3d2+       160.444504    -0.000031
                             52.598830    -0.007869
                             27.491581    -0.041992
                             12.745988    -0.101388
                              6.184310    -0.216996
                              3.029146    -0.283962
                              1.474099    -0.127179
                              0.714391     0.177125
                              0.348520     0.375596
                              0.174166     0.284631
                              0.087891     0.200277
   10.1 Ag    1  3d0        160.444504     0.000000
                             52.598830     0.000000
                             27.491581     0.000000
                             12.745988     0.000000
                              6.184310     0.000000
                              3.029146     0.000000
                              1.474099     0.000000
                              0.714391     0.000000
                              0.348520     0.000000
                              0.174166     0.000000
                              0.087891     1.000000
   11.1 Ag    1  3d2+       160.444504     0.000000
                             52.598830     0.000000
                             27.491581     0.000000
                             12.745988     0.000000
                              6.184310     0.000000
                              3.029146     0.000000
                              1.474099     0.000000
                              0.714391     0.000000
                              0.348520     0.000000
                              0.174166     0.000000
                              0.087891     1.000000
   12.1 Ag    1  3d0          0.043000     1.000000
   13.1 Ag    1  3d2+         0.043000     1.000000
    1.2 B3u   1  2px        139.038145     0.000075    0.000025   -0.000238    0.000000
    2.2 B3u                  71.928971    -0.000627   -0.000084    0.001489    0.000000
    3.2 B3u                  37.806311     0.005719   -0.000485   -0.008723    0.000000
    4.2 B3u                  21.054252    -0.009310    0.000095    0.024538    0.000000
                             12.973193    -0.083857    0.022402    0.060856    0.000000
                              6.791461     0.012394   -0.011534   -0.020380    0.000000
                              3.794018     0.281987   -0.056866   -0.430195    0.000000
                              1.960649     0.434179   -0.126070   -0.407692    0.000000
                              1.006283     0.313409   -0.060889    0.085326    0.000000
                              0.509539     0.089778   -0.035086    1.073326    0.000000
                              0.233091     0.007405    0.351847    0.015067    0.000000
                              0.083890     0.000980    0.510449   -0.719631    0.000000
                              0.039802     0.000274    0.289707   -0.024603    1.000000
    5.2 B3u   1  2px          0.019000     1.000000
    6.2 B3u   1  4f1+         0.557444     1.000000
    7.2 B3u   1  4f3+         0.557444     1.000000
    8.2 B3u   1  4f1+         2.012568     1.000000
    9.2 B3u   1  4f3+         2.012568     1.000000
    1.3 B2u   1  2py        139.038145     0.000075    0.000025   -0.000238    0.000000
    2.3 B2u                  71.928971    -0.000627   -0.000084    0.001489    0.000000
    3.3 B2u                  37.806311     0.005719   -0.000485   -0.008723    0.000000
    4.3 B2u                  21.054252    -0.009310    0.000095    0.024538    0.000000
                             12.973193    -0.083857    0.022402    0.060856    0.000000
                              6.791461     0.012394   -0.011534   -0.020380    0.000000
                              3.794018     0.281987   -0.056866   -0.430195    0.000000
                              1.960649     0.434179   -0.126070   -0.407692    0.000000
                              1.006283     0.313409   -0.060889    0.085326    0.000000
                              0.509539     0.089778   -0.035086    1.073326    0.000000
                              0.233091     0.007405    0.351847    0.015067    0.000000
                              0.083890     0.000980    0.510449   -0.719631    0.000000
                              0.039802     0.000274    0.289707   -0.024603    1.000000
    5.3 B2u   1  2py          0.019000     1.000000
    6.3 B2u   1  4f1-         0.557444     1.000000
    7.3 B2u   1  4f3-         0.557444     1.000000
    8.3 B2u   1  4f1-         2.012568     1.000000
    9.3 B2u   1  4f3-         2.012568     1.000000
    1.4 B1g   1  3d2-       160.444504     0.000034   -0.000031    0.000000
    2.4 B1g                  52.598830     0.006553   -0.007869    0.000000
    3.4 B1g                  27.491581     0.036185   -0.041992    0.000000
                             12.745988     0.083026   -0.101388    0.000000
                              6.184310     0.176960   -0.216996    0.000000
                              3.029146     0.263990   -0.283962    0.000000
                              1.474099     0.292447   -0.127179    0.000000
                              0.714391     0.249597    0.177125    0.000000
                              0.348520     0.171637    0.375596    0.000000
                              0.174166     0.080649    0.284631    0.000000
                              0.087891     0.041212    0.200277    1.000000
    4.4 B1g   1  3d2-         0.043000     1.000000
    1.5 B1u   1  2pz        139.038145     0.000075    0.000025   -0.000238    0.000000
    2.5 B1u                  71.928971    -0.000627   -0.000084    0.001489    0.000000
    3.5 B1u                  37.806311     0.005719   -0.000485   -0.008723    0.000000
    4.5 B1u                  21.054252    -0.009310    0.000095    0.024538    0.000000
                             12.973193    -0.083857    0.022402    0.060856    0.000000
                              6.791461     0.012394   -0.011534   -0.020380    0.000000
                              3.794018     0.281987   -0.056866   -0.430195    0.000000
                              1.960649     0.434179   -0.126070   -0.407692    0.000000
                              1.006283     0.313409   -0.060889    0.085326    0.000000
                              0.509539     0.089778   -0.035086    1.073326    0.000000
                              0.233091     0.007405    0.351847    0.015067    0.000000
                              0.083890     0.000980    0.510449   -0.719631    0.000000
                              0.039802     0.000274    0.289707   -0.024603    1.000000
    5.5 B1u   1  2pz          0.019000     1.000000
    6.5 B1u   1  4f0          0.557444     1.000000
    7.5 B1u   1  4f2+         0.557444     1.000000
    8.5 B1u   1  4f0          2.012568     1.000000
    9.5 B1u   1  4f2+         2.012568     1.000000
    1.6 B2g   1  3d1+       160.444504     0.000034   -0.000031    0.000000
    2.6 B2g                  52.598830     0.006553   -0.007869    0.000000
    3.6 B2g                  27.491581     0.036185   -0.041992    0.000000
                             12.745988     0.083026   -0.101388    0.000000
                              6.184310     0.176960   -0.216996    0.000000
                              3.029146     0.263990   -0.283962    0.000000
                              1.474099     0.292447   -0.127179    0.000000
                              0.714391     0.249597    0.177125    0.000000
                              0.348520     0.171637    0.375596    0.000000
                              0.174166     0.080649    0.284631    0.000000
                              0.087891     0.041212    0.200277    1.000000
    4.6 B2g   1  3d1+         0.043000     1.000000
    1.7 B3g   1  3d1-       160.444504     0.000034   -0.000031    0.000000
    2.7 B3g                  52.598830     0.006553   -0.007869    0.000000
    3.7 B3g                  27.491581     0.036185   -0.041992    0.000000
                             12.745988     0.083026   -0.101388    0.000000
                              6.184310     0.176960   -0.216996    0.000000
                              3.029146     0.263990   -0.283962    0.000000
                              1.474099     0.292447   -0.127179    0.000000
                              0.714391     0.249597    0.177125    0.000000
                              0.348520     0.171637    0.375596    0.000000
                              0.174166     0.080649    0.284631    0.000000
                              0.087891     0.041212    0.200277    1.000000
    4.7 B3g   1  3d1-         0.043000     1.000000
    1.8 Au    1  4f2-         0.557444     1.000000
    2.8 Au    1  4f2-         2.012568     1.000000

 NUCLEAR CHARGE:                   17
 NUMBER OF PRIMITIVE AOS:         148
 NUMBER OF SYMMETRY AOS:          130
 NUMBER OF CONTRACTIONS:           54   (  13Ag  +   9B3u +   9B2u +   4B1g +   9B1u +   4B2g +   4B3g +   2Au  )
 NUMBER OF CORE ORBITALS:           4   (   1Ag  +   1B3u +   1B2u +   0B1g +   1B1u +   0B2g +   0B3g +   0Au  )
 NUMBER OF VALENCE ORBITALS:        6   (   3Ag  +   0B3u +   0B2u +   1B1g +   0B1u +   1B2g +   1B3g +   0Au  )


 NUCLEAR REPULSION ENERGY    0.00000000

 EXTRA SYMMETRY OF AOS IN SYMMETRY 1:   1 1 1 1 1 2 3 2 3 2   3 2 3
 EXTRA SYMMETRY OF AOS IN SYMMETRY 2:   1 1 1 1 1 2 3 2 3
 EXTRA SYMMETRY OF AOS IN SYMMETRY 3:   1 1 1 1 1 2 3 2 3
 EXTRA SYMMETRY OF AOS IN SYMMETRY 5:   1 1 1 1 1 2 3 2 3

 Eigenvalues of metric

         1 0.127E-01 0.122E+00 0.122E+00 0.199E+00 0.623E+00 0.623E+00 0.990E+00 0.990E+00
         2 0.395E-01 0.409E+00 0.581E+00 0.581E+00 0.840E+00 0.100E+01 0.142E+01 0.142E+01
         3 0.395E-01 0.409E+00 0.581E+00 0.581E+00 0.840E+00 0.100E+01 0.142E+01 0.142E+01
         4 0.122E+00 0.623E+00 0.990E+00 0.227E+01
         5 0.395E-01 0.409E+00 0.581E+00 0.581E+00 0.840E+00 0.100E+01 0.142E+01 0.142E+01
         6 0.122E+00 0.623E+00 0.990E+00 0.227E+01
         7 0.122E+00 0.623E+00 0.990E+00 0.227E+01
         8 0.581E+00 0.142E+01


 Contracted 2-electron integrals neglected if value below      1.0D-12
 AO integral compression algorithm  1   Integral accuracy      1.0D-12

     1.835 MB (compressed) written to integral file ( 62.6%)


 NUMBER OF SORTED TWO-ELECTRON INTEGRALS:     153544.     BUFFER LENGTH:  32768
 NUMBER OF SEGMENTS:   1  SEGMENT LENGTH:     153544      RECORD LENGTH: 524288

 Memory used in sort:       0.71 MW

 SORT1 READ      321044. AND WROTE      125920. INTEGRALS IN      1 RECORDS. CPU TIME:     0.00 SEC, REAL TIME:     0.01 SEC
 SORT2 READ      125920. AND WROTE      153544. INTEGRALS IN      7 RECORDS. CPU TIME:     0.02 SEC, REAL TIME:     0.04 SEC

 FILE SIZES:   FILE 1:    21.0 MBYTE,  FILE 4:     4.2 MBYTE,   TOTAL:     25.2 MBYTE

 OPERATOR DM      FOR CENTER  0  COORDINATES:    0.000000    0.000000    0.000000
 OPERATOR EKIN    FOR CENTER  0  COORDINATES:    0.000000    0.000000    0.000000
 OPERATOR POT     FOR CENTER  0  COORDINATES:    0.000000    0.000000    0.000000


 **********************************************************************************************************************************
 DATASETS  * FILE   NREC   LENGTH (MB)   RECORD NAMES
              1      20       19.94       500      610      700      900      950      970     1000      129      960     1100   
                                          VAR    BASINP    GEOM    SYMINP    ZMAT    AOBASIS   BASIS     P2S    ABASIS      S 
                                         1400     1410     1420     1200     1210     1080     1600     1650     1300     1700   
                                         EKIN       V       ECP      H0       H01     AOSYM     SMH    MOLCAS    ERIS     OPER   

 PROGRAMS   *        TOTAL       INT
 CPU TIMES  *         0.64      0.55
 REAL TIME  *         1.81 SEC
 DISK USED  *        25.51 MB      
 **********************************************************************************************************************************


 PROGRAM * RHF-SCF (OPEN SHELL)       Authors: W. Meyer, H.-J. Werner


 NUMBER OF ELECTRONS:      10+    7-    SPACE SYMMETRY=6    SPIN SYMMETRY: Quartet 
 CONVERGENCE THRESHOLDS:    1.00E-05 (Density)    1.00E-07 (Energy)
 MAX. NUMBER OF ITERATIONS:       60
 INTERPOLATION TYPE:            DIIS
 INTERPOLATION STEPS:              2 (START)      1 (STEP)
 LEVEL SHIFTS:                 -0.60 (CLOSED) -0.30 (OPEN) 

 Number of closed-shell orbitals:    7 (   3   1   1   0   1   1   0   0 )
 Number of open-shell orbitals:      3 (   1   0   0   1   0   0   1   0 )


 
 Extra symmetries of mos in symmetry 1:   1   1   3   2

   Atom=CO basis=ECP10MDF_GUESS    lmin=0  lmax=2

 Orbital guess generated from atomic densities. Full valence occupancy:    4   1   1   1   1   1   1   0


 Molecular orbital dump at record        2100.2

 ITERATION    DDIFF          GRAD             ENERGY        2-EL.EN.            DIPOLE MOMENTS         DIIS   ORB.
    1      0.000D+00      0.000D+00      -144.24033368    217.049203    0.00000    0.00000    0.00000    0    start
    2      0.000D+00      0.392D-01      -144.29812256    225.335290    0.00000    0.00000    0.00000    1    diag,B
    3      0.181D-01      0.230D-01      -144.31324310    223.058378    0.00000    0.00000    0.00000    2    diag,B
    4      0.850D-02      0.395D-02      -144.31570725    223.012808    0.00000    0.00000    0.00000    3    diag,B
    5      0.370D-02      0.165D-02      -144.31757594    222.996072    0.00000    0.00000    0.00000    4    diag,B
    6      0.261D-02      0.142D-02      -144.32036114    222.957499    0.00000    0.00000    0.00000    5    diag,B
    7      0.440D-02      0.126D-02      -144.32623578    222.919625    0.00000    0.00000    0.00000    6    fixocc
    8      0.136D-01      0.936D-03      -144.32625161    222.936247    0.00000    0.00000    0.00000    7    diag,B
    9      0.802D-03      0.707D-03      -144.32794752    222.928321    0.00000    0.00000    0.00000    8    diag,B
   10      0.112D-01      0.582D-03      -144.32800012    222.959584    0.00000    0.00000    0.00000    9    orth
   11      0.107D-02      0.204D-03      -144.32803123    222.969173    0.00000    0.00000    0.00000    9    diag,B
   12      0.158D-02      0.565D-04      -144.32803249    222.971863    0.00000    0.00000    0.00000    9    diag,B
   13      0.191D-03      0.248D-04      -144.32803289    222.973455    0.00000    0.00000    0.00000    9    diag,B
   14      0.115D-03      0.232D-04      -144.32803297    222.973390    0.00000    0.00000    0.00000    9    diag,B
   15      0.568D-04      0.731D-05      -144.32803299    222.973490    0.00000    0.00000    0.00000    9    diag,B
   16      0.297D-04      0.348D-05      -144.32803299    222.973251    0.00000    0.00000    0.00000    9    diag,B
   17      0.140D-04      0.237D-05      -144.32803300    222.973344    0.00000    0.00000    0.00000    9    diag,B
   18      0.512D-05      0.297D-06      -144.32803300    222.973328    0.00000    0.00000    0.00000    0    orth

 Final alpha occupancy:   4   1   1   1   1   1   1   0
 Final beta  occupancy:   3   1   1   0   1   1   0   0

 !RHF STATE 1.6 Energy               -144.328032995067
 Nuclear energy                         0.00000000
 One-electron energy                 -255.81469707
 Two-electron energy                  111.48666407
 Virial quotient                       -1.62929505
 !RHF STATE 1.6 Dipole moment           0.00000000     0.00000000     0.00000000
 Dipole moment /Debye                   0.00000000     0.00000000     0.00000000
 

 !RHF expec          <1.6|EKIN|1.6>    88.583116524397
 
 !RHF expec           <1.6|POT|1.6>   -21.153361155841

 ELECTRON ORBITALS
 =================


   Orb  Occ    Energy  Couls-En    Coefficients

                                   1 1s      1 1s      1 1s      1 1s      1 1s      1 3d0     1 3d2+    1 3d0     1 3d2+    1 3d0  
                                   1 3d2+    1 3d0     1 3d2+ 

   1.1   2    -4.6637  -23.9310  0.999979 -0.000075  0.000111  0.000124 -0.000004 -0.000000  0.000000  0.000000 -0.000000  0.000000
                                -0.000000 -0.000000  0.000000

   2.1   2    -0.2724   -6.4800  0.000210  1.001042  0.002616 -0.001315  0.000060  0.000010 -0.000006 -0.000000  0.000000  0.000001
                                -0.000001 -0.000000 -0.000002

   3.1   2    -0.6265  -14.7951  0.000000  0.000001  0.000000 -0.000001  0.000000  0.504693  0.874156 -0.015728 -0.027241 -0.023766
                                -0.041164  0.006199  0.010738

   4.1   +    -0.7236  -15.0703  0.000000 -0.000012 -0.000001 -0.000000 -0.000000  0.874373 -0.504819 -0.047721  0.027552 -0.049755
                                 0.028726  0.015025 -0.008674

                                   1 2px     1 2px     1 2px     1 2px     1 2px     1 4f1+    1 4f3+    1 4f1+    1 4f3+ 

   1.2   2    -3.0487  -20.5738  1.000216  0.013297  0.013347 -0.001741 -0.000760  0.002677  0.001152  0.004972  0.002140

                                   1 2py     1 2py     1 2py     1 2py     1 2py     1 4f1-    1 4f3-    1 4f1-    1 4f3- 

   1.3   2    -3.0487  -20.5738  1.000216  0.013297  0.013347 -0.001741 -0.000760 -0.001785 -0.002304 -0.003315 -0.004279

                                   1 3d2-    1 3d2-    1 3d2-    1 3d2- 

   1.4   +    -0.7236  -15.0703  1.009639 -0.055104 -0.057453  0.017349

                                   1 2pz     1 2pz     1 2pz     1 2pz     1 2pz     1 4f0     1 4f2+    1 4f0     1 4f2+ 

   1.5   2    -3.0487  -20.5738  1.000216  0.013297  0.013347 -0.001741 -0.000760 -0.000729  0.002822 -0.001353  0.005241

                                   1 3d1+    1 3d1+    1 3d1+    1 3d1+ 

   1.6   2    -0.6265  -14.7951  1.009388 -0.031455 -0.047532  0.012399

                                   1 3d1-    1 3d1-    1 3d1-    1 3d1- 

   1.7   +    -0.7236  -15.0703  1.009639 -0.055104 -0.057453  0.017349

 HOMO      1.6    -0.626514 =     -17.0483eV
 LUMO      2.2     0.025630 =       0.6974eV
 LUMO-HOMO         0.652144 =      17.7458eV


 **********************************************************************************************************************************
 DATASETS  * FILE   NREC   LENGTH (MB)   RECORD NAMES
              1      20       19.94       500      610      700      900      950      970     1000      129      960     1100   
                                          VAR    BASINP    GEOM    SYMINP    ZMAT    AOBASIS   BASIS     P2S    ABASIS      S 
                                         1400     1410     1420     1200     1210     1080     1600     1650     1300     1700   
                                         EKIN       V       ECP      H0       H01     AOSYM     SMH    MOLCAS    ERIS     OPER   

              2       4        2.77       700     1000      520     2100   
                                         GEOM     BASIS   MCVARS     RHF  

 PROGRAMS   *        TOTAL        HF       INT
 CPU TIMES  *         0.71      0.07      0.55
 REAL TIME  *         2.02 SEC
 DISK USED  *        25.51 MB      
 **********************************************************************************************************************************
 SETTING SCF(I)         =      -144.32803300  AU                              
 SETTING _CC_NORM_MAX   =         2.00000000                                  


 PROGRAM * CI (Multireference internally contracted CI)     Authors: H.-J. Werner, P.J. Knowles, 1987


 Convergence thresholds:  THRVAR = 1.00D-08  THRDEN = 1.00D-06

 Number of optimized states:  1  Roots:   1
 Number of reference states:  1  Roots:   1

 Reference symmetry:                   6   Quartet 
 Number of electrons:                 17
 Maximum number of shells:             3
 Maximum number of spin couplings:    14

 Reference space:        1 conf        1 CSFs
 N elec internal:       85 conf       85 CSFs
 N-1 el internal:      136 conf      346 CSFs
 N-2 el internal:       52 conf      409 CSFs

 Number of electrons in valence space:                     17
 Maximum number of open shell orbitals in reference space:  3
 Maximum number of open shell orbitals in internal spaces:  7


 Number of closed-shell orbitals:   7 (   3   1   1   0   1   1   0   0 )
 Number of active  orbitals:        3 (   1   0   0   1   0   0   1   0 )
 Number of external orbitals:      44 (   9   8   8   3   8   3   3   2 )

 Molecular orbitals read from record     2100.2  Type=RHF/CANONICAL (state 1.6)

 Integral transformation finished. Total CPU:   0.00 sec, npass=  1  Memory used:   0.09 MW

 Number of p-space configurations:   1

 Reference wavefunction optimized for reference space (refopt=1)

 State     Reference Energy 
   1        -144.32803300

 Number of blocks in overlap matrix:    94   Smallest eigenvalue:  0.10D+01
 Number of N-2 electron functions:      94
 Number of N-1 electron functions:     346

 Number of internal configurations:                   10
 Number of singly external configurations:          1908
 Number of doubly external configurations:         11946
 Total number of contracted configurations:        13864
 Total number of uncontracted configurations:      52726

 Diagonal Coupling coefficients finished.               Storage:   26495 words, CPU-Time:      0.00 seconds.
 Energy denominators for pairs finished in 1 passes.    Storage:   16707 words, CPU-time:      0.00 seconds.

  ITER. STATE  ROOT     SQ.NORM     CORR.ENERGY   TOTAL ENERGY   ENERGY CHANGE       DEN1      VAR(S)    VAR(P)      TIME
    1     1     1     1.00000000     0.00000000  -144.32803300     0.00000000    -0.51882251  0.19D-01  0.99D-01     0.02
    2     1     1     1.07383938    -0.41480972  -144.74284272    -0.41480972    -0.01226862  0.27D-02  0.13D-02     0.11
    3     1     1     1.07762296    -0.42573120  -144.75376420    -0.01092148    -0.00062342  0.14D-03  0.90D-04     0.19
    4     1     1     1.07886180    -0.42635870  -144.75439170    -0.00062750    -0.00004530  0.15D-04  0.58D-05     0.27
    5     1     1     1.07969018    -0.42640949  -144.75444249    -0.00005079    -0.00000266  0.24D-06  0.52D-06     0.35
    6     1     1     1.07978532    -0.42641246  -144.75444546    -0.00000297    -0.00000013  0.29D-07  0.17D-07     0.43
    7     1     1     1.07978955    -0.42641260  -144.75444560    -0.00000014    -0.00000001  0.17D-08  0.98D-09     0.52


 =====================================
 Analysis of CPU times by interactions
 =====================================

       I      S      P

 I   0.0%
 S   0.0%  67.3%
 P   0.0%   7.7%   9.6%

 Initialization:   1.9%
 Other:           13.5%

 Total CPU:        0.5 seconds
 =====================================



 Reference coefficients greater than 0.0500000
 =============================================
 222/22/22/           0.9620196



 RESULTS FOR STATE 1.6
 =====================

 Coefficient of reference function:   C(0) = 0.96201956 (fixed)   0.96201956 (relaxed)

 Energy contributions of configuration classes

 CLASS          SQ.NORM        ECORR1        ECORR2
 +++++++++++++++++++++++++++++++++++++++++++++++++++
 Internals    0.00067506   -0.00434264   -0.00428543
 Singles      0.01634772   -0.08836851   -0.08823322
 Pairs        0.06349569   -0.33370146   -0.33389396
 Total        1.08051847   -0.42641260   -0.42641260
 +++++++++++++++++++++++++++++++++++++++++++++++++++


 Reference energy                    -144.32803300
 Nuclear energy                         0.00000000
 Kinetic energy                        87.86159057
 One electron energy                 -254.92309507
 Two electron energy                  110.16864947
 Virial quotient                       -1.64752817
 Correlation energy                    -0.42641260
 !CI(SD) STATE 1.6 Energy            -144.754445599948

 Properties without orbital relaxation:

 !CI(SD) STATE 1.6 Dipole moment        0.00000000     0.00000000     0.00000000
 Dipole moment /Debye                   0.00000000     0.00000000     0.00000000

 Cluster corrected energies          -144.78877969 (Davidson, fixed reference)
 Cluster corrected energies          -144.78877969 (Davidson, relaxed reference)

 Cluster corrected energies          -144.78564282 (Pople, fixed reference)
 Cluster corrected energies          -144.78564282 (Pople, relaxed reference)

 

 !CI(SD) expec       <1.6|EKIN|1.6>    87.861590566432
 
 !CI(SD) expec        <1.6|POT|1.6>   -21.058129768375


 **********************************************************************************************************************************
 DATASETS  * FILE   NREC   LENGTH (MB)   RECORD NAMES
              1      21       20.23       500      610      700      900      950      970     1000      129      960     1100   
                                          VAR    BASINP    GEOM    SYMINP    ZMAT    AOBASIS   BASIS     P2S    ABASIS      S 
                                         1400     1410     1420     1200     1210     1080     1600     1650     1300     1700   
                                         EKIN       V       ECP      H0       H01     AOSYM     SMH    MOLCAS    ERIS     OPER   
                                         1380   
                                         JKOP   

              2       4        2.77       700     1000      520     2100   
                                         GEOM     BASIS   MCVARS     RHF  

 PROGRAMS   *        TOTAL        CI        HF       INT
 CPU TIMES  *         1.26      0.55      0.07      0.55
 REAL TIME  *         3.25 SEC
 DISK USED  *        25.51 MB      
 **********************************************************************************************************************************
 SETTING POSTHF(I)      =      -144.75444560  AU                              
                                                                                                                                                                                                                                                                

         SCF            POSTHF       EKIN           POT
    -144.3280330   -144.7544456   87.86159057   -21.05812977
                                                  

 CI/USERDEF energy=   -144.754445599948

        CI              HF-SCF  
   -144.75444560   -144.32803300
 **********************************************************************************************************************************
 Variable memory released
