----- GAMESS execution script 'rungms' -----
This job is running on host c505-014.stampede2.tacc.utexas.edu
under operating system Linux at Fri Dec 7 02:02:22 CST 2018
Available scratch disk space (Kbyte units) at beginning of the job is
Filesystem               1K-blocks  Used Available Use% Mounted on
/dev/mapper/rootvg01-tmp 150466784 41948 150424836   1% /tmp
GAMESS temporary binary files will be written to /tmp
GAMESS supplementary output files will be written to /work/04843/aannabe/stampede2/docs/accurate/qpack/Zn/QZ
Copying input file Zn.inp to your run's scratch directory...

 Distributed Data Interface kickoff program.
 Initiating 1 compute processes on 1 nodes to run the following command:
 /work/04843/aannabe/stampede2/codes/gamess-mcb/gamess/gamess.00.x Zn 

          ******************************************************
          *         GAMESS VERSION =  1 MAY 2013 (R1)          *
          *             FROM IOWA STATE UNIVERSITY             *
          * M.W.SCHMIDT, K.K.BALDRIDGE, J.A.BOATZ, S.T.ELBERT, *
          *   M.S.GORDON, J.H.JENSEN, S.KOSEKI, N.MATSUNAGA,   *
          *          K.A.NGUYEN, S.J.SU, T.L.WINDUS,           *
          *       TOGETHER WITH M.DUPUIS, J.A.MONTGOMERY       *
          *         J.COMPUT.CHEM.  14, 1347-1363(1993)        *
          **************** 64 BIT INTEL VERSION ****************

  SINCE 1993, STUDENTS AND POSTDOCS WORKING AT IOWA STATE UNIVERSITY
  AND ALSO IN THEIR VARIOUS JOBS AFTER LEAVING ISU HAVE MADE IMPORTANT
  CONTRIBUTIONS TO THE CODE:
     IVANA ADAMOVIC, CHRISTINE AIKENS, YURI ALEXEEV, POOJA ARORA,
     ANDREY ASADCHEV, ROB BELL, PRADIPTA BANDYOPADHYAY, JONATHAN BENTZ,
     BRETT BODE, GALINA CHABAN, WEI CHEN, CHEOL HO CHOI, PAUL DAY,
     ALBERT DEFUSCO, TIM DUDLEY, DMITRI FEDOROV, GRAHAM FLETCHER,
     MARK FREITAG, KURT GLAESEMANN, DAN KEMP, GRANT MERRILL,
     NORIYUKI MINEZAWA, JONATHAN MULLIN, TAKESHI NAGATA,
     SEAN NEDD, HEATHER NETZLOFF, BOSILJKA NJEGIC, RYAN OLSON, MIKE PAK,
     JIM SHOEMAKER, LYUDMILA SLIPCHENKO, SAROM SOK, JIE SONG,
     TETSUYA TAKETSUGU, SIMON WEBB, SOOHAENG YOO, FEDERICO ZAHARIEV

  ADDITIONAL CODE HAS BEEN PROVIDED BY COLLABORATORS IN OTHER GROUPS:
     IOWA STATE UNIVERSITY:
          JOE IVANIC, LAIMUTIS BYTAUTAS, KLAUS RUEDENBERG
     UNIVERSITY OF TOKYO: KIMIHIKO HIRAO, TAKAHITO NAKAJIMA,
          TAKAO TSUNEDA, MUNEAKI KAMIYA, SUSUMU YANAGISAWA,
          KIYOSHI YAGI, MAHITO CHIBA, SEIKEN TOKURA, NAOAKI KAWAKAMI
     UNIVERSITY OF AARHUS: FRANK JENSEN
     UNIVERSITY OF IOWA: VISVALDAS KAIRYS, HUI LI
     NATIONAL INST. OF STANDARDS AND TECHNOLOGY: WALT STEVENS, DAVID GARMER
     UNIVERSITY OF PISA: BENEDETTA MENNUCCI, JACOPO TOMASI
     UNIVERSITY OF MEMPHIS: HENRY KURTZ, PRAKASHAN KORAMBATH
     UNIVERSITY OF ALBERTA: TOBY ZENG, MARIUSZ KLOBUKOWSKI
     UNIVERSITY OF NEW ENGLAND: MARK SPACKMAN
     MIE UNIVERSITY: HIROAKI UMEDA
     MICHIGAN STATE UNIVERSITY:
          KAROL KOWALSKI, MARTA WLOCH, JEFFREY GOUR, JESSE LUTZ,
          WEI LI, PIOTR PIECUCH
     UNIVERSITY OF SILESIA: MONIKA MUSIAL, STANISLAW KUCHARSKI
     FACULTES UNIVERSITAIRES NOTRE-DAME DE LA PAIX:
          OLIVIER QUINET, BENOIT CHAMPAGNE
     UNIVERSITY OF CALIFORNIA - SANTA BARBARA: BERNARD KIRTMAN
     INSTITUTE FOR MOLECULAR SCIENCE:
          KAZUYA ISHIMURA, MICHIO KATOUDA, AND SHIGERU NAGASE
     UNIVERSITY OF NOTRE DAME: DAN CHIPMAN
     KYUSHU UNIVERSITY:
          HARUYUKI NAKANO,
          FENG LONG GU, JACEK KORCHOWIEC, MARCIN MAKOWSKI, AND YURIKO AOKI,
          HIROTOSHI MORI AND EISAKU MIYOSHI
     PENNSYLVANIA STATE UNIVERSITY:
          TZVETELIN IORDANOV, CHET SWALINA, JONATHAN SKONE,
          SHARON HAMMES-SCHIFFER
     WASEDA UNIVERSITY:
          MASATO KOBAYASHI, TOMOKO AKAMA, TSUGUKI TOUMA,
          TAKESHI YOSHIKAWA, YASUHIRO IKABATA, HIROMI NAKAI
     NANJING UNIVERSITY: SHUHUA LI
     UNIVERSITY OF NEBRASKA:
          PEIFENG SU, DEJUN SI, NANDUN THELLAMUREGE, YALI WANG, HUI LI
     UNIVERSITY OF ZURICH:
          ROBERTO PEVERATI, KIM BALDRIDGE
     N. COPERNICUS UNIVERSITY AND JACKSON STATE UNIVERSITY:
          MARIA BARYSZ

 EXECUTION OF GAMESS BEGUN Fri Dec  7 02:02:23 2018

            ECHO OF THE FIRST FEW INPUT CARDS -
 INPUT CARD> $CONTRL                                                                        
 INPUT CARD>     SCFTYP=ROHF                                                                
 INPUT CARD>     MULT=1                                                                     
 INPUT CARD>     ICHARG=0                                                                   
 INPUT CARD>     RUNTYP=ENERGY                                                              
 INPUT CARD>     MAXIT=150                                                                  
 INPUT CARD>     ECP=READ                                                                   
 INPUT CARD>     ISPHER=1                                                                   
 INPUT CARD> $END                                                                           
 INPUT CARD>                                                                                
 INPUT CARD> $SYSTEM                                                                        
 INPUT CARD>     KDIAG=3                                                                    
 INPUT CARD>     MWORDS=100                                                                 
 INPUT CARD> $END                                                                           
 INPUT CARD>                                                                                
 INPUT CARD> !$SCF                                                                          
 INPUT CARD> !    DIRSCF=.t.                                                                
 INPUT CARD> !    DIIS=.t.                                                                  
 INPUT CARD> !    DAMP=.t.                                                                  
 INPUT CARD> !    SHIFT=.t.                                                                 
 INPUT CARD> !    RSTRCT=.t.                                                                
 INPUT CARD> !$END                                                                          
 INPUT CARD>                                                                                
 INPUT CARD> $GUESS                                                                         
 INPUT CARD>    GUESS=HUCKEL                                                                
 INPUT CARD>!    GUESS=MOREAD                                                               
 INPUT CARD>!    NORB=71                                                                    
 INPUT CARD>!    NORDER=1                                                                   
 INPUT CARD>!    IORDER(5)=7,5,6,8,9,10                                                     
 INPUT CARD> $END                                                                           
 INPUT CARD>                                                                                
 INPUT CARD>                                                                                
 INPUT CARD> $DATA                                                                          
 INPUT CARD>                                                                                
 INPUT CARD>C1                                                                              
 INPUT CARD>Zn 30 0.0 0.0 0.0                                                               
 INPUT CARD>S  13                                                                           
 INPUT CARD>  1     114.485022  0.00042900                                                  
 INPUT CARD>  2      61.996430  -0.01933900                                                 
 INPUT CARD>  3      40.117132  0.08625400                                                  
 INPUT CARD>  4      20.119649  -0.08895500                                                 
 INPUT CARD>  5      10.171676  -0.40267100                                                 
 INPUT CARD>  6       5.601641  0.06730400                                                  
 INPUT CARD>  7       2.864122  0.47921500                                                  
 INPUT CARD>  8       1.592779  0.50396000                                                  
 INPUT CARD>  9       0.826525  0.22208800                                                  
 INPUT CARD> 10       0.263975  0.01220300                                                  
 INPUT CARD> 11       0.145302  -0.00430000                                                 
 INPUT CARD> 12       0.068195  0.00124300                                                  
 INPUT CARD> 13       0.031465  -0.00026700                                                 
  100000000 WORDS OF MEMORY AVAILABLE


     RUN TITLE
     ---------
                                                                                 

 THE POINT GROUP OF THE MOLECULE IS C1      
 THE ORDER OF THE PRINCIPAL AXIS IS     0

 ATOM      ATOMIC                      COORDINATES (BOHR)
           CHARGE         X                   Y                   Z
 ZN         30.0     0.0000000000        0.0000000000        0.0000000000

          INTERNUCLEAR DISTANCES (ANGS.)
          ------------------------------

                1 ZN    

   1 ZN      0.0000000  

  * ... LESS THAN  3.000


     ATOMIC BASIS SET
     ----------------
 THE CONTRACTED PRIMITIVE FUNCTIONS HAVE BEEN UNNORMALIZED
 THE CONTRACTED BASIS FUNCTIONS ARE NOW NORMALIZED TO UNITY

  SHELL TYPE  PRIMITIVE        EXPONENT          CONTRACTION COEFFICIENT(S)

 ZN        

      1   S       1           114.4850220    0.000428999932
      1   S       2            61.9964300   -0.019338996951
      1   S       3            40.1171320    0.086253986403
      1   S       4            20.1196490   -0.088954985977
      1   S       5            10.1716760   -0.402670936521
      1   S       6             5.6016410    0.067303989390
      1   S       7             2.8641220    0.479214924454
      1   S       8             1.5927790    0.503959920553
      1   S       9             0.8265250    0.222087964989
      1   S      10             0.2639750    0.012202998076
      1   S      11             0.1453020   -0.004299999322
      1   S      12             0.0681950    0.001242999804
      1   S      13             0.0314650   -0.000266999958

      2   S      14           114.4850220   -0.000108999948
      2   S      15            61.9964300    0.004458997891
      2   S      16            40.1171320   -0.020066990510
      2   S      17            20.1196490    0.022337989436
      2   S      18            10.1716760    0.096697954270
      2   S      19             5.6016410   -0.021965989612
      2   S      20             2.8641220   -0.128767939103
      2   S      21             1.5927790   -0.181705914068
      2   S      22             0.8265250   -0.162310923240
      2   S      23             0.2639750    0.116263945017
      2   S      24             0.1453020    0.411313805482
      2   S      25             0.0681950    0.494256766257
      2   S      26             0.0314650    0.138102934689

      3   S      27           114.4850220    0.000666000353
      3   S      28            61.9964300    0.006269003319
      3   S      29            40.1171320   -0.046603024670
      3   S      30            20.1196490    0.050399026680
      3   S      31            10.1716760    0.363493192422
      3   S      32             5.6016410   -0.242840128552
      3   S      33             2.8641220   -0.382281202368
      3   S      34             1.5927790   -0.861567456088
      3   S      35             0.8265250    0.706077373776
      3   S      36             0.2639750    1.495001791409
      3   S      37             0.1453020   -0.453994240331
      3   S      38             0.0681950   -0.597822316469
      3   S      39             0.0314650   -0.256117135581

      4   S      40           114.4850220    0.000704000090
      4   S      41            61.9964300    0.012841001636
      4   S      42            40.1171320   -0.085910010947
      4   S      43            20.1196490    0.117982015034
      4   S      44            10.1716760    0.630164080299
      4   S      45             5.6016410   -0.600344076499
      4   S      46             2.8641220   -1.249060159161
      4   S      47             1.5927790   -0.329498041986
      4   S      48             0.8265250    2.592469330345
      4   S      49             0.2639750   -1.004481127996
      4   S      50             0.1453020   -1.379514175784
      4   S      51             0.0681950    1.046842133394
      4   S      52             0.0314650    0.324676041372

      5   S      53           114.4850220    0.005614000245
      5   S      54            61.9964300   -0.066590002906
      5   S      55            40.1171320    0.242763010595
      5   S      56            20.1196490   -0.433968018941
      5   S      57            10.1716760   -0.799712034903
      5   S      58             5.6016410    1.542151067307
      5   S      59             2.8641220    3.080299134440
      5   S      60             1.5927790   -6.198250270523
      5   S      61             0.8265250    2.581766112681
      5   S      62             0.2639750    3.211988140187
      5   S      63             0.1453020   -4.767457208076
      5   S      64             0.0681950    1.676561073174
      5   S      65             0.0314650    0.270909011824

      6   S      66             0.0314650    1.000000000000

      7   P      67           158.7709860   -0.000152999983
      7   P      68            75.8028760    0.001892999794
      7   P      69            44.5478240    0.010460998860
      7   P      70            31.4452690   -0.045140995081
      7   P      71            13.0801250   -0.084200990824
      7   P      72             7.7886160    0.104972988560
      7   P      73             4.1950400    0.307713966466
      7   P      74             2.3622760    0.368562959834
      7   P      75             1.3025840    0.286335968795
      7   P      76             0.6607040    0.095155989630
      7   P      77             0.2490420    0.005850999362
      7   P      78             0.0917810   -0.000033999996
      7   P      79             0.0489310    0.000251999973

      8   P      80           158.7709860    0.000052999987
      8   P      81            75.8028760   -0.000570999863
      8   P      82            44.5478240   -0.001072999742
      8   P      83            31.4452690    0.007462998204
      8   P      84            13.0801250    0.018675995505
      8   P      85             7.7886160   -0.028089993240
      8   P      86             4.1950400   -0.054437986899
      8   P      87             2.3622760   -0.093743977439
      8   P      88             1.3025840   -0.054168986963
      8   P      89             0.6607040   -0.007971998081
      8   P      90             0.2490420    0.356197914275
      8   P      91             0.0917810    0.412398900749
      8   P      92             0.0489310    0.361320913042

      9   P      93           158.7709860   -0.000169999935
      9   P      94            75.8028760    0.000603999768
      9   P      95            44.5478240   -0.019986992335
      9   P      96            31.4452690    0.061152976549
      9   P      97            13.0801250    0.067316974186
      9   P      98             7.7886160   -0.139210946616
      9   P      99             4.1950400   -0.527040797893
      9   P     100             2.3622760   -0.176193932434
      9   P     101             1.3025840    0.037128985762
      9   P     102             0.6607040    1.079321586107
      9   P     103             0.2490420   -0.050148980769
      9   P     104             0.0917810   -0.688970735797
      9   P     105             0.0489310    0.037330985684

     10   P     106           158.7709860   -0.000780999973
     10   P     107            75.8028760    0.007854999724
     10   P     108            44.5478240   -0.008670999695
     10   P     109            31.4452690   -0.040552998576
     10   P     110            13.0801250   -0.200061992974
     10   P     111             7.7886160    0.528598981435
     10   P     112             4.1950400    0.528551981437
     10   P     113             2.3622760    0.243575991445
     10   P     114             1.3025840   -1.807181936530
     10   P     115             0.6607040    0.629495977892
     10   P     116             0.2490420    1.137612960046
     10   P     117             0.0917810   -1.067149962521
     10   P     118             0.0489310    0.022189999221

     11   P     119           158.7709860   -0.000304000070
     11   P     120            75.8028760    0.000060000014
     11   P     121            44.5478240   -0.036931008495
     11   P     122            31.4452690    0.146019033590
     11   P     123            13.0801250    0.222104051092
     11   P     124             7.7886160   -1.206310277494
     11   P     125             4.1950400   -0.644084148162
     11   P     126             2.3622760    2.398136551656
     11   P     127             1.3025840   -0.304441070032
     11   P     128             0.6607040   -1.960894451075
     11   P     129             0.2490420    1.895400436009
     11   P     130             0.0917810   -0.821577188992
     11   P     131             0.0489310   -0.132471030473

     12   P     132             0.0489310    1.000000000000

     13   D     133           270.0140610   -0.000016000011
     13   D     134           100.1615790    0.000696000479
     13   D     135            43.5306090    0.013536009323
     13   D     136            21.2624190    0.069350047764
     13   D     137            10.5778210    0.149559103007
     13   D     138             5.3436200    0.239588165013
     13   D     139             2.7048570    0.286744197491
     13   D     140             1.3530180    0.271459186964
     13   D     141             0.6608730    0.202426139418
     13   D     142             0.3091490    0.103307071151
     13   D     143             0.1338790    0.023211015986

     14   D     144           270.0140610    0.000012999995
     14   D     145           100.1615790   -0.000888999663
     14   D     146            43.5306090   -0.018639992937
     14   D     147            21.2624190   -0.094645964136
     14   D     148            10.5778210   -0.215658918281
     14   D     149             5.3436200   -0.322468877807
     14   D     150             2.7048570   -0.197528925151
     14   D     151             1.3530180    0.164447937686
     14   D     152             0.6608730    0.410016844633
     14   D     153             0.3091490    0.327837875773
     14   D     154             0.1338790    0.105748959929

     15   D     155           270.0140610    0.000006999997
     15   D     156           100.1615790    0.000867999636
     15   D     157            43.5306090    0.021630990925
     15   D     158            21.2624190    0.107747954797
     15   D     159            10.5778210    0.278996882952
     15   D     160             5.3436200    0.314542868040
     15   D     161             2.7048570   -0.241925898505
     15   D     162             1.3530180   -0.602414747269
     15   D     163             0.6608730   -0.118012950490
     15   D     164             0.3091490    0.545481771154
     15   D     165             0.1338790    0.363828847363

     16   D     166           270.0140610   -0.000088000024
     16   D     167           100.1615790   -0.000674000187
     16   D     168            43.5306090   -0.030726008508
     16   D     169            21.2624190   -0.143218039659
     16   D     170            10.5778210   -0.445330123319
     16   D     171             5.3436200   -0.136693037852
     16   D     172             2.7048570    0.927823256928
     16   D     173             1.3530180    0.143204039655
     16   D     174             0.6608730   -1.060202293586
     16   D     175             0.3091490    0.160452044432
     16   D     176             0.1338790    0.658542182360

     17   D     177             0.1338790    1.000000000000

     18   F     178             0.8812370    1.000000000000

     19   F     179             2.8551360    1.000000000000

     20   F     180             9.2504050    1.000000000000

     21   G     181             2.0975030    1.000000000000

     22   G     182             7.0619910    1.000000000000

     23   S     183             3.6277050    1.000000000000

     24   S     184             4.5964070    1.000000000000

     25   P     185             3.4396840    1.000000000000

     26   P     186            10.7633290    1.000000000000

     27   D     187             6.2238520    1.000000000000

     28   D     188             5.8720180    1.000000000000

     29   F     189             5.1933860    1.000000000000

     30   G     190             7.9529070    1.000000000000

 TOTAL NUMBER OF BASIS SET SHELLS             =   30
 NUMBER OF CARTESIAN GAUSSIAN BASIS FUNCTIONS =  159
 NOTE: THIS RUN WILL RESTRICT THE MO VARIATION SPACE TO SPHERICAL HARMONICS.
 THE NUMBER OF ORBITALS KEPT IN THE VARIATIONAL SPACE WILL BE PRINTED LATER.
 NUMBER OF ELECTRONS                          =   30
 CHARGE OF MOLECULE                           =    0
 SPIN MULTIPLICITY                            =    1
 NUMBER OF OCCUPIED ORBITALS (ALPHA)          =   15
 NUMBER OF OCCUPIED ORBITALS (BETA )          =   15
 TOTAL NUMBER OF ATOMS                        =    1
 THE NUCLEAR REPULSION ENERGY IS        0.0000000000
 NOTE THIS RUN IS USING CORE POTENTIALS, AND THE NUMBER OF ELECTRONS,
 OCCUPIED ORBITALS, AND NUCLEAR REPULSION ENERGY WILL BE ADJUSTED BELOW
 AFTER REMOVAL OF THE CORE CHARGES.

 THIS MOLECULE IS RECOGNIZED AS BEING LINEAR,
 ORBITAL LZ DEGENERACY TOLERANCE ETOLLZ= 1.00E-06

     $CONTRL OPTIONS
     ---------------
 SCFTYP=ROHF         RUNTYP=ENERGY       EXETYP=RUN     
 MPLEVL=       0     CITYP =NONE         CCTYP =NONE         VBTYP =NONE    
 DFTTYP=NONE         TDDFT =NONE    
 MULT  =       1     ICHARG=       0     NZVAR =       0     COORD =UNIQUE  
 PP    =READ         RELWFN=NONE         LOCAL =NONE         NUMGRD=       F
 ISPHER=       1     NOSYM =       0     MAXIT =     150     UNITS =ANGS    
 PLTORB=       F     MOLPLT=       F     AIMPAC=       F     FRIEND=        
 NPRINT=       7     IREST =       0     GEOM  =INPUT   
 NORMF =       0     NORMP =       0     ITOL  =      20     ICUT  =       9
 INTTYP=BEST         GRDTYP=BEST         QMTTOL= 1.0E-06

     $SYSTEM OPTIONS
     ---------------
  REPLICATED MEMORY=   100000000 WORDS (ON EVERY NODE).
 DISTRIBUTED MEMDDI=           0 MILLION WORDS IN AGGREGATE,
 MEMDDI DISTRIBUTED OVER   1 PROCESSORS IS           0 WORDS/PROCESSOR.
 TOTAL MEMORY REQUESTED ON EACH PROCESSOR=   100000000 WORDS.
 TIMLIM=      525600.00 MINUTES, OR     365.0 DAYS.
 PARALL= F  BALTYP=  DLB     KDIAG=    3  COREFL= F
 MXSEQ2=     300 MXSEQ3=     150

          --------------
          ECP POTENTIALS
          --------------

 PARAMETERS FOR "ZN-CCECP" ON ATOM    1 WITH ZCORE  10 AND LMAX  2 ARE
 FOR L= 2      COEFF    N           ZETA
    1       20.00000    1       35.80798
    2      716.15952    3       34.53646
    3     -204.68393    2       28.62830
    4        0.76027    2        7.96240
 FOR L= 0      COEFF    N           ZETA
    1      431.70804    2       35.02141
    2       95.87640    2       14.63499
 FOR L= 1      COEFF    N           ZETA
    1      313.57771    2       42.22979
    2       74.01270    2       14.57429

 THE ECP RUN REMOVES   10 CORE ELECTRONS, AND THE SAME NUMBER OF PROTONS.
 NUMBER OF ELECTRONS KEPT IN THE CALCULATION IS =   20
 NUMBER OF OCCUPIED ORBITALS (ALPHA) KEPT IS    =   10
 NUMBER OF OCCUPIED ORBITALS (BETA ) KEPT IS    =   10
 THE ADJUSTED NUCLEAR REPULSION ENERGY=        0.0000000000
          ECP ANGULAR INTS.........     0.01 SECONDS

          ----------------
          PROPERTIES INPUT
          ----------------

     MOMENTS            FIELD           POTENTIAL          DENSITY
 IEMOM =       1   IEFLD =       0   IEPOT =       0   IEDEN =       0
 WHERE =COMASS     WHERE =NUCLEI     WHERE =NUCLEI     WHERE =NUCLEI  
 OUTPUT=BOTH       OUTPUT=BOTH       OUTPUT=BOTH       OUTPUT=BOTH    
 IEMINT=       0   IEFINT=       0                     IEDINT=       0
                                                       MORB  =       0
          EXTRAPOLATION IN EFFECT
          SOSCF IN EFFECT
 ORBITAL PRINTING OPTION: NPREO=     1   159     2     1

     -------------------------------
     INTEGRAL TRANSFORMATION OPTIONS
     -------------------------------
     NWORD  =            0
     CUTOFF = 1.0E-09     MPTRAN =       0
     DIRTRF =       F     AOINTS =DUP     

          ----------------------
          INTEGRAL INPUT OPTIONS
          ----------------------
 NOPK  =       1 NORDER=       0 SCHWRZ=       F

     ------------------------------------------
     THE POINT GROUP IS C1 , NAXIS= 0, ORDER= 1
     ------------------------------------------

 -- VARIATIONAL SPACE WILL BE RESTRICTED TO PURE SPHERICAL HARMONICS ONLY --
 AFTER EXCLUDING CONTAMINANT COMBINATIONS FROM THE CARTESIAN GAUSSIAN BASIS
 SET, THE NUMBER OF SPHERICAL HARMONICS KEPT IN THE VARIATION SPACE IS  122

     DIMENSIONS OF THE SYMMETRY SUBSPACES ARE
 A   =  122

 ..... DONE SETTING UP THE RUN .....
 STEP CPU TIME =     0.05 TOTAL CPU TIME =        0.0 (    0.0 MIN)
 TOTAL WALL CLOCK TIME=        0.2 SECONDS, CPU UTILIZATION IS  23.81%

          ********************
          1 ELECTRON INTEGRALS
          ********************
 TIME TO DO ORDINARY INTEGRALS=      0.01
 TIME TO DO      ECP INTEGRALS=      0.00
 ...... END OF ONE-ELECTRON INTEGRALS ......
 STEP CPU TIME =     0.01 TOTAL CPU TIME =        0.1 (    0.0 MIN)
 TOTAL WALL CLOCK TIME=        0.4 SECONDS, CPU UTILIZATION IS  16.67%

          -------------
          GUESS OPTIONS
          -------------
          GUESS =HUCKEL            NORB  =       0          NORDER=       0
          MIX   =       F          PRTMO =       F          PUNMO =       F
          TOLZ  = 1.0E-08          TOLE  = 1.0E-05
          SYMDEN=       F          PURIFY=       F

 INITIAL GUESS ORBITALS GENERATED BY HUCKEL   ROUTINE.
 HUCKEL GUESS REQUIRES    183313 WORDS.

 STATISTICS FOR GENERATION OF SYMMETRY ORBITAL -Q- MATRIX
 NUMBER OF CARTESIAN ATOMIC ORBITALS=        159
 NUMBER OF SPHERICAL CONTAMINANTS DROPPED=    37
 NUMBER OF LINEARLY DEPENDENT MOS DROPPED=     0
 TOTAL NUMBER OF MOS IN VARIATION SPACE=     122

 SYMMETRIES FOR INITIAL GUESS ORBITALS FOLLOW.  ALPHA SET(S).
    10 ORBITALS ARE OCCUPIED (    4 CORE ORBITALS).
     5=A        6=A        7=A        8=A        9=A       10=A       11=A   
    12=A       13=A       14=A       15=A       16=A       17=A       18=A   
    19=A       20=A   

 SYMMETRIES FOR INITIAL GUESS ORBITALS FOLLOW.   BETA SET(S).
    10 ORBITALS ARE OCCUPIED (    4 CORE ORBITALS).
     5=A        6=A        7=A        8=A        9=A       10=A       11=A   
    12=A       13=A       14=A       15=A       16=A       17=A       18=A   
    19=A       20=A   
 ...... END OF INITIAL ORBITAL SELECTION ......
 STEP CPU TIME =     0.02 TOTAL CPU TIME =        0.1 (    0.0 MIN)
 TOTAL WALL CLOCK TIME=        0.4 SECONDS, CPU UTILIZATION IS  18.60%

                    ----------------------
                    AO INTEGRAL TECHNOLOGY
                    ----------------------
     S,P,L SHELL ROTATED AXIS INTEGRALS, REPROGRAMMED BY
        KAZUYA ISHIMURA (IMS) AND JOSE SIERRA (SYNSTAR).
     S,P,D,L SHELL ROTATED AXIS INTEGRALS PROGRAMMED BY
        KAZUYA ISHIMURA (INSTITUTE FOR MOLECULAR SCIENCE).
     S,P,D,F,G SHELL TO TOTAL QUARTET ANGULAR MOMENTUM SUM 5,
        ERIC PROGRAM BY GRAHAM FLETCHER (ELORET AND NASA ADVANCED
        SUPERCOMPUTING DIVISION, AMES RESEARCH CENTER).
     S,P,D,F,G,L SHELL GENERAL RYS QUADRATURE PROGRAMMED BY
        MICHEL DUPUIS (PACIFIC NORTHWEST NATIONAL LABORATORY).

          --------------------
          2 ELECTRON INTEGRALS
          --------------------

 THE -PK- OPTION IS OFF, THE INTEGRALS ARE NOT IN SUPERMATRIX FORM.
 STORING   15000 INTEGRALS/RECORD ON DISK, USING 12 BYTES/INTEGRAL.
 TWO ELECTRON INTEGRAL EVALUATION REQUIRES  140190 WORDS OF MEMORY.
 II,JST,KST,LST =  1  1  1  1 NREC =         1 INTLOC =    1
 II,JST,KST,LST =  2  1  1  1 NREC =         1 INTLOC =    2
 II,JST,KST,LST =  3  1  1  1 NREC =         1 INTLOC =    7
 II,JST,KST,LST =  4  1  1  1 NREC =         1 INTLOC =   22
 II,JST,KST,LST =  5  1  1  1 NREC =         1 INTLOC =   56
 II,JST,KST,LST =  6  1  1  1 NREC =         1 INTLOC =  121
 II,JST,KST,LST =  7  1  1  1 NREC =         1 INTLOC =  232
 II,JST,KST,LST =  8  1  1  1 NREC =         1 INTLOC =  367
 II,JST,KST,LST =  9  1  1  1 NREC =         1 INTLOC =  730
 II,JST,KST,LST = 10  1  1  1 NREC =         1 INTLOC = 1429
 II,JST,KST,LST = 11  1  1  1 NREC =         1 INTLOC = 2635
 II,JST,KST,LST = 12  1  1  1 NREC =         1 INTLOC = 4582
 II,JST,KST,LST = 13  1  1  1 NREC =         1 INTLOC = 7567
 II,JST,KST,LST = 14  1  1  1 NREC =         2 INTLOC = 1264
 II,JST,KST,LST = 15  1  1  1 NREC =         3 INTLOC = 2200
 II,JST,KST,LST = 16  1  1  1 NREC =         4 INTLOC =13075
 II,JST,KST,LST = 17  1  1  1 NREC =         7 INTLOC = 7597
 II,JST,KST,LST = 18  1  1  1 NREC =        11 INTLOC = 5482
 II,JST,KST,LST = 19  1  1  1 NREC =        20 INTLOC = 6665
 II,JST,KST,LST = 20  1  1  1 NREC =        34 INTLOC =14707
 II,JST,KST,LST = 21  1  1  1 NREC =        56 INTLOC = 9940
 II,JST,KST,LST = 22  1  1  1 NREC =       106 INTLOC =12760
 II,JST,KST,LST = 23  1  1  1 NREC =       185 INTLOC = 9529
 II,JST,KST,LST = 24  1  1  1 NREC =       192 INTLOC = 9212
 II,JST,KST,LST = 25  1  1  1 NREC =       199 INTLOC =12292
 II,JST,KST,LST = 26  1  1  1 NREC =       220 INTLOC =13885
 II,JST,KST,LST = 27  1  1  1 NREC =       243 INTLOC =11035
 II,JST,KST,LST = 28  1  1  1 NREC =       295 INTLOC = 2017
 II,JST,KST,LST = 29  1  1  1 NREC =       354 INTLOC = 6994
 II,JST,KST,LST = 30  1  1  1 NREC =       469 INTLOC = 6509
 TOTAL NUMBER OF NONZERO TWO-ELECTRON INTEGRALS =            10408120
        694 INTEGRAL RECORDS WERE STORED ON DISK FILE  8.
  ...... END OF TWO-ELECTRON INTEGRALS .....
 STEP CPU TIME =    58.61 TOTAL CPU TIME =       58.7 (    1.0 MIN)
 TOTAL WALL CLOCK TIME=       59.2 SECONDS, CPU UTILIZATION IS  99.05%

          ---------------------------
                 ROHF SCF CALCULATION
          ---------------------------

     NUCLEAR ENERGY =         0.0000000000
     MAXIT =150     NPUNCH=  2     MULT=  1
     EXTRAP=T  DAMP=F  SHIFT=F  RSTRCT=F  DIIS=F  SOSCF=T
     DENSITY MATRIX CONV=  1.00E-05
     ROHF CANONICALIZATION PARAMETERS
             C-C     O-O     V-V
     ALPHA -0.5000  0.5000  1.5000
     BETA   1.5000  0.5000 -0.5000
     SOSCF WILL OPTIMIZE    1120 ORBITAL ROTATION ANGLES. SOGTOL= 2.500E-01
     MEMORY REQUIRED FOR UHF/ROHF ITERS=    266634 WORDS.

 ITER EX      TOTAL ENERGY        E CHANGE  DENSITY CHANGE    ORB. GRAD 
   1  0     -220.3975983183  -220.3975983183   2.229585319   0.000000000
   2  1     -225.0415235323    -4.6439252139   0.218808372   0.274160026
          ---------------START SECOND ORDER SCF---------------
   3  2     -225.0492599366    -0.0077364043   0.216789202   0.233125540
   4  3     -225.0863147101    -0.0370547735   0.104911877   0.225012670
   5  4     -225.2740815843    -0.1877668742   0.008704604   0.009415758
   6  5     -225.2749735590    -0.0008919747   0.010314986   0.002385819
   7  6     -225.2750604351    -0.0000868761   0.005111158   0.000522360
   8  7     -225.2750646549    -0.0000042198   0.002377092   0.000162055
   9  8     -225.2750648814    -0.0000002265   0.000625136   0.000020858
  10  9     -225.2750648865    -0.0000000051   0.000183436   0.000006289
  11 10     -225.2750648867    -0.0000000002   0.000021758   0.000000672
  12 11     -225.2750648867    -0.0000000000   0.000003018   0.000000128
  13 12     -225.2750648867     0.0000000000   0.000000103   0.000000032

          -----------------
          DENSITY CONVERGED
          -----------------
     TIME TO FORM FOCK OPERATORS=       1.7 SECONDS (       0.1 SEC/ITER)
     TIME TO SOLVE SCF EQUATIONS=       0.0 SECONDS (       0.0 SEC/ITER)

 FINAL ROHF ENERGY IS     -225.2750648867 AFTER  13 ITERATIONS

          --------------------
          SPIN SZ   =    0.000
          S-SQUARED =   -0.000
          --------------------

 LZ VALUE ANALYSIS FOR THE MOS
 ----------------------------------------
 MO     1 (    1) HAS LZ(WEIGHT)= 0.00(100.0%) 
 MO     2 (    2) HAS LZ(WEIGHT)=-1.00( 50.0%)  1.00( 50.0%) 
 MO     3 (    2) HAS LZ(WEIGHT)=-1.00( 50.0%)  1.00( 50.0%) 
 MO     4 (    2) HAS LZ(WEIGHT)= 0.00(100.0%) 
 MO     5 (    3) HAS LZ(WEIGHT)=-2.00( 25.9%)  0.00( 48.2%)  2.00( 25.9%) 
 MO     6 (    3) HAS LZ(WEIGHT)=-2.00( 24.1%)  0.00( 51.8%)  2.00( 24.1%) 
 MO     7 (    3) HAS LZ(WEIGHT)=-1.00( 50.0%)  1.00( 50.0%) 
 MO     8 (    3) HAS LZ(WEIGHT)=-2.00( 50.0%)  2.00( 50.0%) 
 MO     9 (    3) HAS LZ(WEIGHT)=-1.00( 50.0%)  1.00( 50.0%) 
 MO    10 (    4) HAS LZ(WEIGHT)= 0.00(100.0%) 
 MO    11 (    5) HAS LZ(WEIGHT)= 0.00(100.0%) 
 MO    12 (    5) HAS LZ(WEIGHT)=-1.00( 50.0%)  1.00( 50.0%) 
 MO    13 (    5) HAS LZ(WEIGHT)=-1.00( 50.0%)  1.00( 50.0%) 
 MO    14 (    6) HAS LZ(WEIGHT)= 0.00(100.0%) 
 MO    15 (    7) HAS LZ(WEIGHT)=-1.00( 50.0%)  1.00( 50.0%) 
 MO    16 (    7) HAS LZ(WEIGHT)=-1.00( 50.0%)  1.00( 50.0%) 
 MO    17 (    7) HAS LZ(WEIGHT)= 0.00(100.0%) 
 MO    18 (    8) HAS LZ(WEIGHT)=-2.00( 26.4%)  0.00( 47.3%)  2.00( 26.4%) 
 MO    19 (    8) HAS LZ(WEIGHT)=-2.00( 23.6%)  0.00( 52.7%)  2.00( 23.6%) 
 MO    20 (    8) HAS LZ(WEIGHT)=-2.00( 50.0%)  2.00( 50.0%) 
 MO    21 (    8) HAS LZ(WEIGHT)=-1.00( 50.0%)  1.00( 50.0%) 
 MO    22 (    8) HAS LZ(WEIGHT)=-1.00( 50.0%)  1.00( 50.0%) 
 MO    23 (    9) HAS LZ(WEIGHT)= 0.00(100.0%) 
 MO    24 (   10) HAS LZ(WEIGHT)=-1.00( 50.0%)  1.00( 50.0%) 
 MO    25 (   10) HAS LZ(WEIGHT)=-1.00( 50.0%)  1.00( 50.0%) 
 MO    26 (   10) HAS LZ(WEIGHT)= 0.00(100.0%) 
 MO    27 (   11) HAS LZ(WEIGHT)=-2.00( 27.7%) -0.00( 44.6%)  2.00( 27.7%) 
 MO    28 (   11) HAS LZ(WEIGHT)=-2.00( 22.3%) -0.00( 55.4%)  2.00( 22.3%) 
 MO    29 (   11) HAS LZ(WEIGHT)=-2.00( 50.0%)  2.00( 50.0%) 
 MO    30 (   11) HAS LZ(WEIGHT)=-1.00( 50.0%)  1.00( 50.0%) 
 MO    31 (   11) HAS LZ(WEIGHT)=-1.00( 50.0%)  1.00( 50.0%) 
 MO    32 (   12) HAS LZ(WEIGHT)= 0.00(100.0%) 
 MO    33 (   13) HAS LZ(WEIGHT)=-2.00( 50.0%)  2.00( 50.0%) 
 MO    34 (   13) HAS LZ(WEIGHT)=-2.00( 48.4%)  0.00(  3.2%)  2.00( 48.4%) 
 MO    35 (   13) HAS LZ(WEIGHT)=-3.00( 11.9%) -1.00( 38.1%)  1.00( 38.1%)  3.00( 11.9%) 
 MO    36 (   13) HAS LZ(WEIGHT)=-3.00( 22.7%) -1.00( 27.3%)  1.00( 27.3%)  3.00( 22.7%) 
 MO    37 (   13) HAS LZ(WEIGHT)=-3.00( 38.1%) -1.00( 11.9%)  1.00( 11.9%)  3.00( 38.1%) 
 MO    38 (   13) HAS LZ(WEIGHT)=-3.00( 27.3%) -1.00( 22.7%)  1.00( 22.7%)  3.00( 27.3%) 
 MO    39 (   13) HAS LZ(WEIGHT)=-2.00(  1.6%)  0.00( 96.8%)  2.00(  1.6%) 
 MO    40 (   14) HAS LZ(WEIGHT)= 0.00(100.0%) 
 MO    41 (   14) HAS LZ(WEIGHT)=-1.00( 50.0%)  1.00( 50.0%) 
 MO    42 (   14) HAS LZ(WEIGHT)=-1.00( 50.0%)  1.00( 50.0%) 
 MO    43 (   15) HAS LZ(WEIGHT)=-2.00(  5.7%) -0.00( 88.6%)  2.00(  5.7%) 
 MO    44 (   15) HAS LZ(WEIGHT)=-2.00( 44.3%) -0.00( 11.4%)  2.00( 44.3%) 
 MO    45 (   15) HAS LZ(WEIGHT)=-1.00( 50.0%)  1.00( 50.0%) 
 MO    46 (   15) HAS LZ(WEIGHT)=-1.00( 50.0%)  1.00( 50.0%) 
 MO    47 (   15) HAS LZ(WEIGHT)=-2.00( 50.0%)  2.00( 50.0%) 
 MO    48 (   16) HAS LZ(WEIGHT)= 0.00(100.0%) 
 MO    49 (   17) HAS LZ(WEIGHT)=-2.00(  1.8%)  0.00( 96.4%)  2.00(  1.8%) 
 MO    50 (   17) HAS LZ(WEIGHT)=-3.00( 34.4%) -1.00( 15.6%)  1.00( 15.6%)  3.00( 34.4%) 
 MO    51 (   17) HAS LZ(WEIGHT)=-3.00( 42.7%) -1.00(  7.3%)  1.00(  7.3%)  3.00( 42.7%) 
 MO    52 (   17) HAS LZ(WEIGHT)=-3.00( 15.6%) -1.00( 34.4%)  1.00( 34.4%)  3.00( 15.6%) 
 MO    53 (   17) HAS LZ(WEIGHT)=-3.00(  7.3%) -1.00( 42.7%)  1.00( 42.7%)  3.00(  7.3%) 
 MO    54 (   17) HAS LZ(WEIGHT)=-2.00( 48.2%)  0.00(  3.6%)  2.00( 48.2%) 
 MO    55 (   17) HAS LZ(WEIGHT)=-2.00( 50.0%)  2.00( 50.0%) 
 MO    56 (   18) HAS LZ(WEIGHT)=-4.00( 22.5%)  0.00( 53.9%)  4.00( 22.5%) 
 MO    57 (   18) HAS LZ(WEIGHT)=-3.00( 13.4%) -1.00( 36.6%)  1.00( 36.6%)  3.00( 13.4%) 
 MO    58 (   18) HAS LZ(WEIGHT)=-4.00( 27.3%)  0.00( 45.5%)  4.00( 27.3%) 
 MO    59 (   18) HAS LZ(WEIGHT)=-4.00( 49.0%)  4.00( 49.0%) 
 MO    60 (   18) HAS LZ(WEIGHT)=-3.00( 40.8%) -1.00(  9.2%)  1.00(  9.2%)  3.00( 40.8%) 
 MO    61 (   18) HAS LZ(WEIGHT)=-2.00( 49.4%)  2.00( 49.4%) 
 MO    62 (   18) HAS LZ(WEIGHT)=-2.00( 49.0%)  2.00( 49.0%) 
 MO    63 (   18) HAS LZ(WEIGHT)=-3.00( 36.6%) -1.00( 13.4%)  1.00( 13.4%)  3.00( 36.6%) 
 MO    64 (   18) HAS LZ(WEIGHT)=-3.00(  9.2%) -1.00( 40.8%)  1.00( 40.8%)  3.00(  9.2%) 
 MO    65 (   19) HAS LZ(WEIGHT)= 0.00(100.0%) 
 MO    66 (   19) HAS LZ(WEIGHT)=-1.00( 50.0%)  1.00( 50.0%) 
 MO    67 (   19) HAS LZ(WEIGHT)=-1.00( 50.0%)  1.00( 50.0%) 
 MO    68 (   20) HAS LZ(WEIGHT)=-2.00( 13.4%)  0.00( 73.3%)  2.00( 13.4%) 
 MO    69 (   20) HAS LZ(WEIGHT)=-1.00( 50.0%)  1.00( 50.0%) 
 MO    70 (   20) HAS LZ(WEIGHT)=-2.00( 50.0%)  2.00( 50.0%) 
 MO    71 (   20) HAS LZ(WEIGHT)=-1.00( 50.0%)  1.00( 50.0%) 
 MO    72 (   20) HAS LZ(WEIGHT)=-2.00( 36.6%)  0.00( 26.7%)  2.00( 36.6%) 
 MO    73 (   21) HAS LZ(WEIGHT)= 0.00(100.0%) 
 MO    74 (   21) HAS LZ(WEIGHT)=-3.00( 38.8%) -1.00( 11.2%)  1.00( 11.2%)  3.00( 38.8%) 
 MO    75 (   21) HAS LZ(WEIGHT)=-3.00( 47.9%) -1.00(  2.1%)  1.00(  2.1%)  3.00( 47.9%) 
 MO    76 (   21) HAS LZ(WEIGHT)=-3.00( 11.2%) -1.00( 38.8%)  1.00( 38.8%)  3.00( 11.2%) 
 MO    77 (   21) HAS LZ(WEIGHT)=-3.00(  2.1%) -1.00( 47.9%)  1.00( 47.9%)  3.00(  2.1%) 
 MO    78 (   21) HAS LZ(WEIGHT)=-2.00( 50.0%)  2.00( 50.0%) 
 MO    79 (   21) HAS LZ(WEIGHT)=-2.00( 50.0%)  2.00( 50.0%) 
 MO    80 (   22) HAS LZ(WEIGHT)=-2.00(  3.7%) -0.00( 92.6%)  2.00(  3.7%) 
 MO    81 (   22) HAS LZ(WEIGHT)=-2.00( 46.3%) -0.00(  7.4%)  2.00( 46.3%) 
 MO    82 (   22) HAS LZ(WEIGHT)=-2.00( 50.0%)  2.00( 50.0%) 
 MO    83 (   22) HAS LZ(WEIGHT)=-1.00( 50.0%)  1.00( 50.0%) 
 MO    84 (   22) HAS LZ(WEIGHT)=-1.00( 50.0%)  1.00( 50.0%) 
 MO    85 (   23) HAS LZ(WEIGHT)= 0.00(100.0%) 
 MO    86 (   24) HAS LZ(WEIGHT)=-4.00( 24.6%) -2.00(  3.2%)  0.00( 44.5%)  2.00(  3.2%)  4.00( 24.6%) 
 MO    87 (   24) HAS LZ(WEIGHT)=-4.00(  2.0%) -2.00( 46.8%)  0.00(  2.4%)  2.00( 46.8%)  4.00(  2.0%) 
 MO    88 (   24) HAS LZ(WEIGHT)=-3.00( 29.2%) -1.00( 20.8%)  1.00( 20.8%)  3.00( 29.2%) 
 MO    89 (   24) HAS LZ(WEIGHT)=-3.00( 26.8%) -1.00( 23.2%)  1.00( 23.2%)  3.00( 26.8%) 
 MO    90 (   24) HAS LZ(WEIGHT)=-2.00( 50.0%)  2.00( 50.0%) 
 MO    91 (   24) HAS LZ(WEIGHT)=-4.00( 23.4%)  0.00( 53.1%)  4.00( 23.4%) 
 MO    92 (   24) HAS LZ(WEIGHT)=-3.00( 23.2%) -1.00( 26.8%)  1.00( 26.8%)  3.00( 23.2%) 
 MO    93 (   24) HAS LZ(WEIGHT)=-3.00( 20.8%) -1.00( 29.2%)  1.00( 29.2%)  3.00( 20.8%) 
 MO    94 (   24) HAS LZ(WEIGHT)=-4.00( 50.0%)  4.00( 50.0%) 
 MO    95 (   25) HAS LZ(WEIGHT)= 0.00(100.0%) 
 MO    96 (   25) HAS LZ(WEIGHT)=-1.00( 50.0%)  1.00( 50.0%) 
 MO    97 (   25) HAS LZ(WEIGHT)=-1.00( 50.0%)  1.00( 50.0%) 
 MO    98 (   26) HAS LZ(WEIGHT)=-2.00( 50.0%)  2.00( 50.0%) 
 MO    99 (   26) HAS LZ(WEIGHT)=-2.00( 44.0%)  0.00( 11.9%)  2.00( 44.0%) 
 MO   100 (   26) HAS LZ(WEIGHT)=-3.00( 28.2%) -1.00( 21.8%)  1.00( 21.8%)  3.00( 28.2%) 
 MO   101 (   26) HAS LZ(WEIGHT)=-3.00( 13.9%) -1.00( 36.1%)  1.00( 36.1%)  3.00( 13.9%) 
 MO   102 (   26) HAS LZ(WEIGHT)=-3.00( 21.8%) -1.00( 28.2%)  1.00( 28.2%)  3.00( 21.8%) 
 MO   103 (   26) HAS LZ(WEIGHT)=-3.00( 36.1%) -1.00( 13.9%)  1.00( 13.9%)  3.00( 36.1%) 
 MO   104 (   26) HAS LZ(WEIGHT)=-2.00(  6.0%)  0.00( 88.1%)  2.00(  6.0%) 
 MO   105 (   27) HAS LZ(WEIGHT)=-0.00( 98.7%) 
 MO   106 (   27) HAS LZ(WEIGHT)=-2.00( 49.4%) -0.00(  1.3%)  2.00( 49.4%) 
 MO   107 (   27) HAS LZ(WEIGHT)=-1.00( 50.0%)  1.00( 50.0%) 
 MO   108 (   27) HAS LZ(WEIGHT)=-2.00( 50.0%)  2.00( 50.0%) 
 MO   109 (   27) HAS LZ(WEIGHT)=-1.00( 50.0%)  1.00( 50.0%) 
 MO   110 (   28) HAS LZ(WEIGHT)=-4.00( 24.8%) -0.00( 49.6%)  4.00( 24.8%) 
 MO   111 (   28) HAS LZ(WEIGHT)=-2.00( 49.6%)  2.00( 49.6%) 
 MO   112 (   28) HAS LZ(WEIGHT)=-3.00( 28.5%) -1.00( 21.5%)  1.00( 21.5%)  3.00( 28.5%) 
 MO   113 (   28) HAS LZ(WEIGHT)=-3.00( 32.5%) -1.00( 17.5%)  1.00( 17.5%)  3.00( 32.5%) 
 MO   114 (   28) HAS LZ(WEIGHT)=-2.00( 50.0%)  2.00( 50.0%) 
 MO   115 (   28) HAS LZ(WEIGHT)=-4.00( 25.0%) -0.00( 49.9%)  4.00( 25.0%) 
 MO   116 (   28) HAS LZ(WEIGHT)=-3.00( 17.5%) -1.00( 32.5%)  1.00( 32.5%)  3.00( 17.5%) 
 MO   117 (   28) HAS LZ(WEIGHT)=-3.00( 21.5%) -1.00( 28.5%)  1.00( 28.5%)  3.00( 21.5%) 
 MO   118 (   28) HAS LZ(WEIGHT)=-4.00( 50.0%)  4.00( 50.0%) 
 MO   119 (   29) HAS LZ(WEIGHT)= 0.00(100.0%) 
 MO   120 (   29) HAS LZ(WEIGHT)=-1.00( 50.0%)  1.00( 50.0%) 
 MO   121 (   29) HAS LZ(WEIGHT)=-1.00( 50.0%)  1.00( 50.0%) 
 MO   122 (   30) HAS LZ(WEIGHT)= 0.00(100.0%) 

          ------------
          EIGENVECTORS
          ------------

                      1          2          3          4          5
                   -5.8440    -3.9222    -3.9222    -3.9222    -0.7633
                     A          A          A          A          A   
    1  ZN 1  S    0.999971   0.000000   0.000000   0.000000   0.000000
    2  ZN 1  S    0.000009   0.000000   0.000000   0.000000   0.000000
    3  ZN 1  S    0.000002   0.000000   0.000000   0.000000   0.000000
    4  ZN 1  S    0.000005   0.000000   0.000000   0.000000   0.000000
    5  ZN 1  S    0.000003   0.000000   0.000000   0.000000   0.000000
    6  ZN 1  S   -0.000008   0.000000   0.000000   0.000000   0.000000
    7  ZN 1  X    0.000000   0.999952   0.000000   0.000000   0.000000
    8  ZN 1  Y    0.000000   0.000000   0.999952   0.000000   0.000000
    9  ZN 1  Z    0.000000   0.000000   0.000000   0.999952   0.000000
   10  ZN 1  X    0.000000   0.014574   0.000000   0.000000   0.000000
   11  ZN 1  Y    0.000000   0.000000   0.014574   0.000000   0.000000
   12  ZN 1  Z    0.000000   0.000000   0.000000   0.014574   0.000000
   13  ZN 1  X    0.000000   0.010735   0.000000   0.000000   0.000000
   14  ZN 1  Y    0.000000   0.000000   0.010735   0.000000   0.000000
   15  ZN 1  Z    0.000000   0.000000   0.000000   0.010735   0.000000
   16  ZN 1  X    0.000000  -0.000333   0.000000   0.000000   0.000000
   17  ZN 1  Y    0.000000   0.000000  -0.000333   0.000000   0.000000
   18  ZN 1  Z    0.000000   0.000000   0.000000  -0.000333   0.000000
   19  ZN 1  X    0.000000  -0.001041   0.000000   0.000000   0.000000
   20  ZN 1  Y    0.000000   0.000000  -0.001041   0.000000   0.000000
   21  ZN 1  Z    0.000000   0.000000   0.000000  -0.001041   0.000000
   22  ZN 1  X    0.000000  -0.005848   0.000000   0.000000   0.000000
   23  ZN 1  Y    0.000000   0.000000  -0.005848   0.000000   0.000000
   24  ZN 1  Z    0.000000   0.000000   0.000000  -0.005848   0.000000
   25  ZN 1 XX    0.000000   0.000000   0.000000   0.000000   0.970346
   26  ZN 1 YY    0.000000   0.000000   0.000000   0.000000  -0.275831
   27  ZN 1 ZZ    0.000000   0.000000   0.000000   0.000000  -0.694515
   28  ZN 1 XY    0.000000   0.000000   0.000000   0.000000   0.000000
   29  ZN 1 XZ    0.000000   0.000000   0.000000   0.000000   0.000000
   30  ZN 1 YZ    0.000000   0.000000   0.000000   0.000000   0.000000
   31  ZN 1 XX    0.000000   0.000000   0.000000   0.000000   0.000003
   32  ZN 1 YY    0.000000   0.000000   0.000000   0.000000  -0.000001
   33  ZN 1 ZZ    0.000000   0.000000   0.000000   0.000000  -0.000002
   34  ZN 1 XY    0.000000   0.000000   0.000000   0.000000   0.000000
   35  ZN 1 XZ    0.000000   0.000000   0.000000   0.000000   0.000000
   36  ZN 1 YZ    0.000000   0.000000   0.000000   0.000000   0.000000
   37  ZN 1 XX    0.000000   0.000000   0.000000   0.000000   0.000002
   38  ZN 1 YY    0.000000   0.000000   0.000000   0.000000  -0.000001
   39  ZN 1 ZZ    0.000000   0.000000   0.000000   0.000000  -0.000001
   40  ZN 1 XY    0.000000   0.000000   0.000000   0.000000   0.000000
   41  ZN 1 XZ    0.000000   0.000000   0.000000   0.000000   0.000000
   42  ZN 1 YZ    0.000000   0.000000   0.000000   0.000000   0.000000
   43  ZN 1 XX    0.000000   0.000000   0.000000   0.000000   0.000003
   44  ZN 1 YY    0.000000   0.000000   0.000000   0.000000  -0.000001
   45  ZN 1 ZZ    0.000000   0.000000   0.000000   0.000000  -0.000002
   46  ZN 1 XY    0.000000   0.000000   0.000000   0.000000   0.000000
   47  ZN 1 XZ    0.000000   0.000000   0.000000   0.000000   0.000000
   48  ZN 1 YZ    0.000000   0.000000   0.000000   0.000000   0.000000
   49  ZN 1 XX    0.000000   0.000000   0.000000   0.000000  -0.000004
   50  ZN 1 YY    0.000000   0.000000   0.000000   0.000000   0.000001
   51  ZN 1 ZZ    0.000000   0.000000   0.000000   0.000000   0.000003
   52  ZN 1 XY    0.000000   0.000000   0.000000   0.000000   0.000000
   53  ZN 1 XZ    0.000000   0.000000   0.000000   0.000000   0.000000
   54  ZN 1 YZ    0.000000   0.000000   0.000000   0.000000   0.000000
   55  ZN 1 XXX   0.000000   0.000000   0.000000   0.000000   0.000000
   56  ZN 1 YYY   0.000000   0.000000   0.000000   0.000000   0.000000
   57  ZN 1 ZZZ   0.000000   0.000000   0.000000   0.000000   0.000000
   58  ZN 1 XXY   0.000000   0.000000  -0.000000   0.000000   0.000000
   59  ZN 1 XXZ   0.000000   0.000000   0.000000   0.000000   0.000000
   60  ZN 1 YYX   0.000000   0.000000   0.000000   0.000000   0.000000
   61  ZN 1 YYZ   0.000000   0.000000   0.000000  -0.000000   0.000000
   62  ZN 1 ZZX   0.000000  -0.000000   0.000000   0.000000   0.000000
   63  ZN 1 ZZY   0.000000   0.000000   0.000000   0.000000   0.000000
   64  ZN 1 XYZ   0.000000   0.000000   0.000000   0.000000   0.000000
   65  ZN 1 XXX   0.000000   0.000000   0.000000   0.000000   0.000000
   66  ZN 1 YYY   0.000000   0.000000   0.000000   0.000000   0.000000
   67  ZN 1 ZZZ   0.000000   0.000000   0.000000   0.000000   0.000000
   68  ZN 1 XXY   0.000000   0.000000   0.000000   0.000000   0.000000
   69  ZN 1 XXZ   0.000000   0.000000   0.000000   0.000000   0.000000
   70  ZN 1 YYX   0.000000  -0.000000   0.000000   0.000000   0.000000
   71  ZN 1 YYZ   0.000000   0.000000   0.000000   0.000000   0.000000
   72  ZN 1 ZZX   0.000000   0.000000   0.000000   0.000000   0.000000
   73  ZN 1 ZZY   0.000000   0.000000  -0.000000   0.000000   0.000000
   74  ZN 1 XYZ   0.000000   0.000000   0.000000   0.000000   0.000000
   75  ZN 1 XXX   0.000000   0.000000   0.000000   0.000000   0.000000
   76  ZN 1 YYY   0.000000   0.000000   0.000000   0.000000   0.000000
   77  ZN 1 ZZZ   0.000000   0.000000   0.000000   0.000000   0.000000
   78  ZN 1 XXY   0.000000   0.000000   0.000000   0.000000   0.000000
   79  ZN 1 XXZ   0.000000   0.000000   0.000000   0.000000   0.000000
   80  ZN 1 YYX   0.000000   0.000000   0.000000   0.000000   0.000000
   81  ZN 1 YYZ   0.000000   0.000000   0.000000   0.000000   0.000000
   82  ZN 1 ZZX   0.000000   0.000000   0.000000   0.000000   0.000000
   83  ZN 1 ZZY   0.000000   0.000000   0.000000   0.000000   0.000000
   84  ZN 1 XYZ   0.000000   0.000000   0.000000   0.000000   0.000000
   85  ZN 1XXXX   0.000000   0.000000   0.000000   0.000000   0.000000
   86  ZN 1YYYY   0.000000   0.000000   0.000000   0.000000   0.000000
   87  ZN 1ZZZZ   0.000000   0.000000   0.000000   0.000000   0.000000
   88  ZN 1XXXY   0.000000   0.000000   0.000000   0.000000   0.000000
   89  ZN 1XXXZ   0.000000   0.000000   0.000000   0.000000   0.000000
   90  ZN 1YYYX   0.000000   0.000000   0.000000   0.000000   0.000000
   91  ZN 1YYYZ   0.000000   0.000000   0.000000   0.000000   0.000000
   92  ZN 1ZZZX   0.000000   0.000000   0.000000   0.000000   0.000000
   93  ZN 1ZZZY   0.000000   0.000000   0.000000   0.000000   0.000000
   94  ZN 1XXYY   0.000000   0.000000   0.000000   0.000000   0.000000
   95  ZN 1XXZZ   0.000000   0.000000   0.000000   0.000000   0.000000
   96  ZN 1YYZZ   0.000000   0.000000   0.000000   0.000000   0.000000
   97  ZN 1XXYZ   0.000000   0.000000   0.000000   0.000000   0.000000
   98  ZN 1YYXZ   0.000000   0.000000   0.000000   0.000000   0.000000
   99  ZN 1ZZXY   0.000000   0.000000   0.000000   0.000000   0.000000
  100  ZN 1XXXX   0.000000   0.000000   0.000000   0.000000  -0.000000
  101  ZN 1YYYY   0.000000   0.000000   0.000000   0.000000  -0.000000
  102  ZN 1ZZZZ   0.000000   0.000000   0.000000   0.000000  -0.000000
  103  ZN 1XXXY   0.000000   0.000000   0.000000   0.000000   0.000000
  104  ZN 1XXXZ   0.000000   0.000000   0.000000   0.000000   0.000000
  105  ZN 1YYYX   0.000000   0.000000   0.000000   0.000000   0.000000
  106  ZN 1YYYZ   0.000000   0.000000   0.000000   0.000000   0.000000
  107  ZN 1ZZZX   0.000000   0.000000   0.000000   0.000000   0.000000
  108  ZN 1ZZZY   0.000000   0.000000   0.000000   0.000000   0.000000
  109  ZN 1XXYY  -0.000000   0.000000   0.000000   0.000000   0.000000
  110  ZN 1XXZZ  -0.000000   0.000000   0.000000   0.000000   0.000000
  111  ZN 1YYZZ  -0.000000   0.000000   0.000000   0.000000   0.000000
  112  ZN 1XXYZ   0.000000   0.000000   0.000000   0.000000   0.000000
  113  ZN 1YYXZ   0.000000   0.000000   0.000000   0.000000   0.000000
  114  ZN 1ZZXY   0.000000   0.000000   0.000000   0.000000   0.000000
  115  ZN 1  S    0.000143   0.000000   0.000000   0.000000  -0.000000
  116  ZN 1  S   -0.000118   0.000000   0.000000   0.000000   0.000000
  117  ZN 1  X    0.000000   0.000542   0.000000   0.000000   0.000000
  118  ZN 1  Y    0.000000   0.000000   0.000542   0.000000   0.000000
  119  ZN 1  Z    0.000000   0.000000   0.000000   0.000542   0.000000
  120  ZN 1  X    0.000000  -0.000112   0.000000   0.000000   0.000000
  121  ZN 1  Y    0.000000   0.000000  -0.000112   0.000000   0.000000
  122  ZN 1  Z    0.000000   0.000000   0.000000  -0.000112   0.000000
  123  ZN 1 XX    0.000000   0.000000   0.000000   0.000000   0.000024
  124  ZN 1 YY    0.000000   0.000000   0.000000   0.000000  -0.000007
  125  ZN 1 ZZ   -0.000000   0.000000   0.000000   0.000000  -0.000018
  126  ZN 1 XY    0.000000   0.000000   0.000000   0.000000   0.000000
  127  ZN 1 XZ    0.000000   0.000000   0.000000   0.000000   0.000000
  128  ZN 1 YZ    0.000000   0.000000   0.000000   0.000000   0.000000
  129  ZN 1 XX    0.000000   0.000000   0.000000   0.000000  -0.000025
  130  ZN 1 YY   -0.000000   0.000000   0.000000   0.000000   0.000007
  131  ZN 1 ZZ    0.000000   0.000000   0.000000   0.000000   0.000018
  132  ZN 1 XY    0.000000   0.000000   0.000000   0.000000   0.000000
  133  ZN 1 XZ    0.000000   0.000000   0.000000   0.000000   0.000000
  134  ZN 1 YZ    0.000000   0.000000   0.000000   0.000000   0.000000
  135  ZN 1 XXX   0.000000   0.000000   0.000000   0.000000   0.000000
  136  ZN 1 YYY   0.000000   0.000000   0.000000   0.000000   0.000000
  137  ZN 1 ZZZ   0.000000   0.000000   0.000000   0.000000   0.000000
  138  ZN 1 XXY   0.000000   0.000000   0.000000   0.000000   0.000000
  139  ZN 1 XXZ   0.000000   0.000000   0.000000   0.000000   0.000000
  140  ZN 1 YYX   0.000000   0.000000   0.000000   0.000000   0.000000
  141  ZN 1 YYZ   0.000000   0.000000   0.000000   0.000000   0.000000
  142  ZN 1 ZZX   0.000000   0.000000   0.000000   0.000000   0.000000
  143  ZN 1 ZZY   0.000000   0.000000   0.000000   0.000000   0.000000
  144  ZN 1 XYZ   0.000000   0.000000   0.000000   0.000000   0.000000
  145  ZN 1XXXX  -0.000000   0.000000   0.000000   0.000000   0.000000
  146  ZN 1YYYY  -0.000000   0.000000   0.000000   0.000000   0.000000
  147  ZN 1ZZZZ  -0.000000   0.000000   0.000000   0.000000   0.000000
  148  ZN 1XXXY   0.000000   0.000000   0.000000   0.000000   0.000000
  149  ZN 1XXXZ   0.000000   0.000000   0.000000   0.000000   0.000000
  150  ZN 1YYYX   0.000000   0.000000   0.000000   0.000000   0.000000
  151  ZN 1YYYZ   0.000000   0.000000   0.000000   0.000000   0.000000
  152  ZN 1ZZZX   0.000000   0.000000   0.000000   0.000000   0.000000
  153  ZN 1ZZZY   0.000000   0.000000   0.000000   0.000000   0.000000
  154  ZN 1XXYY   0.000000   0.000000   0.000000   0.000000  -0.000000
  155  ZN 1XXZZ   0.000000   0.000000   0.000000   0.000000  -0.000000
  156  ZN 1YYZZ   0.000000   0.000000   0.000000   0.000000   0.000000
  157  ZN 1XXYZ   0.000000   0.000000   0.000000   0.000000   0.000000
  158  ZN 1YYXZ   0.000000   0.000000   0.000000   0.000000   0.000000
  159  ZN 1ZZXY   0.000000   0.000000   0.000000   0.000000   0.000000

                      6          7          8          9         10
                   -0.7633    -0.7633    -0.7633    -0.7633    -0.2984
                     A          A          A          A          A   
    1  ZN 1  S    0.000000   0.000000   0.000000   0.000000   0.000007
    2  ZN 1  S    0.000000   0.000000   0.000000   0.000000   0.999989
    3  ZN 1  S    0.000000   0.000000   0.000000   0.000000   0.000004
    4  ZN 1  S    0.000000   0.000000   0.000000   0.000000  -0.000005
    5  ZN 1  S    0.000000   0.000000   0.000000   0.000000  -0.000003
    6  ZN 1  S   -0.000000   0.000000   0.000000   0.000000   0.000012
    7  ZN 1  X    0.000000   0.000000   0.000000   0.000000   0.000000
    8  ZN 1  Y    0.000000   0.000000   0.000000   0.000000   0.000000
    9  ZN 1  Z    0.000000   0.000000   0.000000   0.000000   0.000000
   10  ZN 1  X    0.000000   0.000000   0.000000   0.000000   0.000000
   11  ZN 1  Y    0.000000   0.000000   0.000000   0.000000   0.000000
   12  ZN 1  Z    0.000000   0.000000   0.000000   0.000000   0.000000
   13  ZN 1  X    0.000000   0.000000   0.000000   0.000000   0.000000
   14  ZN 1  Y    0.000000   0.000000   0.000000   0.000000   0.000000
   15  ZN 1  Z    0.000000   0.000000   0.000000   0.000000   0.000000
   16  ZN 1  X    0.000000   0.000000   0.000000   0.000000   0.000000
   17  ZN 1  Y    0.000000   0.000000   0.000000   0.000000   0.000000
   18  ZN 1  Z    0.000000   0.000000   0.000000   0.000000   0.000000
   19  ZN 1  X    0.000000   0.000000   0.000000   0.000000   0.000000
   20  ZN 1  Y    0.000000   0.000000   0.000000   0.000000   0.000000
   21  ZN 1  Z    0.000000   0.000000   0.000000   0.000000   0.000000
   22  ZN 1  X    0.000000   0.000000   0.000000   0.000000   0.000000
   23  ZN 1  Y    0.000000   0.000000   0.000000   0.000000   0.000000
   24  ZN 1  Z    0.000000   0.000000   0.000000   0.000000   0.000000
   25  ZN 1 XX   -0.241728   0.000000   0.000000   0.000000   0.000000
   26  ZN 1 YY    0.961208   0.000000   0.000000   0.000000  -0.000000
   27  ZN 1 ZZ   -0.719480   0.000000   0.000000   0.000000  -0.000000
   28  ZN 1 XY    0.000000   0.000000   1.000002   0.000000   0.000000
   29  ZN 1 XZ    0.000000   1.000002   0.000000   0.000000   0.000000
   30  ZN 1 YZ    0.000000   0.000000   0.000000   1.000002   0.000000
   31  ZN 1 XX   -0.000001   0.000000   0.000000   0.000000  -0.000000
   32  ZN 1 YY    0.000003   0.000000   0.000000   0.000000   0.000000
   33  ZN 1 ZZ   -0.000003   0.000000   0.000000   0.000000   0.000000
   34  ZN 1 XY    0.000000   0.000000   0.000003   0.000000   0.000000
   35  ZN 1 XZ    0.000000   0.000003   0.000000   0.000000   0.000000
   36  ZN 1 YZ    0.000000   0.000000   0.000000   0.000003   0.000000
   37  ZN 1 XX   -0.000000   0.000000   0.000000   0.000000   0.000000
   38  ZN 1 YY    0.000002   0.000000   0.000000   0.000000   0.000000
   39  ZN 1 ZZ   -0.000001   0.000000   0.000000   0.000000  -0.000000
   40  ZN 1 XY    0.000000   0.000000   0.000002   0.000000   0.000000
   41  ZN 1 XZ    0.000000   0.000002   0.000000   0.000000   0.000000
   42  ZN 1 YZ    0.000000   0.000000   0.000000   0.000002   0.000000
   43  ZN 1 XX   -0.000001   0.000000   0.000000   0.000000   0.000000
   44  ZN 1 YY    0.000003   0.000000   0.000000   0.000000   0.000000
   45  ZN 1 ZZ   -0.000002   0.000000   0.000000   0.000000   0.000000
   46  ZN 1 XY    0.000000   0.000000   0.000003   0.000000   0.000000
   47  ZN 1 XZ    0.000000   0.000003   0.000000   0.000000   0.000000
   48  ZN 1 YZ    0.000000   0.000000   0.000000   0.000003   0.000000
   49  ZN 1 XX    0.000001   0.000000   0.000000   0.000000   0.000000
   50  ZN 1 YY   -0.000004   0.000000   0.000000   0.000000   0.000000
   51  ZN 1 ZZ    0.000003   0.000000   0.000000   0.000000   0.000000
   52  ZN 1 XY    0.000000   0.000000  -0.000004   0.000000   0.000000
   53  ZN 1 XZ    0.000000  -0.000004   0.000000   0.000000   0.000000
   54  ZN 1 YZ    0.000000   0.000000   0.000000  -0.000004   0.000000
   55  ZN 1 XXX   0.000000   0.000000   0.000000   0.000000   0.000000
   56  ZN 1 YYY   0.000000   0.000000   0.000000   0.000000   0.000000
   57  ZN 1 ZZZ   0.000000   0.000000   0.000000   0.000000   0.000000
   58  ZN 1 XXY   0.000000   0.000000   0.000000   0.000000   0.000000
   59  ZN 1 XXZ   0.000000   0.000000   0.000000   0.000000   0.000000
   60  ZN 1 YYX   0.000000   0.000000   0.000000   0.000000   0.000000
   61  ZN 1 YYZ   0.000000   0.000000   0.000000   0.000000   0.000000
   62  ZN 1 ZZX   0.000000   0.000000   0.000000   0.000000   0.000000
   63  ZN 1 ZZY   0.000000   0.000000   0.000000   0.000000   0.000000
   64  ZN 1 XYZ   0.000000   0.000000   0.000000   0.000000   0.000000
   65  ZN 1 XXX   0.000000   0.000000   0.000000   0.000000   0.000000
   66  ZN 1 YYY   0.000000   0.000000   0.000000   0.000000   0.000000
   67  ZN 1 ZZZ   0.000000   0.000000   0.000000   0.000000   0.000000
   68  ZN 1 XXY   0.000000   0.000000   0.000000   0.000000   0.000000
   69  ZN 1 XXZ   0.000000   0.000000   0.000000   0.000000   0.000000
   70  ZN 1 YYX   0.000000   0.000000   0.000000   0.000000   0.000000
   71  ZN 1 YYZ   0.000000   0.000000   0.000000   0.000000   0.000000
   72  ZN 1 ZZX   0.000000   0.000000   0.000000   0.000000   0.000000
   73  ZN 1 ZZY   0.000000   0.000000   0.000000   0.000000   0.000000
   74  ZN 1 XYZ   0.000000   0.000000   0.000000   0.000000   0.000000
   75  ZN 1 XXX   0.000000   0.000000   0.000000   0.000000   0.000000
   76  ZN 1 YYY   0.000000   0.000000   0.000000   0.000000   0.000000
   77  ZN 1 ZZZ   0.000000   0.000000   0.000000   0.000000   0.000000
   78  ZN 1 XXY   0.000000   0.000000   0.000000   0.000000   0.000000
   79  ZN 1 XXZ   0.000000   0.000000   0.000000   0.000000   0.000000
   80  ZN 1 YYX   0.000000   0.000000   0.000000   0.000000   0.000000
   81  ZN 1 YYZ   0.000000   0.000000   0.000000   0.000000   0.000000
   82  ZN 1 ZZX   0.000000   0.000000   0.000000   0.000000   0.000000
   83  ZN 1 ZZY   0.000000   0.000000   0.000000   0.000000   0.000000
   84  ZN 1 XYZ   0.000000   0.000000   0.000000   0.000000   0.000000
   85  ZN 1XXXX   0.000000   0.000000   0.000000   0.000000   0.000000
   86  ZN 1YYYY   0.000000   0.000000   0.000000   0.000000   0.000000
   87  ZN 1ZZZZ   0.000000   0.000000   0.000000   0.000000   0.000000
   88  ZN 1XXXY   0.000000   0.000000   0.000000   0.000000   0.000000
   89  ZN 1XXXZ   0.000000   0.000000   0.000000   0.000000   0.000000
   90  ZN 1YYYX   0.000000   0.000000   0.000000   0.000000   0.000000
   91  ZN 1YYYZ   0.000000   0.000000   0.000000   0.000000   0.000000
   92  ZN 1ZZZX   0.000000   0.000000   0.000000   0.000000   0.000000
   93  ZN 1ZZZY   0.000000   0.000000   0.000000   0.000000   0.000000
   94  ZN 1XXYY   0.000000   0.000000   0.000000   0.000000   0.000000
   95  ZN 1XXZZ   0.000000   0.000000   0.000000   0.000000   0.000000
   96  ZN 1YYZZ   0.000000   0.000000   0.000000   0.000000   0.000000
   97  ZN 1XXYZ   0.000000   0.000000   0.000000   0.000000   0.000000
   98  ZN 1YYXZ   0.000000   0.000000   0.000000   0.000000   0.000000
   99  ZN 1ZZXY   0.000000   0.000000   0.000000   0.000000   0.000000
  100  ZN 1XXXX  -0.000000   0.000000   0.000000   0.000000  -0.000000
  101  ZN 1YYYY  -0.000000   0.000000   0.000000   0.000000  -0.000000
  102  ZN 1ZZZZ  -0.000000   0.000000   0.000000   0.000000  -0.000000
  103  ZN 1XXXY   0.000000   0.000000   0.000000   0.000000   0.000000
  104  ZN 1XXXZ   0.000000   0.000000   0.000000   0.000000   0.000000
  105  ZN 1YYYX   0.000000   0.000000   0.000000   0.000000   0.000000
  106  ZN 1YYYZ   0.000000   0.000000   0.000000   0.000000   0.000000
  107  ZN 1ZZZX   0.000000   0.000000   0.000000   0.000000   0.000000
  108  ZN 1ZZZY   0.000000   0.000000   0.000000   0.000000   0.000000
  109  ZN 1XXYY   0.000000   0.000000   0.000000   0.000000   0.000000
  110  ZN 1XXZZ   0.000000   0.000000   0.000000   0.000000   0.000000
  111  ZN 1YYZZ   0.000000   0.000000   0.000000   0.000000   0.000000
  112  ZN 1XXYZ   0.000000   0.000000   0.000000   0.000000   0.000000
  113  ZN 1YYXZ   0.000000   0.000000   0.000000   0.000000   0.000000
  114  ZN 1ZZXY   0.000000   0.000000   0.000000   0.000000   0.000000
  115  ZN 1  S    0.000000   0.000000   0.000000   0.000000  -0.000054
  116  ZN 1  S    0.000000   0.000000   0.000000   0.000000   0.000047
  117  ZN 1  X    0.000000   0.000000   0.000000   0.000000   0.000000
  118  ZN 1  Y    0.000000   0.000000   0.000000   0.000000   0.000000
  119  ZN 1  Z    0.000000   0.000000   0.000000   0.000000   0.000000
  120  ZN 1  X    0.000000   0.000000   0.000000   0.000000   0.000000
  121  ZN 1  Y    0.000000   0.000000   0.000000   0.000000   0.000000
  122  ZN 1  Z    0.000000   0.000000   0.000000   0.000000   0.000000
  123  ZN 1 XX   -0.000006   0.000000   0.000000   0.000000  -0.000000
  124  ZN 1 YY    0.000024   0.000000   0.000000   0.000000  -0.000000
  125  ZN 1 ZZ   -0.000018   0.000000   0.000000   0.000000   0.000000
  126  ZN 1 XY    0.000000   0.000000   0.000025   0.000000   0.000000
  127  ZN 1 XZ    0.000000   0.000025   0.000000   0.000000   0.000000
  128  ZN 1 YZ    0.000000   0.000000   0.000000   0.000025   0.000000
  129  ZN 1 XX    0.000006   0.000000   0.000000   0.000000   0.000000
  130  ZN 1 YY   -0.000025   0.000000   0.000000   0.000000   0.000000
  131  ZN 1 ZZ    0.000018   0.000000   0.000000   0.000000  -0.000000
  132  ZN 1 XY    0.000000   0.000000  -0.000026   0.000000   0.000000
  133  ZN 1 XZ    0.000000  -0.000026   0.000000   0.000000   0.000000
  134  ZN 1 YZ    0.000000   0.000000   0.000000  -0.000026   0.000000
  135  ZN 1 XXX   0.000000   0.000000   0.000000   0.000000   0.000000
  136  ZN 1 YYY   0.000000   0.000000   0.000000   0.000000   0.000000
  137  ZN 1 ZZZ   0.000000   0.000000   0.000000   0.000000   0.000000
  138  ZN 1 XXY   0.000000   0.000000   0.000000   0.000000   0.000000
  139  ZN 1 XXZ   0.000000   0.000000   0.000000   0.000000   0.000000
  140  ZN 1 YYX   0.000000   0.000000   0.000000   0.000000   0.000000
  141  ZN 1 YYZ   0.000000   0.000000   0.000000   0.000000   0.000000
  142  ZN 1 ZZX   0.000000   0.000000   0.000000   0.000000   0.000000
  143  ZN 1 ZZY   0.000000   0.000000   0.000000   0.000000   0.000000
  144  ZN 1 XYZ   0.000000   0.000000   0.000000   0.000000   0.000000
  145  ZN 1XXXX   0.000000   0.000000   0.000000   0.000000   0.000000
  146  ZN 1YYYY   0.000000   0.000000   0.000000   0.000000   0.000000
  147  ZN 1ZZZZ   0.000000   0.000000   0.000000   0.000000   0.000000
  148  ZN 1XXXY   0.000000   0.000000   0.000000   0.000000   0.000000
  149  ZN 1XXXZ   0.000000   0.000000   0.000000   0.000000   0.000000
  150  ZN 1YYYX   0.000000   0.000000   0.000000   0.000000   0.000000
  151  ZN 1YYYZ   0.000000   0.000000   0.000000   0.000000   0.000000
  152  ZN 1ZZZX   0.000000   0.000000   0.000000   0.000000   0.000000
  153  ZN 1ZZZY   0.000000   0.000000   0.000000   0.000000   0.000000
  154  ZN 1XXYY  -0.000000   0.000000   0.000000   0.000000  -0.000000
  155  ZN 1XXZZ  -0.000000   0.000000   0.000000   0.000000  -0.000000
  156  ZN 1YYZZ  -0.000000   0.000000   0.000000   0.000000  -0.000000
  157  ZN 1XXYZ   0.000000   0.000000   0.000000   0.000000   0.000000
  158  ZN 1YYXZ   0.000000   0.000000   0.000000   0.000000   0.000000
  159  ZN 1ZZXY   0.000000   0.000000   0.000000   0.000000   0.000000

                     11         12         13         14         15
                    0.0558     0.0558     0.0558     0.0909     0.2537
                     A          A          A          A          A   
    1  ZN 1  S    0.000000   0.000000   0.000000  -0.280044   0.000000
    2  ZN 1  S    0.000000   0.000000   0.000000  -2.442975   0.000000
    3  ZN 1  S    0.000000   0.000000   0.000000   0.490169   0.000000
    4  ZN 1  S    0.000000   0.000000   0.000000  -0.319045   0.000000
    5  ZN 1  S    0.000000   0.000000   0.000000  -0.082849   0.000000
    6  ZN 1  S    0.000000   0.000000   0.000000   2.898871   0.000000
    7  ZN 1  X    0.000000   0.018254   0.000000   0.000000   0.000000
    8  ZN 1  Y    0.000000   0.000000   0.018254   0.000000   0.230285
    9  ZN 1  Z    0.018254   0.000000   0.000000   0.000000   0.000000
   10  ZN 1  X    0.000000  -0.068266   0.000000   0.000000   0.000000
   11  ZN 1  Y    0.000000   0.000000  -0.068266   0.000000  -2.799504
   12  ZN 1  Z   -0.068266   0.000000   0.000000   0.000000   0.000000
   13  ZN 1  X    0.000000   0.074369   0.000000   0.000000   0.000000
   14  ZN 1  Y    0.000000   0.000000   0.074369   0.000000   0.403367
   15  ZN 1  Z    0.074369   0.000000   0.000000   0.000000   0.000000
   16  ZN 1  X    0.000000   0.087517   0.000000   0.000000   0.000000
   17  ZN 1  Y    0.000000   0.000000   0.087517   0.000000   0.406358
   18  ZN 1  Z    0.087517   0.000000   0.000000   0.000000   0.000000
   19  ZN 1  X    0.000000   0.042898   0.000000   0.000000   0.000000
   20  ZN 1  Y    0.000000   0.000000   0.042898   0.000000   0.187231
   21  ZN 1  Z    0.042898   0.000000   0.000000   0.000000   0.000000
   22  ZN 1  X    0.000000   1.132972   0.000000   0.000000   0.000000
   23  ZN 1  Y    0.000000   0.000000   1.132972   0.000000   2.866654
   24  ZN 1  Z    1.132972   0.000000   0.000000   0.000000   0.000000
   25  ZN 1 XX    0.000000   0.000000   0.000000   0.000000   0.000000
   26  ZN 1 YY    0.000000   0.000000   0.000000   0.000000   0.000000
   27  ZN 1 ZZ    0.000000   0.000000   0.000000   0.000000   0.000000
   28  ZN 1 XY    0.000000   0.000000   0.000000   0.000000   0.000000
   29  ZN 1 XZ    0.000000   0.000000   0.000000   0.000000   0.000000
   30  ZN 1 YZ    0.000000   0.000000   0.000000   0.000000   0.000000
   31  ZN 1 XX    0.000000   0.000000   0.000000  -0.000000   0.000000
   32  ZN 1 YY    0.000000   0.000000   0.000000   0.000000   0.000000
   33  ZN 1 ZZ    0.000000   0.000000   0.000000   0.000000   0.000000
   34  ZN 1 XY    0.000000   0.000000   0.000000   0.000000   0.000000
   35  ZN 1 XZ    0.000000   0.000000   0.000000   0.000000   0.000000
   36  ZN 1 YZ    0.000000   0.000000   0.000000   0.000000   0.000000
   37  ZN 1 XX    0.000000   0.000000   0.000000   0.000000   0.000000
   38  ZN 1 YY    0.000000   0.000000   0.000000   0.000000   0.000000
   39  ZN 1 ZZ    0.000000   0.000000   0.000000  -0.000000   0.000000
   40  ZN 1 XY    0.000000   0.000000   0.000000   0.000000   0.000000
   41  ZN 1 XZ    0.000000   0.000000   0.000000   0.000000   0.000000
   42  ZN 1 YZ    0.000000   0.000000   0.000000   0.000000   0.000000
   43  ZN 1 XX    0.000000   0.000000   0.000000  -0.000000   0.000000
   44  ZN 1 YY    0.000000   0.000000   0.000000   0.000000   0.000000
   45  ZN 1 ZZ    0.000000   0.000000   0.000000   0.000000   0.000000
   46  ZN 1 XY    0.000000   0.000000   0.000000   0.000000   0.000000
   47  ZN 1 XZ    0.000000   0.000000   0.000000   0.000000   0.000000
   48  ZN 1 YZ    0.000000   0.000000   0.000000   0.000000   0.000000
   49  ZN 1 XX    0.000000   0.000000   0.000000   0.000000   0.000000
   50  ZN 1 YY    0.000000   0.000000   0.000000   0.000000   0.000000
   51  ZN 1 ZZ    0.000000   0.000000   0.000000   0.000000   0.000000
   52  ZN 1 XY    0.000000   0.000000   0.000000   0.000000   0.000000
   53  ZN 1 XZ    0.000000   0.000000   0.000000   0.000000   0.000000
   54  ZN 1 YZ    0.000000   0.000000   0.000000   0.000000   0.000000
   55  ZN 1 XXX   0.000000   0.000000   0.000000   0.000000   0.000000
   56  ZN 1 YYY   0.000000   0.000000   0.000000   0.000000   0.000000
   57  ZN 1 ZZZ   0.000000   0.000000   0.000000   0.000000   0.000000
   58  ZN 1 XXY   0.000000   0.000000   0.000000   0.000000  -0.000000
   59  ZN 1 XXZ  -0.000000   0.000000   0.000000   0.000000   0.000000
   60  ZN 1 YYX   0.000000  -0.000000   0.000000   0.000000   0.000000
   61  ZN 1 YYZ   0.000000   0.000000   0.000000   0.000000   0.000000
   62  ZN 1 ZZX   0.000000   0.000000   0.000000   0.000000   0.000000
   63  ZN 1 ZZY   0.000000   0.000000  -0.000000   0.000000   0.000000
   64  ZN 1 XYZ   0.000000   0.000000   0.000000   0.000000   0.000000
   65  ZN 1 XXX   0.000000   0.000000   0.000000   0.000000   0.000000
   66  ZN 1 YYY   0.000000   0.000000   0.000000   0.000000   0.000000
   67  ZN 1 ZZZ   0.000000   0.000000   0.000000   0.000000   0.000000
   68  ZN 1 XXY   0.000000   0.000000   0.000000   0.000000   0.000000
   69  ZN 1 XXZ   0.000000   0.000000   0.000000   0.000000   0.000000
   70  ZN 1 YYX   0.000000   0.000000   0.000000   0.000000   0.000000
   71  ZN 1 YYZ   0.000000   0.000000   0.000000   0.000000   0.000000
   72  ZN 1 ZZX   0.000000   0.000000   0.000000   0.000000   0.000000
   73  ZN 1 ZZY   0.000000   0.000000   0.000000   0.000000   0.000000
   74  ZN 1 XYZ   0.000000   0.000000   0.000000   0.000000   0.000000
   75  ZN 1 XXX   0.000000   0.000000   0.000000   0.000000   0.000000
   76  ZN 1 YYY   0.000000   0.000000   0.000000   0.000000   0.000000
   77  ZN 1 ZZZ   0.000000   0.000000   0.000000   0.000000   0.000000
   78  ZN 1 XXY   0.000000   0.000000   0.000000   0.000000   0.000000
   79  ZN 1 XXZ   0.000000   0.000000   0.000000   0.000000   0.000000
   80  ZN 1 YYX   0.000000   0.000000   0.000000   0.000000   0.000000
   81  ZN 1 YYZ   0.000000   0.000000   0.000000   0.000000   0.000000
   82  ZN 1 ZZX   0.000000   0.000000   0.000000   0.000000   0.000000
   83  ZN 1 ZZY   0.000000   0.000000   0.000000   0.000000   0.000000
   84  ZN 1 XYZ   0.000000   0.000000   0.000000   0.000000   0.000000
   85  ZN 1XXXX   0.000000   0.000000   0.000000   0.000000   0.000000
   86  ZN 1YYYY   0.000000   0.000000   0.000000   0.000000   0.000000
   87  ZN 1ZZZZ   0.000000   0.000000   0.000000  -0.000000   0.000000
   88  ZN 1XXXY   0.000000   0.000000   0.000000   0.000000   0.000000
   89  ZN 1XXXZ   0.000000   0.000000   0.000000   0.000000   0.000000
   90  ZN 1YYYX   0.000000   0.000000   0.000000   0.000000   0.000000
   91  ZN 1YYYZ   0.000000   0.000000   0.000000   0.000000   0.000000
   92  ZN 1ZZZX   0.000000   0.000000   0.000000   0.000000   0.000000
   93  ZN 1ZZZY   0.000000   0.000000   0.000000   0.000000   0.000000
   94  ZN 1XXYY   0.000000   0.000000   0.000000   0.000000   0.000000
   95  ZN 1XXZZ   0.000000   0.000000   0.000000   0.000000   0.000000
   96  ZN 1YYZZ   0.000000   0.000000   0.000000   0.000000   0.000000
   97  ZN 1XXYZ   0.000000   0.000000   0.000000   0.000000   0.000000
   98  ZN 1YYXZ   0.000000   0.000000   0.000000   0.000000   0.000000
   99  ZN 1ZZXY   0.000000   0.000000   0.000000   0.000000   0.000000
  100  ZN 1XXXX   0.000000   0.000000   0.000000   0.000000   0.000000
  101  ZN 1YYYY   0.000000   0.000000   0.000000   0.000000   0.000000
  102  ZN 1ZZZZ   0.000000   0.000000   0.000000   0.000000   0.000000
  103  ZN 1XXXY   0.000000   0.000000   0.000000   0.000000   0.000000
  104  ZN 1XXXZ   0.000000   0.000000   0.000000   0.000000   0.000000
  105  ZN 1YYYX   0.000000   0.000000   0.000000   0.000000   0.000000
  106  ZN 1YYYZ   0.000000   0.000000   0.000000   0.000000   0.000000
  107  ZN 1ZZZX   0.000000   0.000000   0.000000   0.000000   0.000000
  108  ZN 1ZZZY   0.000000   0.000000   0.000000   0.000000   0.000000
  109  ZN 1XXYY   0.000000   0.000000   0.000000  -0.000000   0.000000
  110  ZN 1XXZZ   0.000000   0.000000   0.000000  -0.000000   0.000000
  111  ZN 1YYZZ   0.000000   0.000000   0.000000  -0.000000   0.000000
  112  ZN 1XXYZ   0.000000   0.000000   0.000000   0.000000   0.000000
  113  ZN 1YYXZ   0.000000   0.000000   0.000000   0.000000   0.000000
  114  ZN 1ZZXY   0.000000   0.000000   0.000000   0.000000   0.000000
  115  ZN 1  S    0.000000   0.000000   0.000000  -0.690161   0.000000
  116  ZN 1  S    0.000000   0.000000   0.000000   0.510742   0.000000
  117  ZN 1  X    0.000000  -0.116014   0.000000   0.000000   0.000000
  118  ZN 1  Y    0.000000   0.000000  -0.116014   0.000000  -0.491825
  119  ZN 1  Z   -0.116014   0.000000   0.000000   0.000000   0.000000
  120  ZN 1  X    0.000000   0.022115   0.000000   0.000000   0.000000
  121  ZN 1  Y    0.000000   0.000000   0.022115   0.000000   0.095970
  122  ZN 1  Z    0.022115   0.000000   0.000000   0.000000   0.000000
  123  ZN 1 XX    0.000000   0.000000   0.000000  -0.000000   0.000000
  124  ZN 1 YY    0.000000   0.000000   0.000000  -0.000000   0.000000
  125  ZN 1 ZZ    0.000000   0.000000   0.000000   0.000000   0.000000
  126  ZN 1 XY    0.000000   0.000000   0.000000   0.000000   0.000000
  127  ZN 1 XZ    0.000000   0.000000   0.000000   0.000000   0.000000
  128  ZN 1 YZ    0.000000   0.000000   0.000000   0.000000   0.000000
  129  ZN 1 XX    0.000000   0.000000   0.000000   0.000000   0.000000
  130  ZN 1 YY    0.000000   0.000000   0.000000   0.000000   0.000000
  131  ZN 1 ZZ    0.000000   0.000000   0.000000  -0.000000   0.000000
  132  ZN 1 XY    0.000000   0.000000   0.000000   0.000000   0.000000
  133  ZN 1 XZ    0.000000   0.000000   0.000000   0.000000   0.000000
  134  ZN 1 YZ    0.000000   0.000000   0.000000   0.000000   0.000000
  135  ZN 1 XXX   0.000000   0.000000   0.000000   0.000000   0.000000
  136  ZN 1 YYY   0.000000   0.000000   0.000000   0.000000   0.000000
  137  ZN 1 ZZZ   0.000000   0.000000   0.000000   0.000000   0.000000
  138  ZN 1 XXY   0.000000   0.000000   0.000000   0.000000   0.000000
  139  ZN 1 XXZ   0.000000   0.000000   0.000000   0.000000   0.000000
  140  ZN 1 YYX   0.000000   0.000000   0.000000   0.000000   0.000000
  141  ZN 1 YYZ   0.000000   0.000000   0.000000   0.000000   0.000000
  142  ZN 1 ZZX   0.000000   0.000000   0.000000   0.000000   0.000000
  143  ZN 1 ZZY   0.000000   0.000000   0.000000   0.000000   0.000000
  144  ZN 1 XYZ   0.000000   0.000000   0.000000   0.000000   0.000000
  145  ZN 1XXXX   0.000000   0.000000   0.000000  -0.000000   0.000000
  146  ZN 1YYYY   0.000000   0.000000   0.000000  -0.000000   0.000000
  147  ZN 1ZZZZ   0.000000   0.000000   0.000000  -0.000000   0.000000
  148  ZN 1XXXY   0.000000   0.000000   0.000000   0.000000   0.000000
  149  ZN 1XXXZ   0.000000   0.000000   0.000000   0.000000   0.000000
  150  ZN 1YYYX   0.000000   0.000000   0.000000   0.000000   0.000000
  151  ZN 1YYYZ   0.000000   0.000000   0.000000   0.000000   0.000000
  152  ZN 1ZZZX   0.000000   0.000000   0.000000   0.000000   0.000000
  153  ZN 1ZZZY   0.000000   0.000000   0.000000   0.000000   0.000000
  154  ZN 1XXYY   0.000000   0.000000   0.000000   0.000000   0.000000
  155  ZN 1XXZZ   0.000000   0.000000   0.000000   0.000000   0.000000
  156  ZN 1YYZZ   0.000000   0.000000   0.000000   0.000000   0.000000
  157  ZN 1XXYZ   0.000000   0.000000   0.000000   0.000000   0.000000
  158  ZN 1YYXZ   0.000000   0.000000   0.000000   0.000000   0.000000
  159  ZN 1ZZXY   0.000000   0.000000   0.000000   0.000000   0.000000

                     16         17         18         19         20
                    0.2537     0.2537     0.3721     0.3721     0.3721
                     A          A          A          A          A   
    1  ZN 1  S    0.000000   0.000000   0.000000   0.000000   0.000000
    2  ZN 1  S    0.000000   0.000000   0.000000   0.000000   0.000000
    3  ZN 1  S    0.000000   0.000000  -0.000000  -0.000000   0.000000
    4  ZN 1  S    0.000000   0.000000   0.000000   0.000000   0.000000
    5  ZN 1  S    0.000000   0.000000   0.000000   0.000000   0.000000
    6  ZN 1  S    0.000000   0.000000  -0.000000  -0.000000   0.000000
    7  ZN 1  X    0.230285   0.000000   0.000000   0.000000   0.000000
    8  ZN 1  Y    0.000000   0.000000   0.000000   0.000000   0.000000
    9  ZN 1  Z    0.000000   0.230285   0.000000   0.000000   0.000000
   10  ZN 1  X   -2.799504   0.000000   0.000000   0.000000   0.000000
   11  ZN 1  Y    0.000000   0.000000   0.000000   0.000000   0.000000
   12  ZN 1  Z    0.000000  -2.799504   0.000000   0.000000   0.000000
   13  ZN 1  X    0.403367   0.000000   0.000000   0.000000   0.000000
   14  ZN 1  Y    0.000000   0.000000   0.000000   0.000000   0.000000
   15  ZN 1  Z    0.000000   0.403367   0.000000   0.000000   0.000000
   16  ZN 1  X    0.406358   0.000000   0.000000   0.000000   0.000000
   17  ZN 1  Y    0.000000   0.000000   0.000000   0.000000   0.000000
   18  ZN 1  Z    0.000000   0.406358   0.000000   0.000000   0.000000
   19  ZN 1  X    0.187231   0.000000   0.000000   0.000000   0.000000
   20  ZN 1  Y    0.000000   0.000000   0.000000   0.000000   0.000000
   21  ZN 1  Z    0.000000   0.187231   0.000000   0.000000   0.000000
   22  ZN 1  X    2.866654   0.000000   0.000000   0.000000   0.000000
   23  ZN 1  Y    0.000000   0.000000   0.000000   0.000000   0.000000
   24  ZN 1  Z    0.000000   2.866654   0.000000   0.000000   0.000000
   25  ZN 1 XX    0.000000   0.000000  -0.424423   0.101495   0.000000
   26  ZN 1 YY    0.000000   0.000000   0.124314  -0.418309   0.000000
   27  ZN 1 ZZ    0.000000   0.000000   0.300109   0.316814   0.000000
   28  ZN 1 XY    0.000000   0.000000   0.000000   0.000000  -0.436390
   29  ZN 1 XZ    0.000000   0.000000   0.000000   0.000000   0.000000
   30  ZN 1 YZ    0.000000   0.000000   0.000000   0.000000   0.000000
   31  ZN 1 XX    0.000000   0.000000  -0.315296   0.075399   0.000000
   32  ZN 1 YY    0.000000   0.000000   0.092351  -0.310754   0.000000
   33  ZN 1 ZZ    0.000000   0.000000   0.222945   0.235355   0.000000
   34  ZN 1 XY    0.000000   0.000000   0.000000   0.000000  -0.324186
   35  ZN 1 XZ    0.000000   0.000000   0.000000   0.000000   0.000000
   36  ZN 1 YZ    0.000000   0.000000   0.000000   0.000000   0.000000
   37  ZN 1 XX    0.000000   0.000000  -0.360777   0.086275   0.000000
   38  ZN 1 YY    0.000000   0.000000   0.105673  -0.355580   0.000000
   39  ZN 1 ZZ    0.000000   0.000000   0.255105   0.269305   0.000000
   40  ZN 1 XY    0.000000   0.000000   0.000000   0.000000  -0.370950
   41  ZN 1 XZ    0.000000   0.000000   0.000000   0.000000   0.000000
   42  ZN 1 YZ    0.000000   0.000000   0.000000   0.000000   0.000000
   43  ZN 1 XX    0.000000   0.000000  -0.192509   0.046036   0.000000
   44  ZN 1 YY    0.000000   0.000000   0.056386  -0.189736   0.000000
   45  ZN 1 ZZ    0.000000   0.000000   0.136123   0.143700   0.000000
   46  ZN 1 XY    0.000000   0.000000   0.000000   0.000000  -0.197937
   47  ZN 1 XZ    0.000000   0.000000   0.000000   0.000000   0.000000
   48  ZN 1 YZ    0.000000   0.000000   0.000000   0.000000   0.000000
   49  ZN 1 XX    0.000000   0.000000   1.503407  -0.359519   0.000000
   50  ZN 1 YY    0.000000   0.000000  -0.440351   1.481748   0.000000
   51  ZN 1 ZZ    0.000000   0.000000  -1.063056  -1.122230   0.000000
   52  ZN 1 XY    0.000000   0.000000   0.000000   0.000000   1.545797
   53  ZN 1 XZ    0.000000   0.000000   0.000000   0.000000   0.000000
   54  ZN 1 YZ    0.000000   0.000000   0.000000   0.000000   0.000000
[...]
  150  ZN 1YYYX   0.000000   0.000000  -8.448000   0.000000   0.000000
  151  ZN 1YYYZ   0.000000   9.031092   0.000000   0.000000   0.000000
  152  ZN 1ZZZX  -7.283479   0.000000   0.000000   0.000000   0.000000
  153  ZN 1ZZZY   0.000000  -6.813065   0.000000   0.000000   0.000000
  154  ZN 1XXYY   0.000000   0.000000   0.000000   0.000000   0.000000
  155  ZN 1XXZZ   0.000000   0.000000   0.000000   0.000000   0.000000
  156  ZN 1YYZZ   0.000000   0.000000   0.000000   0.000000   0.000000
  157  ZN 1XXYZ   0.000000  -2.975796   0.000000   0.000000   0.000000
  158  ZN 1YYXZ  -2.295792   0.000000   0.000000   0.000000   0.000000
  159  ZN 1ZZXY   0.000000   0.000000   0.000000   0.000000   0.000000

                    121        122
                  110.8349   142.7921
                     A          A   
    1  ZN 1  S    0.000000  -6.471996
    2  ZN 1  S    0.000000   0.653097
    3  ZN 1  S    0.000000   1.399851
    4  ZN 1  S    0.000000   1.069022
    5  ZN 1  S    0.000000  -0.468032
    6  ZN 1  S    0.000000   0.096624
    7  ZN 1  X  -12.208289   0.000000
    8  ZN 1  Y    0.000000   0.000000
    9  ZN 1  Z    0.000000   0.000000
   10  ZN 1  X    3.104042   0.000000
   11  ZN 1  Y    0.000000   0.000000
   12  ZN 1  Z    0.000000   0.000000
   13  ZN 1  X    3.641819   0.000000
   14  ZN 1  Y    0.000000   0.000000
   15  ZN 1  Z    0.000000   0.000000
   16  ZN 1  X   -1.812980   0.000000
   17  ZN 1  Y    0.000000   0.000000
   18  ZN 1  Z    0.000000   0.000000
   19  ZN 1  X    0.325554   0.000000
   20  ZN 1  Y    0.000000   0.000000
   21  ZN 1  Z    0.000000   0.000000
   22  ZN 1  X   -1.387958   0.000000
   23  ZN 1  Y    0.000000   0.000000
   24  ZN 1  Z    0.000000   0.000000
   25  ZN 1 XX    0.000000   0.000000
   26  ZN 1 YY    0.000000   0.000000
   27  ZN 1 ZZ    0.000000   0.000000
   28  ZN 1 XY    0.000000   0.000000
   29  ZN 1 XZ    0.000000   0.000000
   30  ZN 1 YZ    0.000000   0.000000
   31  ZN 1 XX    0.000000   0.000000
   32  ZN 1 YY    0.000000   0.000000
   33  ZN 1 ZZ    0.000000   0.000000
   34  ZN 1 XY    0.000000   0.000000
   35  ZN 1 XZ    0.000000   0.000000
   36  ZN 1 YZ    0.000000   0.000000
   37  ZN 1 XX    0.000000   0.000000
   38  ZN 1 YY    0.000000   0.000000
   39  ZN 1 ZZ    0.000000   0.000000
   40  ZN 1 XY    0.000000   0.000000
   41  ZN 1 XZ    0.000000   0.000000
   42  ZN 1 YZ    0.000000   0.000000
   43  ZN 1 XX    0.000000   0.000000
   44  ZN 1 YY    0.000000   0.000000
   45  ZN 1 ZZ    0.000000   0.000000
   46  ZN 1 XY    0.000000   0.000000
   47  ZN 1 XZ    0.000000   0.000000
   48  ZN 1 YZ    0.000000   0.000000
   49  ZN 1 XX    0.000000   0.000000
   50  ZN 1 YY    0.000000   0.000000
   51  ZN 1 ZZ    0.000000   0.000000
   52  ZN 1 XY    0.000000   0.000000
   53  ZN 1 XZ    0.000000   0.000000
   54  ZN 1 YZ    0.000000   0.000000
   55  ZN 1 XXX   0.000000   0.000000
   56  ZN 1 YYY   0.000000   0.000000
   57  ZN 1 ZZZ   0.000000   0.000000
   58  ZN 1 XXY   0.000000   0.000000
   59  ZN 1 XXZ   0.000000   0.000000
   60  ZN 1 YYX   0.000000   0.000000
   61  ZN 1 YYZ   0.000000   0.000000
   62  ZN 1 ZZX   0.000000   0.000000
   63  ZN 1 ZZY   0.000000   0.000000
   64  ZN 1 XYZ   0.000000   0.000000
   65  ZN 1 XXX   0.000000   0.000000
   66  ZN 1 YYY   0.000000   0.000000
   67  ZN 1 ZZZ   0.000000   0.000000
   68  ZN 1 XXY   0.000000   0.000000
   69  ZN 1 XXZ   0.000000   0.000000
   70  ZN 1 YYX   0.000000   0.000000
   71  ZN 1 YYZ   0.000000   0.000000
   72  ZN 1 ZZX   0.000000   0.000000
   73  ZN 1 ZZY   0.000000   0.000000
   74  ZN 1 XYZ   0.000000   0.000000
   75  ZN 1 XXX   0.000000   0.000000
   76  ZN 1 YYY   0.000000   0.000000
   77  ZN 1 ZZZ   0.000000   0.000000
   78  ZN 1 XXY   0.000000   0.000000
   79  ZN 1 XXZ   0.000000   0.000000
   80  ZN 1 YYX   0.000000   0.000000
   81  ZN 1 YYZ   0.000000   0.000000
   82  ZN 1 ZZX   0.000000   0.000000
   83  ZN 1 ZZY   0.000000   0.000000
   84  ZN 1 XYZ   0.000000   0.000000
   85  ZN 1XXXX   0.000000   0.000000
   86  ZN 1YYYY   0.000000   0.000000
   87  ZN 1ZZZZ   0.000000   0.000000
   88  ZN 1XXXY   0.000000   0.000000
   89  ZN 1XXXZ   0.000000   0.000000
   90  ZN 1YYYX   0.000000   0.000000
   91  ZN 1YYYZ   0.000000   0.000000
   92  ZN 1ZZZX   0.000000   0.000000
   93  ZN 1ZZZY   0.000000   0.000000
   94  ZN 1XXYY   0.000000   0.000000
   95  ZN 1XXZZ   0.000000   0.000000
   96  ZN 1YYZZ   0.000000   0.000000
   97  ZN 1XXYZ   0.000000   0.000000
   98  ZN 1YYXZ   0.000000   0.000000
   99  ZN 1ZZXY   0.000000   0.000000
  100  ZN 1XXXX   0.000000  -0.000000
  101  ZN 1YYYY   0.000000  -0.000000
  102  ZN 1ZZZZ   0.000000  -0.000000
  103  ZN 1XXXY   0.000000   0.000000
  104  ZN 1XXXZ   0.000000   0.000000
  105  ZN 1YYYX   0.000000   0.000000
  106  ZN 1YYYZ   0.000000   0.000000
  107  ZN 1ZZZX   0.000000   0.000000
  108  ZN 1ZZZY   0.000000   0.000000
  109  ZN 1XXYY   0.000000   0.000000
  110  ZN 1XXZZ   0.000000   0.000000
  111  ZN 1YYZZ   0.000000   0.000000
  112  ZN 1XXYZ   0.000000   0.000000
  113  ZN 1YYXZ   0.000000   0.000000
  114  ZN 1ZZXY   0.000000   0.000000
  115  ZN 1  S    0.000000  24.466501
  116  ZN 1  S    0.000000 -18.375465
  117  ZN 1  X   12.824792   0.000000
  118  ZN 1  Y    0.000000   0.000000
  119  ZN 1  Z    0.000000   0.000000
  120  ZN 1  X    0.471959   0.000000
  121  ZN 1  Y    0.000000   0.000000
  122  ZN 1  Z    0.000000   0.000000
  123  ZN 1 XX    0.000000   0.000000
  124  ZN 1 YY    0.000000  -0.000000
  125  ZN 1 ZZ    0.000000   0.000000
  126  ZN 1 XY    0.000000   0.000000
  127  ZN 1 XZ    0.000000   0.000000
  128  ZN 1 YZ    0.000000   0.000000
  129  ZN 1 XX    0.000000   0.000000
  130  ZN 1 YY    0.000000   0.000000
  131  ZN 1 ZZ    0.000000  -0.000000
  132  ZN 1 XY    0.000000   0.000000
  133  ZN 1 XZ    0.000000   0.000000
  134  ZN 1 YZ    0.000000   0.000000
  135  ZN 1 XXX   0.000000   0.000000
  136  ZN 1 YYY   0.000000   0.000000
  137  ZN 1 ZZZ   0.000000   0.000000
  138  ZN 1 XXY   0.000000   0.000000
  139  ZN 1 XXZ   0.000000   0.000000
  140  ZN 1 YYX   0.000000   0.000000
  141  ZN 1 YYZ   0.000000   0.000000
  142  ZN 1 ZZX   0.000000   0.000000
  143  ZN 1 ZZY   0.000000   0.000000
  144  ZN 1 XYZ   0.000000   0.000000
  145  ZN 1XXXX   0.000000   0.000000
  146  ZN 1YYYY   0.000000   0.000000
  147  ZN 1ZZZZ   0.000000   0.000000
  148  ZN 1XXXY   0.000000   0.000000
  149  ZN 1XXXZ   0.000000   0.000000
  150  ZN 1YYYX   0.000000   0.000000
  151  ZN 1YYYZ   0.000000   0.000000
  152  ZN 1ZZZX   0.000000   0.000000
  153  ZN 1ZZZY   0.000000   0.000000
  154  ZN 1XXYY   0.000000  -0.000000
  155  ZN 1XXZZ   0.000000  -0.000000
  156  ZN 1YYZZ   0.000000  -0.000000
  157  ZN 1XXYZ   0.000000   0.000000
  158  ZN 1YYXZ   0.000000   0.000000
  159  ZN 1ZZXY   0.000000   0.000000
 ...... END OF ROHF CALCULATION ......
 STEP CPU TIME =     1.77 TOTAL CPU TIME =       60.5 (    1.0 MIN)
 TOTAL WALL CLOCK TIME=       61.2 SECONDS, CPU UTILIZATION IS  98.74%

     ----------------------------------------------------------------
     PROPERTY VALUES FOR THE ROHF  SELF-CONSISTENT FIELD WAVEFUNCTION
     ----------------------------------------------------------------

          -----------------
          ENERGY COMPONENTS
          -----------------

         WAVEFUNCTION NORMALIZATION =       1.0000000000

                ONE ELECTRON ENERGY =    -407.0990839992
                TWO ELECTRON ENERGY =     181.8240191125
           NUCLEAR REPULSION ENERGY =       0.0000000000
                                      ------------------
                       TOTAL ENERGY =    -225.2750648867

 ELECTRON-ELECTRON POTENTIAL ENERGY =     181.8240191125
  NUCLEUS-ELECTRON POTENTIAL ENERGY =    -557.2007458773
   NUCLEUS-NUCLEUS POTENTIAL ENERGY =       0.0000000000
                                      ------------------
             TOTAL POTENTIAL ENERGY =    -375.3767267648
               TOTAL KINETIC ENERGY =     150.1016618781
                 VIRIAL RATIO (V/T) =       2.5008165937

          ---------------------------------------
          MULLIKEN AND LOWDIN POPULATION ANALYSES
          ---------------------------------------

     ATOMIC MULLIKEN POPULATION IN EACH MOLECULAR ORBITAL

                      1          2          3          4          5

                  2.000000   2.000000   2.000000   2.000000   2.000000

    1             2.000000   2.000000   2.000000   2.000000   2.000000

                      6          7          8          9         10

                  2.000000   2.000000   2.000000   2.000000   2.000000

    1             2.000000   2.000000   2.000000   2.000000   2.000000

          MULLIKEN SPHERICAL HARMONIC POPULATIONS
       ATOM           S       P       D      F      G      H      I    TOTAL
    1 ZN            2.00    3.00    5.00   0.00   0.00   0.00   0.00   10.00

          MULLIKEN SPHERICAL HARMONIC POPULATIONS
       ATOM           S       P       D      F      G      H      I    TOTAL
    1 ZN            2.00    3.00    5.00   0.00   0.00   0.00   0.00   10.00

     ATOMIC SPIN POPULATION (ALPHA MINUS BETA)
       ATOM         MULL.POP.                    LOW.POP.
    1 ZN            0.000000                     0.000000

               ----- POPULATIONS IN EACH AO -----
                             MULLIKEN      LOWDIN
              1  ZN 1  S      1.99994     0.21897
              2  ZN 1  S      1.99998     0.42695
              3  ZN 1  S     -0.00000     0.00250
              4  ZN 1  S     -0.00000     0.00338
              5  ZN 1  S     -0.00000     0.00280
              6  ZN 1  S      0.00002     0.28753
              7  ZN 1  X      1.99972     0.34030
              8  ZN 1  Y      1.99972     0.34030
              9  ZN 1  Z      1.99972     0.34030
             10  ZN 1  X      0.00021     0.00017
             11  ZN 1  Y      0.00021     0.00017
             12  ZN 1  Z      0.00021     0.00017
             13  ZN 1  X      0.00000     0.00289
             14  ZN 1  Y      0.00000     0.00289
             15  ZN 1  Z      0.00000     0.00289
             16  ZN 1  X      0.00000     0.00231
             17  ZN 1  Y      0.00000     0.00231
             18  ZN 1  Z      0.00000     0.00231
             19  ZN 1  X      0.00000     0.00001
             20  ZN 1  Y      0.00000     0.00001
             21  ZN 1  Z      0.00000     0.00001
             22  ZN 1  X     -0.00082     0.00050
             23  ZN 1  Y     -0.00082     0.00050
             24  ZN 1  Z     -0.00082     0.00050
             25  ZN 1 XX      2.00000     0.52388
             26  ZN 1 YY      2.00000     0.52388
             27  ZN 1 ZZ      2.00000     0.52388
             28  ZN 1 XY      2.00000     0.56641
             29  ZN 1 XZ      2.00000     0.56641
             30  ZN 1 YZ      0.00000     0.56641
             31  ZN 1 XX     -0.00000     0.14985
             32  ZN 1 YY     -0.00000     0.14985
             33  ZN 1 ZZ     -0.00000     0.14985
             34  ZN 1 XY     -0.00000     0.01039
             35  ZN 1 XZ     -0.00000     0.01039
             36  ZN 1 YZ      0.00000     0.01039
             37  ZN 1 XX     -0.00000     0.07526
             38  ZN 1 YY     -0.00000     0.07526
             39  ZN 1 ZZ     -0.00000     0.07526
             40  ZN 1 XY     -0.00000     0.00319
             41  ZN 1 XZ     -0.00000     0.00319
             42  ZN 1 YZ      0.00000     0.00319
             43  ZN 1 XX     -0.00000     0.01469
             44  ZN 1 YY     -0.00000     0.01469
             45  ZN 1 ZZ     -0.00000     0.01469
             46  ZN 1 XY     -0.00000     0.01011
             47  ZN 1 XZ     -0.00000     0.01011
             48  ZN 1 YZ      0.00000     0.01011
             49  ZN 1 XX     -0.00000     0.19361
             50  ZN 1 YY     -0.00000     0.19361
             51  ZN 1 ZZ     -0.00000     0.19361
             52  ZN 1 XY     -0.00000     0.03179
             53  ZN 1 XZ     -0.00000     0.03179
             54  ZN 1 YZ      0.00000     0.03179
             55  ZN 1 XXX     0.00000     0.07433
             56  ZN 1 YYY     0.00000     0.07433
             57  ZN 1 ZZZ     0.00000     0.07433
             58  ZN 1 XXY     0.00000     0.03014
             59  ZN 1 XXZ     0.00000     0.03014
             60  ZN 1 YYX     0.00000     0.03014
             61  ZN 1 YYZ     0.00000     0.03014
             62  ZN 1 ZZX     0.00000     0.03014
             63  ZN 1 ZZY     0.00000     0.03014
             64  ZN 1 XYZ     0.00000     0.00000
             65  ZN 1 XXX     0.00000     0.27313
             66  ZN 1 YYY     0.00000     0.27313
             67  ZN 1 ZZZ     0.00000     0.27313
             68  ZN 1 XXY     0.00000     0.11150
             69  ZN 1 XXZ     0.00000     0.11150
             70  ZN 1 YYX     0.00000     0.11150
             71  ZN 1 YYZ     0.00000     0.11150
             72  ZN 1 ZZX     0.00000     0.11150
             73  ZN 1 ZZY     0.00000     0.11150
             74  ZN 1 XYZ     0.00000     0.00000
             75  ZN 1 XXX     0.00000     0.16214
             76  ZN 1 YYY     0.00000     0.16214
             77  ZN 1 ZZZ     0.00000     0.16214
             78  ZN 1 XXY     0.00000     0.06604
             79  ZN 1 XXZ     0.00000     0.06604
             80  ZN 1 YYX     0.00000     0.06604
             81  ZN 1 YYZ     0.00000     0.06604
             82  ZN 1 ZZX     0.00000     0.06604
             83  ZN 1 ZZY     0.00000     0.06604
             84  ZN 1 XYZ     0.00000     0.00000
             85  ZN 1XXXX     0.00000     0.33962
             86  ZN 1YYYY     0.00000     0.33962
             87  ZN 1ZZZZ     0.00000     0.33962
             88  ZN 1XXXY     0.00000     0.23073
             89  ZN 1XXXZ     0.00000     0.23073
             90  ZN 1YYYX     0.00000     0.23073
             91  ZN 1YYYZ     0.00000     0.23073
             92  ZN 1ZZZX     0.00000     0.23073
             93  ZN 1ZZZY     0.00000     0.23073
             94  ZN 1XXYY     0.00000     0.11749
             95  ZN 1XXZZ     0.00000     0.11749
             96  ZN 1YYZZ     0.00000     0.11749
             97  ZN 1XXYZ     0.00000     0.09792
             98  ZN 1YYXZ     0.00000     0.09792
             99  ZN 1ZZXY     0.00000     0.09792
            100  ZN 1XXXX     0.00000     0.20128
            101  ZN 1YYYY     0.00000     0.20128
            102  ZN 1ZZZZ     0.00000     0.20128
            103  ZN 1XXXY     0.00000     0.11831
            104  ZN 1XXXZ     0.00000     0.11831
            105  ZN 1YYYX     0.00000     0.11831
            106  ZN 1YYYZ     0.00000     0.11831
            107  ZN 1ZZZX     0.00000     0.11831
            108  ZN 1ZZZY     0.00000     0.11831
            109  ZN 1XXYY     0.00000     0.09145
            110  ZN 1XXZZ     0.00000     0.09145
            111  ZN 1YYZZ     0.00000     0.09145
            112  ZN 1XXYZ     0.00000     0.05151
            113  ZN 1YYXZ     0.00000     0.05151
            114  ZN 1ZZXY     0.00000     0.05151
            115  ZN 1  S      0.00024     0.08330
            116  ZN 1  S     -0.00017     0.05467
            117  ZN 1  X      0.00102     0.24620
            118  ZN 1  Y      0.00102     0.24620
            119  ZN 1  Z      0.00102     0.24620
            120  ZN 1  X     -0.00012     0.06363
            121  ZN 1  Y     -0.00012     0.06363
            122  ZN 1  Z     -0.00012     0.06363
            123  ZN 1 XX      0.00004     0.18075
            124  ZN 1 YY      0.00004     0.18075
            125  ZN 1 ZZ      0.00004     0.18075
            126  ZN 1 XY      0.00004     0.15757
            127  ZN 1 XZ      0.00004     0.15757
            128  ZN 1 YZ      0.00000     0.15757
            129  ZN 1 XX     -0.00004     0.19375
            130  ZN 1 YY     -0.00004     0.19375
            131  ZN 1 ZZ     -0.00004     0.19375
            132  ZN 1 XY     -0.00004     0.16944
            133  ZN 1 XZ     -0.00004     0.16944
            134  ZN 1 YZ      0.00000     0.16944
            135  ZN 1 XXX     0.00000     0.23099
            136  ZN 1 YYY     0.00000     0.23099
            137  ZN 1 ZZZ     0.00000     0.23099
            138  ZN 1 XXY     0.00000     0.09402
            139  ZN 1 XXZ     0.00000     0.09402
            140  ZN 1 YYX     0.00000     0.09402
            141  ZN 1 YYZ     0.00000     0.09402
            142  ZN 1 ZZX     0.00000     0.09402
            143  ZN 1 ZZY     0.00000     0.09402
            144  ZN 1 XYZ     0.00000     0.00000
            145  ZN 1XXXX     0.00000     0.15060
            146  ZN 1YYYY     0.00000     0.15060
            147  ZN 1ZZZZ     0.00000     0.15060
            148  ZN 1XXXY     0.00000     0.08328
            149  ZN 1XXXZ     0.00000     0.08328
            150  ZN 1YYYX     0.00000     0.08328
            151  ZN 1YYYZ     0.00000     0.08328
            152  ZN 1ZZZX     0.00000     0.08328
            153  ZN 1ZZZY     0.00000     0.08328
            154  ZN 1XXYY     0.00000     0.07440
            155  ZN 1XXZZ     0.00000     0.07440
            156  ZN 1YYZZ     0.00000     0.07440
            157  ZN 1XXYZ     0.00000     0.03703
            158  ZN 1YYXZ     0.00000     0.03703
            159  ZN 1ZZXY     0.00000     0.03703

          ----- MULLIKEN ATOMIC OVERLAP POPULATIONS -----
          (OFF-DIAGONAL ELEMENTS NEED TO BE MULTIPLIED BY 2)

             1

    1   20.0000000

          TOTAL MULLIKEN AND LOWDIN ATOMIC POPULATIONS
       ATOM         MULL.POP.    CHARGE          LOW.POP.     CHARGE
    1 ZN           20.000000   -0.000000        20.000000   -0.000000

          MULLIKEN SPHERICAL HARMONIC POPULATIONS
       ATOM           S       P       D      F      G      H      I    TOTAL
    1 ZN            4.00    6.00   10.00   0.00   0.00   0.00   0.00   20.00

          -------------------------------
          BOND ORDER AND VALENCE ANALYSIS     BOND ORDER THRESHOLD=0.050
          -------------------------------

                   BOND                       BOND                       BOND
  ATOM PAIR DIST  ORDER      ATOM PAIR DIST  ORDER      ATOM PAIR DIST  ORDER

                       TOTAL       BONDED        FREE
      ATOM            VALENCE     VALENCE     VALENCE
    1 ZN               -0.000       0.000      -0.000

          -----------------------------------------
          ATOMIC SPIN DENSITY AT THE NUCLEUS (A.U.)
          -----------------------------------------
                            SPIN DENS    ALPHA DENS     BETA DENS
    1  ZN          20.0     0.0000000       0.00065       0.00065

          ---------------------
          ELECTROSTATIC MOMENTS
          ---------------------

 POINT   1           X           Y           Z (BOHR)    CHARGE
                 0.000000    0.000000    0.000000       -0.00 (A.U.)
         DX          DY          DZ         /D/  (DEBYE)
     0.000000    0.000000    0.000000    0.000000
 ...... END OF PROPERTY EVALUATION ......
 STEP CPU TIME =     0.07 TOTAL CPU TIME =       60.5 (    1.0 MIN)
 TOTAL WALL CLOCK TIME=       61.3 SECONDS, CPU UTILIZATION IS  98.68%
                809342  WORDS OF DYNAMIC MEMORY USED
 EXECUTION OF GAMESS TERMINATED NORMALLY Fri Dec  7 02:03:24 2018
 DDI: 263624 bytes (0.3 MB / 0 MWords) used by master data server.

 ----------------------------------------
 CPU timing information for all processes
 ========================================
 0: 60.143 + 0.398 = 60.541
 ----------------------------------------
 ddikick.x: exited gracefully.
----- accounting info -----
Files used on the master node c505-014.stampede2.tacc.utexas.edu were:
-rw------- 1 aannabe G-801537      6812 Dec  7 02:02 /tmp/Zn.F05
-rw------- 1 aannabe G-801537 124931104 Dec  7 02:03 /tmp/Zn.F08
-rw------- 1 aannabe G-801537  10208640 Dec  7 02:03 /tmp/Zn.F10
Fri Dec  7 02:03:27 CST 2018
0.218u 0.194s 1:05.02 0.6%	0+0k 6136+40io 28pf+0w
