
 Primary working directories    : /global/cscratch1/sd/aannabe
 Secondary working directories  : /global/cscratch1/sd/aannabe
 Wavefunction directory         : /global/homes/a/aannabe/wfu/
 Main file repository           : /global/cscratch1/sd/aannabe/

 SHA1      : 2873118e99aab1bc19f5b6fc1784693c06d15c95
 NAME      : 2015.1.8
 ARCHNAME  : linux/x86_64
 FC        : /opt/cray/pe/craype/2.5.5/bin/ftn
 BLASLIB   : -Wl,-_start-group /opt/intel/compilers_and_libraries_2016.3.210/linux/mkl/lib/intel64/libmkl_intel_ilp64.a /opt/intel/compilers_and_libraries_2016.3.210/linux/mkl/lib/intel64/libmkl_intel_thread.a /opt/intel/compilers_and_libraries_2016.3.210/linux/mkl/lib/intel64/libmkl_core.a -Wl,-_end-group
 id        : lbl

 Nodes     nprocs
 nid00494     1

 Using customized tuning parameters: mindgm=8; mindgv=16; mindgc=4; mindgr=1; noblas=0; minvec=7
 default implementation of scratch files=df  

 ***,Fe
 memory,8,g
 gthresh,twoint=1.e-12
 
 gprint,basis,orbitals
 gexpec,ekin,pot
 
 angstrom
 geometry={
 1                                                                               ! Number of atoms
 Fe 0.0 0.0 0.0
 }
 
 basis={
 Including file /global/homes/a/aannabe/docs/totals/pps/Fe.pp
 Including file /global/homes/a/aannabe/docs/totals/basis/aug-cc-pVnZ/Fe_tz.basis
 }
 
 {hf
 wf,16,1,4
 occ,4,1,1,1,1,1,1,0
 open,4.1,1.4,1.6,1.7
 sym,1,1,1,3
 }
 scf(i)=energy
 
 _CC_NORM_MAX=2.0
  !NOTE: Perturbative MRCC works only with UHF reference. So, here we will trick MRCC by doing zero UHF iteration right after ROHF.
 
 {uhf
 wf,16,1,4
 occ,4,1,1,1,1,1,1,0
 open,4.1,1.4,1.6,1.7
 sym,1,1,1,3
 maxit,0
 }
 scf(i)=energy
 
 {mrcc,method=CCSDT(Q)
 orbital,ignore_error=1                                                          !Ignore the fact that UHF WF is not converged
 maxit,100
 core
 }
 posthf(i)=energy
 
 table,scf,posthf,ekin,pot
 save,3.csv,new
 
 

 Variables initialized (889), CPU time= 0.01 sec
 Commands  initialized (702), CPU time= 0.01 sec, 572 directives.
 Default parameters read. Elapsed time= 0.09 sec

 Checking input...
 Passed
1


                                         ***  PROGRAM SYSTEM MOLPRO  ***
                                       Copyright, TTI GmbH Stuttgart, 2015
                                    Version 2015.1 linked Sep  7 2016 23:09:38


 **********************************************************************************************************************************
 LABEL *   Fe                                                                            
  64 bit serial version                                                                  DATE: 15-Jun-18          TIME: 15:29:06  
 **********************************************************************************************************************************

 SHA1:             2873118e99aab1bc19f5b6fc1784693c06d15c95
 **********************************************************************************************************************************

 THRESHOLDS:

 ZERO    =  1.00D-12  ONEINT  =  1.00D-12  TWOINT  =  1.00D-12  PREFAC  =  1.00D-14  LOCALI  =  1.00D-09  EORDER  =  1.00D-04
 ENERGY  =  0.00D+00  ETEST   =  0.00D+00  EDENS   =  0.00D+00  THRDEDEF=  1.00D-06  GRADIENT=  1.00D-02  STEP    =  1.00D-03
 ORBITAL =  1.00D-05  CIVEC   =  1.00D-05  COEFF   =  1.00D-04  PRINTCI =  5.00D-02  PUNCHCI =  9.90D+01  OPTGRAD =  3.00D-04
 OPTENERG=  1.00D-06  OPTSTEP =  3.00D-04  THRGRAD =  1.00D-10  COMPRESS=  1.00D-11  VARMIN  =  1.00D-07  VARMAX  =  1.00D-03
 THRDOUB =  0.00D+00  THRDIV  =  1.00D-05  THRRED  =  1.00D-07  THRPSP  =  1.00D+00  THRDC   =  1.00D-10  THRCS   =  1.00D-10
 THRNRM  =  1.00D-08  THREQ   =  0.00D+00  THRDE   =  1.00D+00  THRREF  =  1.00D-05  SPARFAC =  1.00D+00  THRDLP  =  1.00D-07
 THRDIA  =  1.00D-10  THRDLS  =  1.00D-07  THRGPS  =  0.00D+00  THRKEX  =  0.00D+00  THRDIS  =  2.00D-01  THRVAR  =  1.00D-10
 THRLOC  =  1.00D-06  THRGAP  =  1.00D-06  THRLOCT = -1.00D+00  THRGAPT = -1.00D+00  THRORB  =  1.00D-06  THRMLTP =  0.00D+00
 THRCPQCI=  1.00D-10  KEXTA   =  0.00D+00  THRCOARS=  0.00D+00  SYMTOL  =  1.00D-06  GRADTOL =  1.00D-06  THROVL  =  1.00D-08
 THRORTH =  1.00D-08  GRID    =  1.00D-06  GRIDMAX =  1.00D-03  DTMAX   =  0.00D+00  THROCCDE=  1.00D-01  THROCCDE=  1.00D-01



 ZUNIT=ANG
 

Geometry recognized as XYZ


 Variable memory set to 8000000000 words,  buffer space   230000 words

 SETTING BASIS          =    USERDEF


 Recomputing integrals since basis changed


 Using spherical harmonics



 PROGRAM * SEWARD (Integral evaluation for generally contracted gaussian basis sets)     Author: Roland Lindh, 1990

 Geometry written to block  1 of record 700

 Orientation using atomic masses  
 Molecule type: Atom
 Symmetry elements: X,Y,Z
 Rotational constants:       0.0000000      0.0000000      0.0000000 GHz  (calculated with average atomic masses)

 Point group  D2h 



 ATOMIC COORDINATES

 NR  ATOM    CHARGE       X              Y              Z

   1  FE     16.00    0.000000000    0.000000000    0.000000000


          FE  CORE POTENTIAL

          d POTENTIAL

 POWERS             1              3              2              2
 EXPONENTIALS   23.22092       23.54715       23.47256       9.852388    
 COEFFICIENTS   16.00000       371.5347      -181.2260      -2.373052    

          s - d POTENTIAL

 POWERS             2              2
 EXPONENTIALS   22.21063       9.515158    
 COEFFICIENTS   277.5003       46.20496    

          p - d POTENTIAL

 POWERS             2              2
 EXPONENTIALS   24.57001       8.866488    
 COEFFICIENTS   194.9988       31.67945    


 BASIS DATA

   Nr Sym  Nuc  Type         Exponents   Contraction coefficients

    1.1 Ag    1  1s          84.322332     0.000785   -0.000162    0.000002    0.000012    0.000000
    2.1 Ag                   44.203528    -0.012781    0.002921    0.004103    0.007598    0.000000
    3.1 Ag                   23.288963     0.104635   -0.025466   -0.046840   -0.094133    0.000000
    4.1 Ag                   13.385163    -0.119385    0.031182    0.052833    0.127655    0.000000
    5.1 Ag                    7.518052    -0.339804    0.086849    0.218094    0.435598    0.000000
                              4.101835    -0.049994    0.006846   -0.044999   -0.147911    0.000000
                              2.253571     0.476955   -0.131856   -0.287386   -1.084477    0.000000
                              1.134924     0.593222   -0.227746   -0.713220   -0.887003    0.000000
                              0.561550     0.200151   -0.173079    0.249174    2.449946    0.000000
                              0.201961     0.008591    0.136142    1.299872    0.167976    0.000000
                              0.108698    -0.002188    0.434013    0.192119   -2.114668    0.000000
                              0.053619     0.000677    0.477555   -0.658616    0.452579    0.000000
                              0.025823    -0.000144    0.128804   -0.521047    0.801444    1.000000
    6.1 Ag    1  1s           0.012000     1.000000
    7.1 Ag    1  3d0        152.736742     0.000029
                             50.772485     0.005238
                             26.253589     0.029325
                             12.137022     0.074901
                              5.853719     0.163411
                              2.856224     0.251057
                              1.386132     0.287603
                              0.670802     0.251862
                              0.330280     0.186736
                              0.170907     0.093570
                              0.086794     0.073811
    8.1 Ag    1  3d2+       152.736742     0.000029
                             50.772485     0.005238
                             26.253589     0.029325
                             12.137022     0.074901
                              5.853719     0.163411
                              2.856224     0.251057
                              1.386132     0.287603
                              0.670802     0.251862
                              0.330280     0.186736
                              0.170907     0.093570
                              0.086794     0.073811
    9.1 Ag    1  3d0        152.736742    -0.000026
                             50.772485    -0.006329
                             26.253589    -0.034398
                             12.137022    -0.091765
                              5.853719    -0.201592
                              2.856224    -0.283930
                              1.386132    -0.161981
                              0.670802     0.128822
                              0.330280     0.360160
                              0.170907     0.277592
                              0.086794     0.261403
   10.1 Ag    1  3d2+       152.736742    -0.000026
                             50.772485    -0.006329
                             26.253589    -0.034398
                             12.137022    -0.091765
                              5.853719    -0.201592
                              2.856224    -0.283930
                              1.386132    -0.161981
                              0.670802     0.128822
                              0.330280     0.360160
                              0.170907     0.277592
                              0.086794     0.261403
   11.1 Ag    1  3d0        152.736742     0.000051
                             50.772485     0.008769
                             26.253589     0.047921
                             12.137022     0.132475
                              5.853719     0.297279
                              2.856224     0.275018
                              1.386132    -0.222842
                              0.670802    -0.619067
                              0.330280    -0.076290
                              0.170907     0.256056
                              0.086794     0.541482
   12.1 Ag    1  3d2+       152.736742     0.000051
                             50.772485     0.008769
                             26.253589     0.047921
                             12.137022     0.132475
                              5.853719     0.297279
                              2.856224     0.275018
                              1.386132    -0.222842
                              0.670802    -0.619067
                              0.330280    -0.076290
                              0.170907     0.256056
                              0.086794     0.541482
   13.1 Ag    1  3d0        152.736742     0.000000
                             50.772485     0.000000
                             26.253589     0.000000
                             12.137022     0.000000
                              5.853719     0.000000
                              2.856224     0.000000
                              1.386132     0.000000
                              0.670802     0.000000
                              0.330280     0.000000
                              0.170907     0.000000
                              0.086794     1.000000
   14.1 Ag    1  3d2+       152.736742     0.000000
                             50.772485     0.000000
                             26.253589     0.000000
                             12.137022     0.000000
                              5.853719     0.000000
                              2.856224     0.000000
                              1.386132     0.000000
                              0.670802     0.000000
                              0.330280     0.000000
                              0.170907     0.000000
                              0.086794     1.000000
   15.1 Ag    1  3d0          0.040000     1.000000
   16.1 Ag    1  3d2+         0.040000     1.000000
   17.1 Ag    1  5g0          0.679723     1.000000
   18.1 Ag    1  5g4+         0.679723     1.000000
   19.1 Ag    1  5g2+         0.679723     1.000000
   20.1 Ag    1  5g0          2.137024     1.000000
   21.1 Ag    1  5g4+         2.137024     1.000000
   22.1 Ag    1  5g2+         2.137024     1.000000
    1.2 B3u   1  2px        125.092775     0.000056    0.000025   -0.000197    0.000264    0.000000
    2.2 B3u                  65.211589    -0.000572   -0.000070    0.001251   -0.001076    0.000000
    3.2 B3u                  34.437599     0.007388   -0.001042   -0.009154   -0.002591    0.000000
    4.2 B3u                  18.930704    -0.028481    0.005127    0.038201    0.035519    0.000000
    5.2 B3u                  10.873415    -0.063005    0.018404    0.043097    0.119554    0.000000
                              6.012172     0.024855   -0.014692   -0.029475   -0.204714    0.000000
                              3.372205     0.277474   -0.061307   -0.426996   -0.760627    0.000000
                              1.768641     0.425386   -0.128638   -0.394840   -0.262740    0.000000
                              0.914516     0.314145   -0.070637    0.077230    1.779030    0.000000
                              0.460895     0.090422   -0.016314    1.119881   -0.462742    0.000000
                              0.204490     0.006977    0.380702   -0.066494   -1.241030    0.000000
                              0.074741     0.001154    0.523071   -0.721583    0.940987    0.000000
                              0.035671     0.000303    0.235765   -0.005695    0.083496    1.000000
    6.2 B3u   1  2px          0.017000     1.000000
    7.2 B3u   1  4f1+         0.200905     1.000000
    8.2 B3u   1  4f3+         0.200905     1.000000
    9.2 B3u   1  4f1+         0.824745     1.000000
   10.2 B3u   1  4f3+         0.824745     1.000000
   11.2 B3u   1  4f1+         3.385699     1.000000
   12.2 B3u   1  4f3+         3.385699     1.000000
    1.3 B2u   1  2py        125.092775     0.000056    0.000025   -0.000197    0.000264    0.000000
    2.3 B2u                  65.211589    -0.000572   -0.000070    0.001251   -0.001076    0.000000
    3.3 B2u                  34.437599     0.007388   -0.001042   -0.009154   -0.002591    0.000000
    4.3 B2u                  18.930704    -0.028481    0.005127    0.038201    0.035519    0.000000
    5.3 B2u                  10.873415    -0.063005    0.018404    0.043097    0.119554    0.000000
                              6.012172     0.024855   -0.014692   -0.029475   -0.204714    0.000000
                              3.372205     0.277474   -0.061307   -0.426996   -0.760627    0.000000
                              1.768641     0.425386   -0.128638   -0.394840   -0.262740    0.000000
                              0.914516     0.314145   -0.070637    0.077230    1.779030    0.000000
                              0.460895     0.090422   -0.016314    1.119881   -0.462742    0.000000
                              0.204490     0.006977    0.380702   -0.066494   -1.241030    0.000000
                              0.074741     0.001154    0.523071   -0.721583    0.940987    0.000000
                              0.035671     0.000303    0.235765   -0.005695    0.083496    1.000000
    6.3 B2u   1  2py          0.017000     1.000000
    7.3 B2u   1  4f1-         0.200905     1.000000
    8.3 B2u   1  4f3-         0.200905     1.000000
    9.3 B2u   1  4f1-         0.824745     1.000000
   10.3 B2u   1  4f3-         0.824745     1.000000
   11.3 B2u   1  4f1-         3.385699     1.000000
   12.3 B2u   1  4f3-         3.385699     1.000000
    1.4 B1g   1  3d2-       152.736742     0.000029   -0.000026    0.000051    0.000000
    2.4 B1g                  50.772485     0.005238   -0.006329    0.008769    0.000000
    3.4 B1g                  26.253589     0.029325   -0.034398    0.047921    0.000000
    4.4 B1g                  12.137022     0.074901   -0.091765    0.132475    0.000000
                              5.853719     0.163411   -0.201592    0.297279    0.000000
                              2.856224     0.251057   -0.283930    0.275018    0.000000
                              1.386132     0.287603   -0.161981   -0.222842    0.000000
                              0.670802     0.251862    0.128822   -0.619067    0.000000
                              0.330280     0.186736    0.360160   -0.076290    0.000000
                              0.170907     0.093570    0.277592    0.256056    0.000000
                              0.086794     0.073811    0.261403    0.541482    1.000000
    5.4 B1g   1  3d2-         0.040000     1.000000
    6.4 B1g   1  5g2-         0.679723     1.000000
    7.4 B1g   1  5g4-         0.679723     1.000000
    8.4 B1g   1  5g2-         2.137024     1.000000
    9.4 B1g   1  5g4-         2.137024     1.000000
    1.5 B1u   1  2pz        125.092775     0.000056    0.000025   -0.000197    0.000264    0.000000
    2.5 B1u                  65.211589    -0.000572   -0.000070    0.001251   -0.001076    0.000000
    3.5 B1u                  34.437599     0.007388   -0.001042   -0.009154   -0.002591    0.000000
    4.5 B1u                  18.930704    -0.028481    0.005127    0.038201    0.035519    0.000000
    5.5 B1u                  10.873415    -0.063005    0.018404    0.043097    0.119554    0.000000
                              6.012172     0.024855   -0.014692   -0.029475   -0.204714    0.000000
                              3.372205     0.277474   -0.061307   -0.426996   -0.760627    0.000000
                              1.768641     0.425386   -0.128638   -0.394840   -0.262740    0.000000
                              0.914516     0.314145   -0.070637    0.077230    1.779030    0.000000
                              0.460895     0.090422   -0.016314    1.119881   -0.462742    0.000000
                              0.204490     0.006977    0.380702   -0.066494   -1.241030    0.000000
                              0.074741     0.001154    0.523071   -0.721583    0.940987    0.000000
                              0.035671     0.000303    0.235765   -0.005695    0.083496    1.000000
    6.5 B1u   1  2pz          0.017000     1.000000
    7.5 B1u   1  4f0          0.200905     1.000000
    8.5 B1u   1  4f2+         0.200905     1.000000
    9.5 B1u   1  4f0          0.824745     1.000000
   10.5 B1u   1  4f2+         0.824745     1.000000
   11.5 B1u   1  4f0          3.385699     1.000000
   12.5 B1u   1  4f2+         3.385699     1.000000
    1.6 B2g   1  3d1+       152.736742     0.000029   -0.000026    0.000051    0.000000
    2.6 B2g                  50.772485     0.005238   -0.006329    0.008769    0.000000
    3.6 B2g                  26.253589     0.029325   -0.034398    0.047921    0.000000
    4.6 B2g                  12.137022     0.074901   -0.091765    0.132475    0.000000
                              5.853719     0.163411   -0.201592    0.297279    0.000000
                              2.856224     0.251057   -0.283930    0.275018    0.000000
                              1.386132     0.287603   -0.161981   -0.222842    0.000000
                              0.670802     0.251862    0.128822   -0.619067    0.000000
                              0.330280     0.186736    0.360160   -0.076290    0.000000
                              0.170907     0.093570    0.277592    0.256056    0.000000
                              0.086794     0.073811    0.261403    0.541482    1.000000
    5.6 B2g   1  3d1+         0.040000     1.000000
    6.6 B2g   1  5g1+         0.679723     1.000000
    7.6 B2g   1  5g3+         0.679723     1.000000
    8.6 B2g   1  5g1+         2.137024     1.000000
    9.6 B2g   1  5g3+         2.137024     1.000000
    1.7 B3g   1  3d1-       152.736742     0.000029   -0.000026    0.000051    0.000000
    2.7 B3g                  50.772485     0.005238   -0.006329    0.008769    0.000000
    3.7 B3g                  26.253589     0.029325   -0.034398    0.047921    0.000000
    4.7 B3g                  12.137022     0.074901   -0.091765    0.132475    0.000000
                              5.853719     0.163411   -0.201592    0.297279    0.000000
                              2.856224     0.251057   -0.283930    0.275018    0.000000
                              1.386132     0.287603   -0.161981   -0.222842    0.000000
                              0.670802     0.251862    0.128822   -0.619067    0.000000
                              0.330280     0.186736    0.360160   -0.076290    0.000000
                              0.170907     0.093570    0.277592    0.256056    0.000000
                              0.086794     0.073811    0.261403    0.541482    1.000000
    5.7 B3g   1  3d1-         0.040000     1.000000
    6.7 B3g   1  5g1-         0.679723     1.000000
    7.7 B3g   1  5g3-         0.679723     1.000000
    8.7 B3g   1  5g1-         2.137024     1.000000
    9.7 B3g   1  5g3-         2.137024     1.000000
    1.8 Au    1  4f2-         0.200905     1.000000
    2.8 Au    1  4f2-         0.824745     1.000000
    3.8 Au    1  4f2-         3.385699     1.000000

 NUCLEAR CHARGE:                   16
 NUMBER OF PRIMITIVE AOS:         188
 NUMBER OF SYMMETRY AOS:          155
 NUMBER OF CONTRACTIONS:           88   (  22Ag  +  12B3u +  12B2u +   9B1g +  12B1u +   9B2g +   9B3g +   3Au  )
 NUMBER OF CORE ORBITALS:           4   (   1Ag  +   1B3u +   1B2u +   0B1g +   1B1u +   0B2g +   0B3g +   0Au  )
 NUMBER OF VALENCE ORBITALS:        6   (   3Ag  +   0B3u +   0B2u +   1B1g +   0B1u +   1B2g +   1B3g +   0Au  )


 NUCLEAR REPULSION ENERGY    0.00000000

 EXTRA SYMMETRY OF AOS IN SYMMETRY 1:   1 1 1 1 1 1 2 3 2 3   2 3 2 3 2 3 4 5 6 4   5 6
 EXTRA SYMMETRY OF AOS IN SYMMETRY 2:   1 1 1 1 1 1 2 3 2 3   2 3
 EXTRA SYMMETRY OF AOS IN SYMMETRY 3:   1 1 1 1 1 1 2 3 2 3   2 3
 EXTRA SYMMETRY OF AOS IN SYMMETRY 4:   1 1 1 1 1 2 3 2 3
 EXTRA SYMMETRY OF AOS IN SYMMETRY 5:   1 1 1 1 1 1 2 3 2 3   2 3
 EXTRA SYMMETRY OF AOS IN SYMMETRY 6:   1 1 1 1 1 2 3 2 3
 EXTRA SYMMETRY OF AOS IN SYMMETRY 7:   1 1 1 1 1 2 3 2 3

 Eigenvalues of metric

         1 0.483E-02 0.396E-01 0.396E-01 0.137E+00 0.391E+00 0.391E+00 0.575E+00 0.575E+00
         2 0.281E-01 0.395E+00 0.515E+00 0.515E+00 0.754E+00 0.970E+00 0.970E+00 0.991E+00
         3 0.281E-01 0.395E+00 0.515E+00 0.515E+00 0.754E+00 0.970E+00 0.970E+00 0.991E+00
         4 0.396E-01 0.391E+00 0.575E+00 0.575E+00 0.969E+00 0.103E+01 0.142E+01 0.142E+01
         5 0.281E-01 0.395E+00 0.515E+00 0.515E+00 0.754E+00 0.970E+00 0.970E+00 0.991E+00
         6 0.396E-01 0.391E+00 0.575E+00 0.575E+00 0.969E+00 0.103E+01 0.142E+01 0.142E+01
         7 0.396E-01 0.391E+00 0.575E+00 0.575E+00 0.969E+00 0.103E+01 0.142E+01 0.142E+01
         8 0.515E+00 0.970E+00 0.152E+01


 Contracted 2-electron integrals neglected if value below      1.0D-12
 AO integral compression algorithm  1   Integral accuracy      1.0D-12

     8.126 MB (compressed) written to integral file ( 55.3%)


 NUMBER OF SORTED TWO-ELECTRON INTEGRALS:    1019164.     BUFFER LENGTH:  32768
 NUMBER OF SEGMENTS:   1  SEGMENT LENGTH:    1019164      RECORD LENGTH: 524288

 Memory used in sort:       1.58 MW

 SORT1 READ     1855900. AND WROTE      770922. INTEGRALS IN      3 RECORDS. CPU TIME:     0.04 SEC, REAL TIME:     0.16 SEC
 SORT2 READ      770922. AND WROTE     1019164. INTEGRALS IN     31 RECORDS. CPU TIME:     0.04 SEC, REAL TIME:     0.10 SEC

 FILE SIZES:   FILE 1:    27.4 MBYTE,  FILE 4:    12.6 MBYTE,   TOTAL:     40.0 MBYTE

 OPERATOR DM      FOR CENTER  0  COORDINATES:    0.000000    0.000000    0.000000
 OPERATOR EKIN    FOR CENTER  0  COORDINATES:    0.000000    0.000000    0.000000
 OPERATOR POT     FOR CENTER  0  COORDINATES:    0.000000    0.000000    0.000000


 **********************************************************************************************************************************
 DATASETS  * FILE   NREC   LENGTH (MB)   RECORD NAMES
              1      20       23.71       500      610      700      900      950      970     1000      129      960     1100   
                                          VAR    BASINP    GEOM    SYMINP    ZMAT    AOBASIS   BASIS     P2S    ABASIS      S 
                                         1400     1410     1420     1200     1210     1080     1600     1650     1300     1700   
                                         EKIN       V       ECP      H0       H01     AOSYM     SMH    MOLCAS    ERIS     OPER   

 PROGRAMS   *        TOTAL       INT
 CPU TIMES  *         2.58      2.49
 REAL TIME  *        14.67 SEC
 DISK USED  *        40.32 MB      
 **********************************************************************************************************************************


 PROGRAM * RHF-SCF (OPEN SHELL)       Authors: W. Meyer, H.-J. Werner


 NUMBER OF ELECTRONS:      10+    6-    SPACE SYMMETRY=1    SPIN SYMMETRY: Quintet 
 CONVERGENCE THRESHOLDS:    1.00E-05 (Density)    1.00E-07 (Energy)
 MAX. NUMBER OF ITERATIONS:       60
 INTERPOLATION TYPE:            DIIS
 INTERPOLATION STEPS:              2 (START)      1 (STEP)
 LEVEL SHIFTS:                 -0.60 (CLOSED) -0.30 (OPEN) 


 Singly occupied orbitals:      4.1       1.4       1.6       1.7
 
 Extra symmetries of mos in symmetry 1:   1   1   3

   Atom=FE basis=ECP10MDF_GUESS    lmin=0  lmax=2

 Orbital guess generated from atomic densities. Full valence occupancy:    4   1   1   1   1   1   1   0


 Molecular orbital dump at record        2100.2

 ITERATION    DDIFF          GRAD             ENERGY        2-EL.EN.            DIPOLE MOMENTS         DIIS   ORB.
    1      0.000D+00      0.000D+00      -122.53316884    179.507143    0.00000    0.00000    0.00000    0    start
    2      0.000D+00      0.331D-01      -122.62569734    188.468081    0.00000    0.00000    0.00000    1    diag,B
    3      0.129D-01      0.218D-01      -122.64463595    186.514416    0.00000    0.00000    0.00000    2    diag,B
    4      0.350D-02      0.478D-02      -122.64683342    186.401432    0.00000    0.00000    0.00000    3    diag,B
    5      0.191D-02      0.791D-03      -122.64703732    186.382164    0.00000    0.00000    0.00000    4    diag,B
    6      0.104D-02      0.242D-03      -122.64707535    186.337163    0.00000    0.00000    0.00000    5    diag,B
    7      0.522D-03      0.962D-04      -122.64708334    186.319816    0.00000    0.00000    0.00000    6    fixocc
    8      0.506D-03      0.342D-04      -122.64708447    186.314024    0.00000    0.00000    0.00000    7    diag,B
    9      0.137D-03      0.167D-04      -122.64708481    186.312965    0.00000    0.00000    0.00000    8    diag,B
   10      0.792D-04      0.830D-05      -122.64708490    186.312854    0.00000    0.00000    0.00000    9    orth
   11      0.750D-04      0.213D-05      -122.64708490    186.312763    0.00000    0.00000    0.00000    9    diag,B
   12      0.101D-04      0.612D-06      -122.64708490    186.312780    0.00000    0.00000    0.00000    9    diag,B
   13      0.119D-05      0.233D-06      -122.64708490    186.312782    0.00000    0.00000    0.00000    0    orth

 Final alpha occupancy:   4   1   1   1   1   1   1   0
 Final beta  occupancy:   3   1   1   0   1   0   0   0

 !RHF STATE 1.1 Energy               -122.647084899596
 Nuclear energy                         0.00000000
 One-electron energy                 -215.80347566
 Two-electron energy                   93.15639076
 Virial quotient                       -1.70738521
 !RHF STATE 1.1 Dipole moment           0.00000000     0.00000000     0.00000000
 Dipole moment /Debye                   0.00000000     0.00000000     0.00000000
 

 !RHF expec          <1.1|EKIN|1.1>    71.833282967224
 
 !RHF expec           <1.1|POT|1.1>   -18.863215518537

 ELECTRON ORBITALS
 =================


   Orb  Occ    Energy  Couls-En    Coefficients

                                   1 1s      1 1s      1 1s      1 1s      1 1s      1 1s      1 3d0     1 3d2+    1 3d0     1 3d2+ 
                                   1 3d0     1 3d2+    1 3d0     1 3d2+    1 3d0     1 3d2+    1 5g0     1 5g4+    1 5g2+    1 5g0  
                                   1 5g4+    1 5g2+ 

   1.1   2    -4.2757  -21.5477  0.999994  0.000051 -0.000021 -0.000041 -0.000016  0.000033 -0.002544  0.000018 -0.003463 -0.000009
                                -0.000489 -0.000002  0.002393  0.000004 -0.000457 -0.000001  0.000075  0.000540  0.000001  0.000093
                                 0.000592  0.000001

   2.1   2    -0.2617   -5.8730  0.000031  0.999955  0.000976 -0.000174 -0.000236  0.000076  0.012974 -0.000010  0.012278  0.000023
                                 0.003146  0.000006 -0.001013 -0.000001  0.001180  0.000002  0.000034 -0.000120 -0.000000  0.000041
                                 0.000171  0.000000

   3.1   2    -0.5437  -13.0370 -0.000018 -0.000002  0.000000 -0.000001  0.000002 -0.000000  0.000937  1.008785 -0.000059 -0.063780
                                -0.000014 -0.015754 -0.000032 -0.034313  0.000002  0.002647  0.000002  0.000003  0.000999  0.000003
                                 0.000004  0.001311

   4.1   +    -0.7024  -13.4844  0.001547 -0.012046 -0.000801 -0.000571  0.000988 -0.000235  0.999313 -0.000929 -0.128611  0.000119
                                -0.033215  0.000031 -0.015592  0.000015  0.001053 -0.000001  0.002275  0.000831  0.000001  0.003213
                                 0.001686  0.000001

                                   1 2px     1 2px     1 2px     1 2px     1 2px     1 2px     1 4f1+    1 4f3+    1 4f1+    1 4f3+ 
                                   1 4f1+    1 4f3+ 

   1.2   2    -2.7616  -18.4265  1.000192  0.014302  0.014973 -0.000491 -0.000707 -0.001080 -0.000331  0.000600  0.000780  0.004127
                                 0.001438  0.003018

                                   1 2py     1 2py     1 2py     1 2py     1 2py     1 2py     1 4f1-    1 4f3-    1 4f1-    1 4f3- 
                                   1 4f1-    1 4f3- 

   1.3   2    -2.7615  -18.4265  1.000192  0.014307  0.014978 -0.000493 -0.000706 -0.001081 -0.000332 -0.000601  0.000774 -0.004124
                                 0.001434 -0.003012

                                   1 3d2-    1 3d2-    1 3d2-    1 3d2-    1 3d2-    1 5g2-    1 5g4-    1 5g2-    1 5g4- 

   1.4   +    -0.6600  -13.3829  1.001780 -0.114456 -0.029607 -0.020104  0.001377  0.001421  0.000005  0.001887  0.000007

                                   1 2pz     1 2pz     1 2pz     1 2pz     1 2pz     1 2pz     1 4f0     1 4f2+    1 4f0     1 4f2+ 
                                   1 4f0     1 4f2+ 

   1.5   2    -2.7685  -18.4434  1.000248  0.012076  0.012809  0.000439 -0.001437 -0.000631 -0.000218  0.000000  0.002257  0.000007
                                 0.002721  0.000006

                                   1 3d1+    1 3d1+    1 3d1+    1 3d1+    1 3d1+    1 5g1+    1 5g3+    1 5g1+    1 5g3+ 

   1.6   +    -0.6916  -13.4594  1.000005 -0.125045 -0.032308 -0.016765  0.001150  0.002161 -0.000524  0.003068 -0.001051

                                   1 3d1-    1 3d1-    1 3d1-    1 3d1-    1 3d1-    1 5g1-    1 5g3-    1 5g1-    1 5g3- 

   1.7   +    -0.6915  -13.4593  1.000008 -0.125024 -0.032303 -0.016772  0.001150  0.002165  0.000529  0.003073  0.001057

 HOMO      1.4    -0.659961 =     -17.9585eV
 LUMO      2.5     0.020631 =       0.5614eV
 LUMO-HOMO         0.680592 =      18.5199eV


 **********************************************************************************************************************************
 DATASETS  * FILE   NREC   LENGTH (MB)   RECORD NAMES
              1      20       23.71       500      610      700      900      950      970     1000      129      960     1100   
                                          VAR    BASINP    GEOM    SYMINP    ZMAT    AOBASIS   BASIS     P2S    ABASIS      S 
                                         1400     1410     1420     1200     1210     1080     1600     1650     1300     1700   
                                         EKIN       V       ECP      H0       H01     AOSYM     SMH    MOLCAS    ERIS     OPER   

              2       4        2.79       700     1000      520     2100   
                                         GEOM     BASIS   MCVARS     RHF  

 PROGRAMS   *        TOTAL        HF       INT
 CPU TIMES  *         2.70      0.12      2.49
 REAL TIME  *        14.97 SEC
 DISK USED  *        40.32 MB      
 **********************************************************************************************************************************
 SETTING SCF(I)         =      -122.64708490  AU                              
 SETTING _CC_NORM_MAX   =         2.00000000                                  


 PROGRAM * UHF-SCF       Authors: W. Meyer, H.-J. Werner


 NUMBER OF ELECTRONS:      10+    6-    SPACE SYMMETRY=1    SPIN SYMMETRY: Quintet 
 CONVERGENCE THRESHOLDS:    1.00E-05 (Density)    1.00E-07 (Energy)
 MAX. NUMBER OF ITERATIONS:        0
 INTERPOLATION TYPE:            DIIS
 INTERPOLATION STEPS:              2 (START)      1 (STEP)
 LEVEL SHIFTS:                  0.20 (ALPHA)   0.20 (BETA) 


 Singly occupied orbitals:      4.1       1.4       1.6       1.7
 
 Extra symmetries of mos in symmetry 1:   1   1   3
 Molecular orbitals read from record     2100.2  Type=RHF/CANONICAL (state 1.1)

 Molecular orbital dump at record        2200.2

 Initial alpha occupation   4   1   1   1   1   1   1   0
 Initial beta  occupation   3   1   1   0   1   0   0   0

 ITERATION    DDIFF          GRAD             ENERGY        2-EL.EN.            DIPOLE MOMENTS         DIIS
    1      0.000D+00      0.000D+00      -122.64708490    186.312782    0.00000    0.00000    0.00000    0
 
 Final alpha occupancy:   4   1   1   1   1   1   1   0
 Final beta  occupancy:   3   1   1   0   1   0   0   0

 !UHF STATE 1.1 Energy               -122.647084899597
 Nuclear energy                         0.00000000
 One-electron energy                 -215.80347566
 Two-electron energy                   93.15639076
 Virial quotient                       -1.70738521
 !UHF STATE 1.1 Dipole moment           0.00000000     0.00000000     0.00000000
 Dipole moment /Debye                   0.00000000     0.00000000     0.00000000
 

 !UHF expec          <1.1|EKIN|1.1>    71.833282967224
 
 !UHF expec           <1.1|POT|1.1>   -18.863215518537

 ELECTRON ORBITALS FOR POSITIVE SPIN
 ===================================


   Orb  Occ    Energy  Couls-En    Coefficients

                                   1 1s      1 1s      1 1s      1 1s      1 1s      1 1s      1 3d0     1 3d2+    1 3d0     1 3d2+ 
                                   1 3d0     1 3d2+    1 3d0     1 3d2+    1 3d0     1 3d2+    1 5g0     1 5g4+    1 5g2+    1 5g0  
                                   1 5g4+    1 5g2+ 

   1.1   +    -4.2757  -21.5477  0.999994  0.000051 -0.000021 -0.000041 -0.000016  0.000033 -0.002544  0.000018 -0.003463 -0.000009
                                -0.000489 -0.000002  0.002393  0.000004 -0.000457 -0.000001  0.000075  0.000540  0.000001  0.000093
                                 0.000592  0.000001

   2.1   +    -0.2617   -5.8730  0.000031  0.999955  0.000976 -0.000174 -0.000236  0.000076  0.012974 -0.000010  0.012278  0.000023
                                 0.003146  0.000006 -0.001013 -0.000001  0.001180  0.000002  0.000034 -0.000120 -0.000000  0.000041
                                 0.000171  0.000000

   3.1   +    -0.5437  -13.0370 -0.000018 -0.000002  0.000000 -0.000001  0.000002 -0.000000  0.000937  1.008785 -0.000059 -0.063780
                                -0.000014 -0.015754 -0.000032 -0.034313  0.000002  0.002647  0.000002  0.000003  0.000999  0.000003
                                 0.000004  0.001311

   4.1   +    -0.7024  -13.4844  0.001547 -0.012046 -0.000801 -0.000571  0.000988 -0.000235  0.999313 -0.000929 -0.128611  0.000119
                                -0.033215  0.000031 -0.015592  0.000015  0.001053 -0.000001  0.002275  0.000831  0.000001  0.003213
                                 0.001686  0.000001

                                   1 2px     1 2px     1 2px     1 2px     1 2px     1 2px     1 4f1+    1 4f3+    1 4f1+    1 4f3+ 
                                   1 4f1+    1 4f3+ 

   1.2   +    -2.7616  -18.4265  1.000192  0.014302  0.014973 -0.000491 -0.000707 -0.001080 -0.000331  0.000600  0.000780  0.004127
                                 0.001438  0.003018

                                   1 2py     1 2py     1 2py     1 2py     1 2py     1 2py     1 4f1-    1 4f3-    1 4f1-    1 4f3- 
                                   1 4f1-    1 4f3- 

   1.3   +    -2.7615  -18.4265  1.000192  0.014307  0.014978 -0.000493 -0.000706 -0.001081 -0.000332 -0.000601  0.000774 -0.004124
                                 0.001434 -0.003012

                                   1 3d2-    1 3d2-    1 3d2-    1 3d2-    1 3d2-    1 5g2-    1 5g4-    1 5g2-    1 5g4- 

   1.4   +    -0.6600  -13.3829  1.001780 -0.114456 -0.029607 -0.020104  0.001377  0.001421  0.000005  0.001887  0.000007

                                   1 2pz     1 2pz     1 2pz     1 2pz     1 2pz     1 2pz     1 4f0     1 4f2+    1 4f0     1 4f2+ 
                                   1 4f0     1 4f2+ 

   1.5   +    -2.7685  -18.4434  1.000248  0.012076  0.012809  0.000439 -0.001437 -0.000631 -0.000218  0.000000  0.002257  0.000007
                                 0.002721  0.000006

                                   1 3d1+    1 3d1+    1 3d1+    1 3d1+    1 3d1+    1 5g1+    1 5g3+    1 5g1+    1 5g3+ 

   1.6   +    -0.6916  -13.4594  1.000005 -0.125045 -0.032308 -0.016765  0.001150  0.002161 -0.000524  0.003068 -0.001051

                                   1 3d1-    1 3d1-    1 3d1-    1 3d1-    1 3d1-    1 5g1-    1 5g3-    1 5g1-    1 5g3- 

   1.7   +    -0.6915  -13.4593  1.000008 -0.125024 -0.032303 -0.016772  0.001150  0.002165  0.000529  0.003073  0.001057

 ELECTRON ORBITALS FOR NEGATIVE SPIN
 ===================================


   Orb  Occ    Energy  Couls-En    Coefficients

                                   1 1s      1 1s      1 1s      1 1s      1 1s      1 1s      1 3d0     1 3d2+    1 3d0     1 3d2+ 
                                   1 3d0     1 3d2+    1 3d0     1 3d2+    1 3d0     1 3d2+    1 5g0     1 5g4+    1 5g2+    1 5g0  
                                   1 5g4+    1 5g2+ 

   1.1   -    -4.2757  -21.5477  0.999994  0.000051 -0.000021 -0.000041 -0.000016  0.000033 -0.002544  0.000018 -0.003463 -0.000009
                                -0.000489 -0.000002  0.002393  0.000004 -0.000457 -0.000001  0.000075  0.000540  0.000001  0.000093
                                 0.000592  0.000001

   2.1   -    -0.2617   -5.8730  0.000031  0.999955  0.000976 -0.000174 -0.000236  0.000076  0.012974 -0.000010  0.012278  0.000023
                                 0.003146  0.000006 -0.001013 -0.000001  0.001180  0.000002  0.000034 -0.000120 -0.000000  0.000041
                                 0.000171  0.000000

   3.1   -    -0.5437  -13.0370 -0.000018 -0.000002  0.000000 -0.000001  0.000002 -0.000000  0.000937  1.008785 -0.000059 -0.063780
                                -0.000014 -0.015754 -0.000032 -0.034313  0.000002  0.002647  0.000002  0.000003  0.000999  0.000003
                                 0.000004  0.001311

                                   1 2px     1 2px     1 2px     1 2px     1 2px     1 2px     1 4f1+    1 4f3+    1 4f1+    1 4f3+ 
                                   1 4f1+    1 4f3+ 

   1.2   -    -2.7616  -18.4265  1.000192  0.014302  0.014973 -0.000491 -0.000707 -0.001080 -0.000331  0.000600  0.000780  0.004127
                                 0.001438  0.003018

                                   1 2py     1 2py     1 2py     1 2py     1 2py     1 2py     1 4f1-    1 4f3-    1 4f1-    1 4f3- 
                                   1 4f1-    1 4f3- 

   1.3   -    -2.7615  -18.4265  1.000192  0.014307  0.014978 -0.000493 -0.000706 -0.001081 -0.000332 -0.000601  0.000774 -0.004124
                                 0.001434 -0.003012

                                   1 2pz     1 2pz     1 2pz     1 2pz     1 2pz     1 2pz     1 4f0     1 4f2+    1 4f0     1 4f2+ 
                                   1 4f0     1 4f2+ 

   1.5   -    -2.7685  -18.4434  1.000248  0.012076  0.012809  0.000439 -0.001437 -0.000631 -0.000218  0.000000  0.002257  0.000007
                                 0.002721  0.000006

 HOMO     -3.1    -0.543652 =     -14.7935eV
 LUMO     -4.1    -0.702430 =     -19.1141eV
 LUMO-HOMO        -0.158778 =      -4.3206eV

 EXPECTATION VALUE OF S**2:             6.00000000

 Occupation number threshold for canonical orbitals:  1.999000 (occupied),  0.001000 (virtual)

 Number of pseudo-canonical orbitals per symmetry:    3   1   1   0   1   0   0   0
 Number of active natural orbitals per symmetry:      1   0   0   1   0   1   1   0

 NATURAL CHARGE ORBITALS
 =======================


   Orb     Occ        Energy       Coefficients

                                   1 1s      1 1s      1 1s      1 1s      1 1s      1 1s      1 3d0     1 3d2+    1 3d0     1 3d2+ 
                                   1 3d0     1 3d2+    1 3d0     1 3d2+    1 3d0     1 3d2+    1 5g0     1 5g4+    1 5g2+    1 5g0  
                                   1 5g4+    1 5g2+ 

   1.1  2.00000    -4.275686     0.999994  0.000051 -0.000021 -0.000041 -0.000016  0.000033 -0.002544  0.000018 -0.003463 -0.000009
                                -0.000489 -0.000002  0.002393  0.000004 -0.000457 -0.000001  0.000075  0.000540  0.000001  0.000093
                                 0.000592  0.000001

   2.1  2.00000    -0.543652    -0.000017 -0.000002  0.000000 -0.000001  0.000002 -0.000000  0.000937  1.008785 -0.000059 -0.063780
                                -0.000014 -0.015754 -0.000032 -0.034313  0.000002  0.002647  0.000002  0.000003  0.000999  0.000003
                                 0.000004  0.001311

   3.1  2.00000    -0.261702     0.000031  0.999955  0.000976 -0.000174 -0.000236  0.000076  0.012974 -0.000010  0.012278  0.000023
                                 0.003146  0.000006 -0.001013 -0.000001  0.001180  0.000002  0.000034 -0.000120 -0.000000  0.000041
                                 0.000171  0.000000

   4.1  1.00000    -0.189064     0.001547 -0.012046 -0.000801 -0.000571  0.000988 -0.000235  0.999313 -0.000929 -0.128611  0.000119
                                -0.033215  0.000031 -0.015592  0.000015  0.001053 -0.000001  0.002275  0.000831  0.000001  0.003213
                                 0.001686  0.000001

                                   1 2px     1 2px     1 2px     1 2px     1 2px     1 2px     1 4f1+    1 4f3+    1 4f1+    1 4f3+ 
                                   1 4f1+    1 4f3+ 

   1.2  2.00000    -2.761563     1.000192  0.014302  0.014973 -0.000491 -0.000707 -0.001080 -0.000331  0.000600  0.000780  0.004127
                                 0.001438  0.003018

                                   1 2py     1 2py     1 2py     1 2py     1 2py     1 2py     1 4f1-    1 4f3-    1 4f1-    1 4f3- 
                                   1 4f1-    1 4f3- 

   1.3  2.00000    -2.761546     1.000192  0.014307  0.014978 -0.000493 -0.000706 -0.001081 -0.000332 -0.000601  0.000774 -0.004124
                                 0.001434 -0.003012

                                   1 3d2-    1 3d2-    1 3d2-    1 3d2-    1 3d2-    1 5g2-    1 5g4-    1 5g2-    1 5g4- 

   1.4  1.00000    -0.141666     1.001780 -0.114456 -0.029607 -0.020104  0.001377  0.001421  0.000005  0.001887  0.000007

                                   1 2pz     1 2pz     1 2pz     1 2pz     1 2pz     1 2pz     1 4f0     1 4f2+    1 4f0     1 4f2+ 
                                   1 4f0     1 4f2+ 

   1.5  2.00000    -2.768477     1.000248  0.012076  0.012809  0.000439 -0.001437 -0.000631 -0.000218  0.000000  0.002257  0.000007
                                 0.002721  0.000006

                                   1 3d1+    1 3d1+    1 3d1+    1 3d1+    1 3d1+    1 5g1+    1 5g3+    1 5g1+    1 5g3+ 

   1.6  1.00000    -0.177168     1.000005 -0.125045 -0.032308 -0.016765  0.001150  0.002161 -0.000524  0.003068 -0.001051

                                   1 3d1-    1 3d1-    1 3d1-    1 3d1-    1 3d1-    1 5g1-    1 5g3-    1 5g1-    1 5g3- 

   1.7  1.00000    -0.177091     1.000008 -0.125024 -0.032303 -0.016772  0.001150  0.002165  0.000529  0.003073  0.001057

 Natural orbitals saved to record    2200.2 (Orbital set 3)

 Orbital spaces for UNO-CAS (Min. occupation: 0.020  Max. occupation: 1.980):

 Closed:        3   1   1   0   1   0   0   0
 Active:        1   0   0   1   0   1   1   0

 No convergence



 **********************************************************************************************************************************
 DATASETS  * FILE   NREC   LENGTH (MB)   RECORD NAMES
              1      20       23.71       500      610      700      900      950      970     1000      129      960     1100   
                                          VAR    BASINP    GEOM    SYMINP    ZMAT    AOBASIS   BASIS     P2S    ABASIS      S 
                                         1400     1410     1420     1200     1210     1080     1600     1650     1300     1700   
                                         EKIN       V       ECP      H0       H01     AOSYM     SMH    MOLCAS    ERIS     OPER   

              2       5        5.35       700     1000      520     2100     2200   
                                         GEOM     BASIS   MCVARS     RHF      UHF  

 PROGRAMS   *        TOTAL       UHF        HF       INT
 CPU TIMES  *         2.72      0.02      0.12      2.49
 REAL TIME  *        15.07 SEC
 DISK USED  *        40.32 MB      
 **********************************************************************************************************************************
 SETTING SCF(I)         =      -122.64708490  AU                              


 PROGRAM * MRCC (General Multireference Coupled Cluster)    Author: M. Kallay, 2000-2005

 ***  Initialisation ***

   0 Spin projections
 
 Molecular orbitals read from record     2200.2  Type=UHF/ALPHA (state 1.1)

 ?Warning: UHF not converged
 Molecular orbitals read from record     2200.2  Type=UHF/BETA (state 1.1)

 ?Warning: UHF not converged
 
 Frozen orbitals:              0 (  0  0  0  0  0  0  0  0)
 Active orbitals:             88 ( 22 12 12  9 12  9  9  3)
 Active electrons:            16
 Spin quantum number:          2.0

 Transformed integrals will be written to file mrcc_35530/fort.55

 Load integrals                2.7 sec
 Transform integrals           3.3 sec
 Storage for integrals:        5889086
 Remaining memory:           *********

 Core energy:               0.00000000
 
 MRCC Input:
     4     0     0     0     3     0     0     1     0     0     0     1     1     0     0     7     0     0   0.000     0   64000
  ex.lev,nsing,ntrip, rest,method,dens,conver,symm, diag, CS ,spatial, HF, ndoub,nacto,nactv, tol, maxex, sacc, freq,  dboc,   mem
  2  2  2  1  0  0  0  0  0  0  0  0  0  0  0  0  0  0  0  0  0  0  2  0  0  0  0  0  0  0  0  0  0  0  2  0  0  0  0  0  0  0  0  0  0  0  1  0  0  0  0  0  0  0  0  2  0  0  0  0  0  0  0  0  0  0  0  1  0  0  0  0  0  0  0  0  1  0  0  0  0  0  0  0  0  0  0  0
 MRCC Input end
 Variable memory released
 MRCC now being run, temporary output in /global/cscratch1/sd/aannabe/mrcc_35530/mrcc.out
 **********************************************************************
                          MRCC program system
 **********************************************************************

                              Written by
  Mihaly Kallay, Zoltan Rolik, Jozsef Csontos, Peter Nagy, Gyula Samu,
      David Mester, Jozsef Csoka, Bernat Szabo, Istvan Ladjanszki,
       Lorant Szegedy, Bence Ladoczki, Klara Petrov, Mate Farkas,
                    Pal D. Mezei, and Bence Hegely

        Department of Physical Chemistry and Materials Science
            Budapest University of Technology and Economics
                  Budapest P.O.Box 91, H-1521 Hungary

                              www.mrcc.hu

                       Release date: May 23, 2018

 ************************ 2018-06-15 15:30:25 *************************
 Executing goldstone...

 Generation of CC equations in terms of H and T...
 Generation of antisymmetrized Goldstone diagrams...
 Number of diagrams in T^1 equations:    15
 Number of diagrams in T^2 equations:    38
 Number of diagrams in T^3 equations:    49
 Number of diagrams in T^4 equations:     5
 Translation of diagrams to factorized equations...
 Optimizing intermediate calculation...
 Number of floating-point operations per iteration step:   5.4162E+12
 Probable CPU time per iteration step (hours):     54.16
 Required memory (Mbytes):   45638.8
 Number of intermediates:                                  80
 Number of intermediates to be stored:                     31
 Length of intermediate file (Mbytes):     248.9

 ************************ 2018-06-15 15:30:26 *************************
 Executing xmrcc...

 **********************************************************************
 CC(3)(4) calculation


 Allocation of****** Mbytes of memory...
 Number of spinorbitals:                   176
 Number of alpha electrons:                       10
 Number of beta electrons:                         6
 Spin multiplicity:                     2
 z-component of spin:  2.0
 Spatial symmetry:                      1
 Convergence criterion:  1.0E-07
 Construction of occupation graphs...
 Number of                     0 -fold excitations:                      1
 Number of                     1 -fold excitations:                    219
 Number of                     2 -fold excitations:                  73449
 Number of                     3 -fold excitations:               14556463
 Total number of configurations:               14630132
 Calculation of coupling coefficients...
 Length of intermediate file (Mbytes):     177.5

 ======================================================================

 Spin case  1   Alpha:  0   Beta:  4
 Number of excitations:                3281430
 Spin case  2   Alpha:  1   Beta:  3
 Number of excitations:              172692480
 Spin case  3   Alpha:  2   Beta:  2
 Number of excitations:              841554306
 Spin case  4   Alpha:  3   Beta:  1
 Number of excitations:              561382176
 Spin case  5   Alpha:  4   Beta:  0
 Number of excitations:               37449720
 Number of                     4 -fold excitations:             1616360112

 Memory requirements /Mbyte/:
               Minimal        Optimal
 Real*8:        282.4980       457.6533
 Integer:        45.9121
 Total:         328.4101       503.5654


 ************************ 2018-06-15 15:30:31 *************************
 Executing mrcc...

 **********************************************************************
 CCSDT(Q) calculation


 OpenMP parallel version is running.
 Number of CPUs:   1
 Allocation of  457.7 Mbytes of memory...
 Number of spinorbitals: 176
 Number of alpha electrons: 10
 Number of beta  electrons:  6
 Spin multiplicity: 2
 z-component of spin:  2.0
 Spatial symmetry: 1
 Convergence criterion:  1.0E-07
 Construction of occupation graphs...
 Number of 0-fold excitations: 1
 Number of 1-fold excitations: 219
 Number of 2-fold excitations: 73449
 Number of 3-fold excitations: 14556463
 Total number of determinants: 14630132
 Calculation of coupling coefficients...
 Initial cluster amplitudes are generated.
 Length of intermediate file (Mbytes):     177.5
 Reading integral list from unit 55...
 Sorting integrals...
 Sorting integrals...
 Sorting integrals...
 Sorting integrals...
 Energy of reference determinant [au]:    -122.647084899597
 Calculation of MP denominators...

 Starting CC iteration...
 ======================================================================
 Norm of residual vector:     2.41510627
 CPU time [min]:     3.103                   Wall time [min]:     3.121

 Iteration  1  CC energy:  -123.23001105  Energy decrease:   0.58292615
 ======================================================================
 Norm of residual vector:     0.50051062
 CPU time [min]:     5.740                   Wall time [min]:     5.764

 Iteration  2  CC energy:  -123.21004405  Energy decrease:   0.01996700
 ======================================================================
 Norm of residual vector:     0.13248881
 CPU time [min]:     8.935                   Wall time [min]:     8.970

 Iteration  3  CC energy:  -123.23532561  Energy decrease:   0.02528157
 ======================================================================
 Norm of residual vector:     0.05336647
 CPU time [min]:    11.755                   Wall time [min]:    11.797

 Iteration  4  CC energy:  -123.24329755  Energy decrease:   0.00797194
 ======================================================================
 Norm of residual vector:     0.02565221
 CPU time [min]:    14.751                   Wall time [min]:    14.799

 Iteration  5  CC energy:  -123.24187556  Energy decrease:   0.00142199
 ======================================================================
 Norm of residual vector:     0.01151346
 CPU time [min]:    17.748                   Wall time [min]:    17.809

 Iteration  6  CC energy:  -123.24120182  Energy decrease:   0.00067375
 ======================================================================
 Norm of residual vector:     0.00608335
 CPU time [min]:    20.331                   Wall time [min]:    20.400

 Iteration  7  CC energy:  -123.24143226  Energy decrease:   0.00023045
 ======================================================================
 Norm of residual vector:     0.00372310
 CPU time [min]:    22.927                   Wall time [min]:    23.007

 Iteration  8  CC energy:  -123.24174024  Energy decrease:   0.00030797
 ======================================================================
 Norm of residual vector:     0.00225567
 CPU time [min]:    25.535                   Wall time [min]:    25.628

 Iteration  9  CC energy:  -123.24178003  Energy decrease:   0.00003979
 ======================================================================
 Norm of residual vector:     0.00143568
 CPU time [min]:    28.375                   Wall time [min]:    28.473

 Iteration 10  CC energy:  -123.24172807  Energy decrease:   0.00005195
 ======================================================================
 Norm of residual vector:     0.00092656
 CPU time [min]:    31.038                   Wall time [min]:    31.146

 Iteration 11  CC energy:  -123.24173461  Energy decrease:   0.00000654
 ======================================================================
 Norm of residual vector:     0.00064248
 CPU time [min]:    34.256                   Wall time [min]:    34.376

 Iteration 12  CC energy:  -123.24175498  Energy decrease:   0.00002037
 ======================================================================
 Norm of residual vector:     0.00045081
 CPU time [min]:    37.246                   Wall time [min]:    37.378

 Iteration 13  CC energy:  -123.24175134  Energy decrease:   0.00000364
 ======================================================================
 Norm of residual vector:     0.00036014
 CPU time [min]:    39.919                   Wall time [min]:    40.061

 Iteration 14  CC energy:  -123.24174348  Energy decrease:   0.00000786
 ======================================================================
 Norm of residual vector:     0.00029430
 CPU time [min]:    43.168                   Wall time [min]:    43.470

 Iteration 15  CC energy:  -123.24174737  Energy decrease:   0.00000388
 ======================================================================
 Norm of residual vector:     0.00023574
 CPU time [min]:    47.143                   Wall time [min]:    47.466

 Iteration 16  CC energy:  -123.24175339  Energy decrease:   0.00000603
 ======================================================================
 Norm of residual vector:     0.00019271
 CPU time [min]:    51.122                   Wall time [min]:    51.451

 Iteration 17  CC energy:  -123.24175054  Energy decrease:   0.00000285
 ======================================================================
 Norm of residual vector:     0.00015509
 CPU time [min]:    55.227                   Wall time [min]:    55.749

 Iteration 18  CC energy:  -123.24174754  Energy decrease:   0.00000299
 ======================================================================
 Norm of residual vector:     0.00011572
 CPU time [min]:    59.154                   Wall time [min]:    59.694

 Iteration 19  CC energy:  -123.24175045  Energy decrease:   0.00000290
 ======================================================================
 Norm of residual vector:     0.00007559
 CPU time [min]:    63.113                   Wall time [min]:    63.662

 Iteration 20  CC energy:  -123.24175111  Energy decrease:   0.00000066
 ======================================================================
 Norm of residual vector:     0.00004651
 CPU time [min]:    67.151                   Wall time [min]:    67.706

 Iteration 21  CC energy:  -123.24175005  Energy decrease:   0.00000106
 ======================================================================
 Norm of residual vector:     0.00002700
 CPU time [min]:    70.945                   Wall time [min]:    71.512

 Iteration 22  CC energy:  -123.24174987  Energy decrease:   0.00000018
 ======================================================================
 Norm of residual vector:     0.00001524
 CPU time [min]:    74.558                   Wall time [min]:    75.132

 Iteration 23  CC energy:  -123.24175019  Energy decrease:   0.00000032
 ======================================================================
 Norm of residual vector:     0.00000808
 CPU time [min]:    78.193                   Wall time [min]:    78.776

 Iteration 24  CC energy:  -123.24175035  Energy decrease:   0.00000016
 ======================================================================
 Norm of residual vector:     0.00000435
 CPU time [min]:    81.944                   Wall time [min]:    82.535

 Iteration 25  CC energy:  -123.24175030  Energy decrease:   0.00000005
 ======================================================================
 Norm of residual vector:     0.00000230
 CPU time [min]:    85.539                   Wall time [min]:    86.137

 Iteration 26  CC energy:  -123.24175025  Energy decrease:   0.00000005
 ======================================================================
 Norm of residual vector:     0.00000111
 CPU time [min]:    89.621                   Wall time [min]:    90.447

 Iteration 27  CC energy:  -123.24175025  Energy decrease:   1.4798E-10
 ======================================================================
 Norm of residual vector:     0.00000059
 CPU time [min]:    93.863                   Wall time [min]:    94.709

 Iteration 28  CC energy:  -123.24175026  Energy decrease:   0.00000001
 ======================================================================
 Norm of residual vector:     0.00000030
 CPU time [min]:    98.030                   Wall time [min]:    99.106

 Iteration 29  CC energy:  -123.24175026  Energy decrease:   1.4893E-11
 ======================================================================
 Norm of residual vector:     0.00000017
 CPU time [min]:   102.130                   Wall time [min]:   103.431

 Iteration 30  CC energy:  -123.24175025  Energy decrease:   2.1101E-09
 ======================================================================
 Norm of residual vector:     0.00000010
 CPU time [min]:   105.471                   Wall time [min]:   106.822

 Iteration 31  CC energy:  -123.24175025  Energy decrease:   3.1443E-10
 ======================================================================

 Iteration has converged in 31 steps.

 Final results:
 Total CCSDT energy [au]:           -123.241750254081
 Total MP2 energy [au]:             -123.230011049770

 Perturbative corrections are calculated...
 ======================================================================
 Spin case  1   Alpha:  0   Beta:  4
 Number of excitations:        3281430
 CPU time [min]:   110.299                   Wall time [min]:   111.655
 ======================================================================
 Spin case  2   Alpha:  1   Beta:  3
 Number of excitations:        172692480
 CPU time [min]:   194.072                   Wall time [min]:   195.425
 ======================================================================
 Spin case  3   Alpha:  2   Beta:  2
 Number of excitations:        841554306
 CPU time [min]:   444.581                   Wall time [min]:   445.940
 ======================================================================
 Spin case  4   Alpha:  3   Beta:  1
 Number of excitations:        561382176
 CPU time [min]:   666.701                   Wall time [min]:   668.073
 ======================================================================
 Spin case  5   Alpha:  4   Beta:  0
 Number of excitations:        37449720
 CPU time [min]:   685.041                   Wall time [min]:   686.422
 ======================================================================
 Number of 4-fold excitations: 1616360112
 CPU time [min]:   685.041                   Wall time [min]:   686.422

 Total CCSDT[Q] energy [au]:        -123.241148531531
 Total CCSDT(Q) energy [au]:        -123.242269210711

 ************************ 2018-06-16 02:56:56 *************************
                      Normal termination of mrcc.
 **********************************************************************
 !CCSDT STATE 1.1 Energy             -123.241750254081
 !MP2 STATE 1.1 Energy               -123.230011049770
 !CCSDT[Q] STATE 1.1 Energy          -123.241148531531
 !CCSDT(Q) STATE 1.1 Energy          -123.242269210711
 
 CPU-time for MRCC:          41102.5 sec
 Elapsed-time for MRCC:      41192.4 sec

 Variable memory set to 8000000000 words,  buffer space   230000 words



 **********************************************************************************************************************************
 DATASETS  * FILE   NREC   LENGTH (MB)   RECORD NAMES
              1      20       23.71       500      610      700      900      950      970     1000      129      960     1100   
                                          VAR    BASINP    GEOM    SYMINP    ZMAT    AOBASIS   BASIS     P2S    ABASIS      S 
                                         1400     1410     1420     1200     1210     1080     1600     1650     1300     1700   
                                         EKIN       V       ECP      H0       H01     AOSYM     SMH    MOLCAS    ERIS     OPER   

              2       5        5.35       700     1000      520     2100     2200   
                                         GEOM     BASIS   MCVARS     RHF      UHF  

 PROGRAMS   *        TOTAL      MRCC       UHF        HF       INT
 CPU TIMES  *     41116.42  41113.69      0.02      0.12      2.49
 REAL TIME  *     41271.12 SEC
 DISK USED  *        40.32 MB      
 **********************************************************************************************************************************
 SETTING POSTHF(I)      =      -123.24226921  AU                              
                                                                                                                                                                                                                                                                

         SCF            POSTHF       EKIN           POT
    -122.6470849   -123.2422692   71.83328297   -18.86321552
                                                  

 CCSDT(Q)/USERDEF energy=   -123.242269210711

        CCSDT(Q)        UHF-SCF         HF-SCF  
   -123.24226921   -122.64708490   -122.64708490
 **********************************************************************************************************************************
 Variable memory released
