
 Primary working directories    : /global/cscratch1/sd/aannabe
 Secondary working directories  : /global/cscratch1/sd/aannabe
 Wavefunction directory         : /global/homes/a/aannabe/wfu/
 Main file repository           : /global/cscratch1/sd/aannabe/

 SHA1      : 2873118e99aab1bc19f5b6fc1784693c06d15c95
 NAME      : 2015.1.8
 ARCHNAME  : linux/x86_64
 FC        : /opt/cray/pe/craype/2.5.5/bin/ftn
 BLASLIB   : -Wl,-_start-group /opt/intel/compilers_and_libraries_2016.3.210/linux/mkl/lib/intel64/libmkl_intel_ilp64.a /opt/intel/compilers_and_libraries_2016.3.210/linux/mkl/lib/intel64/libmkl_intel_thread.a /opt/intel/compilers_and_libraries_2016.3.210/linux/mkl/lib/intel64/libmkl_core.a -Wl,-_end-group
 id        : lbl

 Nodes     nprocs
 nid00504     1

 Using customized tuning parameters: mindgm=8; mindgv=16; mindgc=4; mindgr=1; noblas=0; minvec=7
 default implementation of scratch files=df  

 ***,Fe
 memory,8,g
 gthresh,twoint=1.e-12
 
 gprint,basis,orbitals
 gexpec,ekin,pot
 
 angstrom
 geometry={
 1                                                                               ! Number of atoms
 Fe 0.0 0.0 0.0
 }
 
 basis={
 Including file /global/homes/a/aannabe/docs/accurate/ccECP_D2h/pps/Fe.pp
                                             !include,/global/homes/a/aannabe/docs/accurate/ccECP_D2h/basis/aug-cc-pVnZ/Fe_tz.basis
 Including file /global/homes/a/aannabe/docs/accurate/ccECP_D2h/basis/cc-pVnZ/Fe_tz.basis
 }
 
 {hf
 wf,16,1,4
 occ,4,1,1,1,1,1,1,0
 open,4.1,1.4,1.6,1.7
 sym,1,1,1,3
 }
 scf(i)=energy
 
 _CC_NORM_MAX=2.0
  !NOTE: Perturbative MRCC works only with UHF reference. So, here we will trick MRCC by doing zero UHF iteration right after ROHF.
 
 {uhf
 wf,16,1,4
 occ,4,1,1,1,1,1,1,0
 open,4.1,1.4,1.6,1.7
 sym,1,1,1,3
 maxit,0
 }
 scf(i)=energy
 
 {mrcc,method=CCSDT(Q),dir=mrccdir                                               !,restart=1
 orbital,ignore_error=1                                                          !Ignore the fact that UHF WF is not converged
 maxit,100
 core
 }
 posthf(i)=energy
 
 table,scf,posthf,ekin,pot
 save,3.csv,new
 
 

 Variables initialized (889), CPU time= 0.01 sec
 Commands  initialized (702), CPU time= 0.01 sec, 572 directives.
 Default parameters read. Elapsed time= 0.16 sec

 Checking input...
 Passed
1


                                         ***  PROGRAM SYSTEM MOLPRO  ***
                                       Copyright, TTI GmbH Stuttgart, 2015
                                    Version 2015.1 linked Sep  7 2016 23:09:38


 **********************************************************************************************************************************
 LABEL *   Fe                                                                            
  64 bit serial version                                                                  DATE: 14-Nov-18          TIME: 03:28:24  
 **********************************************************************************************************************************

 SHA1:             2873118e99aab1bc19f5b6fc1784693c06d15c95
 **********************************************************************************************************************************

 THRESHOLDS:

 ZERO    =  1.00D-12  ONEINT  =  1.00D-12  TWOINT  =  1.00D-12  PREFAC  =  1.00D-14  LOCALI  =  1.00D-09  EORDER  =  1.00D-04
 ENERGY  =  0.00D+00  ETEST   =  0.00D+00  EDENS   =  0.00D+00  THRDEDEF=  1.00D-06  GRADIENT=  1.00D-02  STEP    =  1.00D-03
 ORBITAL =  1.00D-05  CIVEC   =  1.00D-05  COEFF   =  1.00D-04  PRINTCI =  5.00D-02  PUNCHCI =  9.90D+01  OPTGRAD =  3.00D-04
 OPTENERG=  1.00D-06  OPTSTEP =  3.00D-04  THRGRAD =  1.00D-10  COMPRESS=  1.00D-11  VARMIN  =  1.00D-07  VARMAX  =  1.00D-03
 THRDOUB =  0.00D+00  THRDIV  =  1.00D-05  THRRED  =  1.00D-07  THRPSP  =  1.00D+00  THRDC   =  1.00D-10  THRCS   =  1.00D-10
 THRNRM  =  1.00D-08  THREQ   =  0.00D+00  THRDE   =  1.00D+00  THRREF  =  1.00D-05  SPARFAC =  1.00D+00  THRDLP  =  1.00D-07
 THRDIA  =  1.00D-10  THRDLS  =  1.00D-07  THRGPS  =  0.00D+00  THRKEX  =  0.00D+00  THRDIS  =  2.00D-01  THRVAR  =  1.00D-10
 THRLOC  =  1.00D-06  THRGAP  =  1.00D-06  THRLOCT = -1.00D+00  THRGAPT = -1.00D+00  THRORB  =  1.00D-06  THRMLTP =  0.00D+00
 THRCPQCI=  1.00D-10  KEXTA   =  0.00D+00  THRCOARS=  0.00D+00  SYMTOL  =  1.00D-06  GRADTOL =  1.00D-06  THROVL  =  1.00D-08
 THRORTH =  1.00D-08  GRID    =  1.00D-06  GRIDMAX =  1.00D-03  DTMAX   =  0.00D+00  THROCCDE=  1.00D-01  THROCCDE=  1.00D-01



 ZUNIT=ANG
 

Geometry recognized as XYZ


 Variable memory set to 8000000000 words,  buffer space   230000 words

 SETTING BASIS          =    USERDEF


 Recomputing integrals since basis changed


 Using spherical harmonics



 PROGRAM * SEWARD (Integral evaluation for generally contracted gaussian basis sets)     Author: Roland Lindh, 1990

 Geometry written to block  1 of record 700

 Orientation using atomic masses  
 Molecule type: Atom
 Symmetry elements: X,Y,Z
 Rotational constants:       0.0000000      0.0000000      0.0000000 GHz  (calculated with average atomic masses)

 Point group  D2h 



 ATOMIC COORDINATES

 NR  ATOM    CHARGE       X              Y              Z

   1  FE     16.00    0.000000000    0.000000000    0.000000000


          FE  CORE POTENTIAL

          d POTENTIAL

 POWERS             1              3              2              2
 EXPONENTIALS   23.22092       23.54715       23.47256       9.852388    
 COEFFICIENTS   16.00000       371.5347      -181.2260      -2.373052    

          s - d POTENTIAL

 POWERS             2              2
 EXPONENTIALS   22.21063       9.515158    
 COEFFICIENTS   277.5003       46.20496    

          p - d POTENTIAL

 POWERS             2              2
 EXPONENTIALS   24.57001       8.866488    
 COEFFICIENTS   194.9988       31.67945    


 BASIS DATA

   Nr Sym  Nuc  Type         Exponents   Contraction coefficients

    1.1 Ag    1  1s          84.322332     0.000785   -0.000162    0.000002    0.000012    0.000000
    2.1 Ag                   44.203528    -0.012781    0.002921    0.004103    0.007598    0.000000
    3.1 Ag                   23.288963     0.104635   -0.025466   -0.046840   -0.094133    0.000000
    4.1 Ag                   13.385163    -0.119385    0.031182    0.052833    0.127655    0.000000
    5.1 Ag                    7.518052    -0.339804    0.086849    0.218094    0.435598    0.000000
                              4.101835    -0.049994    0.006846   -0.044999   -0.147911    0.000000
                              2.253571     0.476955   -0.131856   -0.287386   -1.084477    0.000000
                              1.134924     0.593222   -0.227746   -0.713220   -0.887003    0.000000
                              0.561550     0.200151   -0.173079    0.249174    2.449946    0.000000
                              0.201961     0.008591    0.136142    1.299872    0.167976    0.000000
                              0.108698    -0.002188    0.434013    0.192119   -2.114668    0.000000
                              0.053619     0.000677    0.477555   -0.658616    0.452579    0.000000
                              0.025823    -0.000144    0.128804   -0.521047    0.801444    1.000000
    6.1 Ag    1  1s           1.360370     1.000000
    7.1 Ag    1  1s           3.337166     1.000000
    8.1 Ag    1  3d0        152.736742     0.000029
                             50.772485     0.005238
                             26.253589     0.029325
                             12.137022     0.074901
                              5.853719     0.163411
                              2.856224     0.251057
                              1.386132     0.287603
                              0.670802     0.251862
                              0.330280     0.186736
                              0.170907     0.093570
                              0.086794     0.073811
    9.1 Ag    1  3d2+       152.736742     0.000029
                             50.772485     0.005238
                             26.253589     0.029325
                             12.137022     0.074901
                              5.853719     0.163411
                              2.856224     0.251057
                              1.386132     0.287603
                              0.670802     0.251862
                              0.330280     0.186736
                              0.170907     0.093570
                              0.086794     0.073811
   10.1 Ag    1  3d0        152.736742    -0.000026
                             50.772485    -0.006329
                             26.253589    -0.034398
                             12.137022    -0.091765
                              5.853719    -0.201592
                              2.856224    -0.283930
                              1.386132    -0.161981
                              0.670802     0.128822
                              0.330280     0.360160
                              0.170907     0.277592
                              0.086794     0.261403
   11.1 Ag    1  3d2+       152.736742    -0.000026
                             50.772485    -0.006329
                             26.253589    -0.034398
                             12.137022    -0.091765
                              5.853719    -0.201592
                              2.856224    -0.283930
                              1.386132    -0.161981
                              0.670802     0.128822
                              0.330280     0.360160
                              0.170907     0.277592
                              0.086794     0.261403
   12.1 Ag    1  3d0        152.736742     0.000051
                             50.772485     0.008769
                             26.253589     0.047921
                             12.137022     0.132475
                              5.853719     0.297279
                              2.856224     0.275018
                              1.386132    -0.222842
                              0.670802    -0.619067
                              0.330280    -0.076290
                              0.170907     0.256056
                              0.086794     0.541482
   13.1 Ag    1  3d2+       152.736742     0.000051
                             50.772485     0.008769
                             26.253589     0.047921
                             12.137022     0.132475
                              5.853719     0.297279
                              2.856224     0.275018
                              1.386132    -0.222842
                              0.670802    -0.619067
                              0.330280    -0.076290
                              0.170907     0.256056
                              0.086794     0.541482
   14.1 Ag    1  3d0        152.736742     0.000000
                             50.772485     0.000000
                             26.253589     0.000000
                             12.137022     0.000000
                              5.853719     0.000000
                              2.856224     0.000000
                              1.386132     0.000000
                              0.670802     0.000000
                              0.330280     0.000000
                              0.170907     0.000000
                              0.086794     1.000000
   15.1 Ag    1  3d2+       152.736742     0.000000
                             50.772485     0.000000
                             26.253589     0.000000
                             12.137022     0.000000
                              5.853719     0.000000
                              2.856224     0.000000
                              1.386132     0.000000
                              0.670802     0.000000
                              0.330280     0.000000
                              0.170907     0.000000
                              0.086794     1.000000
   16.1 Ag    1  3d0          2.185217     1.000000
   17.1 Ag    1  3d2+         2.185217     1.000000
   18.1 Ag    1  3d0          3.894144     1.000000
   19.1 Ag    1  3d2+         3.894144     1.000000
   20.1 Ag    1  5g0          2.137024     1.000000
   21.1 Ag    1  5g4+         2.137024     1.000000
   22.1 Ag    1  5g2+         2.137024     1.000000
   23.1 Ag    1  5g0          5.501497     1.000000
   24.1 Ag    1  5g4+         5.501497     1.000000
   25.1 Ag    1  5g2+         5.501497     1.000000
    1.2 B3u   1  2px        125.092775     0.000056    0.000025   -0.000197    0.000264    0.000000
    2.2 B3u                  65.211589    -0.000572   -0.000070    0.001251   -0.001076    0.000000
    3.2 B3u                  34.437599     0.007388   -0.001042   -0.009154   -0.002591    0.000000
    4.2 B3u                  18.930704    -0.028481    0.005127    0.038201    0.035519    0.000000
    5.2 B3u                  10.873415    -0.063005    0.018404    0.043097    0.119554    0.000000
                              6.012172     0.024855   -0.014692   -0.029475   -0.204714    0.000000
                              3.372205     0.277474   -0.061307   -0.426996   -0.760627    0.000000
                              1.768641     0.425386   -0.128638   -0.394840   -0.262740    0.000000
                              0.914516     0.314145   -0.070637    0.077230    1.779030    0.000000
                              0.460895     0.090422   -0.016314    1.119881   -0.462742    0.000000
                              0.204490     0.006977    0.380702   -0.066494   -1.241030    0.000000
                              0.074741     0.001154    0.523071   -0.721583    0.940987    0.000000
                              0.035671     0.000303    0.235765   -0.005695    0.083496    1.000000
    6.2 B3u   1  2px          1.604522     1.000000
    7.2 B3u   1  2px          6.253507     1.000000
    8.2 B3u   1  4f1+         0.824745     1.000000
    9.2 B3u   1  4f3+         0.824745     1.000000
   10.2 B3u   1  4f1+         3.385699     1.000000
   11.2 B3u   1  4f3+         3.385699     1.000000
   12.2 B3u   1  4f1+         7.308585     1.000000
   13.2 B3u   1  4f3+         7.308585     1.000000
    1.3 B2u   1  2py        125.092775     0.000056    0.000025   -0.000197    0.000264    0.000000
    2.3 B2u                  65.211589    -0.000572   -0.000070    0.001251   -0.001076    0.000000
    3.3 B2u                  34.437599     0.007388   -0.001042   -0.009154   -0.002591    0.000000
    4.3 B2u                  18.930704    -0.028481    0.005127    0.038201    0.035519    0.000000
    5.3 B2u                  10.873415    -0.063005    0.018404    0.043097    0.119554    0.000000
                              6.012172     0.024855   -0.014692   -0.029475   -0.204714    0.000000
                              3.372205     0.277474   -0.061307   -0.426996   -0.760627    0.000000
                              1.768641     0.425386   -0.128638   -0.394840   -0.262740    0.000000
                              0.914516     0.314145   -0.070637    0.077230    1.779030    0.000000
                              0.460895     0.090422   -0.016314    1.119881   -0.462742    0.000000
                              0.204490     0.006977    0.380702   -0.066494   -1.241030    0.000000
                              0.074741     0.001154    0.523071   -0.721583    0.940987    0.000000
                              0.035671     0.000303    0.235765   -0.005695    0.083496    1.000000
    6.3 B2u   1  2py          1.604522     1.000000
    7.3 B2u   1  2py          6.253507     1.000000
    8.3 B2u   1  4f1-         0.824745     1.000000
    9.3 B2u   1  4f3-         0.824745     1.000000
   10.3 B2u   1  4f1-         3.385699     1.000000
   11.3 B2u   1  4f3-         3.385699     1.000000
   12.3 B2u   1  4f1-         7.308585     1.000000
   13.3 B2u   1  4f3-         7.308585     1.000000
    1.4 B1g   1  3d2-       152.736742     0.000029   -0.000026    0.000051    0.000000
    2.4 B1g                  50.772485     0.005238   -0.006329    0.008769    0.000000
    3.4 B1g                  26.253589     0.029325   -0.034398    0.047921    0.000000
    4.4 B1g                  12.137022     0.074901   -0.091765    0.132475    0.000000
                              5.853719     0.163411   -0.201592    0.297279    0.000000
                              2.856224     0.251057   -0.283930    0.275018    0.000000
                              1.386132     0.287603   -0.161981   -0.222842    0.000000
                              0.670802     0.251862    0.128822   -0.619067    0.000000
                              0.330280     0.186736    0.360160   -0.076290    0.000000
                              0.170907     0.093570    0.277592    0.256056    0.000000
                              0.086794     0.073811    0.261403    0.541482    1.000000
    5.4 B1g   1  3d2-         2.185217     1.000000
    6.4 B1g   1  3d2-         3.894144     1.000000
    7.4 B1g   1  5g2-         2.137024     1.000000
    8.4 B1g   1  5g4-         2.137024     1.000000
    9.4 B1g   1  5g2-         5.501497     1.000000
   10.4 B1g   1  5g4-         5.501497     1.000000
    1.5 B1u   1  2pz        125.092775     0.000056    0.000025   -0.000197    0.000264    0.000000
    2.5 B1u                  65.211589    -0.000572   -0.000070    0.001251   -0.001076    0.000000
    3.5 B1u                  34.437599     0.007388   -0.001042   -0.009154   -0.002591    0.000000
    4.5 B1u                  18.930704    -0.028481    0.005127    0.038201    0.035519    0.000000
    5.5 B1u                  10.873415    -0.063005    0.018404    0.043097    0.119554    0.000000
                              6.012172     0.024855   -0.014692   -0.029475   -0.204714    0.000000
                              3.372205     0.277474   -0.061307   -0.426996   -0.760627    0.000000
                              1.768641     0.425386   -0.128638   -0.394840   -0.262740    0.000000
                              0.914516     0.314145   -0.070637    0.077230    1.779030    0.000000
                              0.460895     0.090422   -0.016314    1.119881   -0.462742    0.000000
                              0.204490     0.006977    0.380702   -0.066494   -1.241030    0.000000
                              0.074741     0.001154    0.523071   -0.721583    0.940987    0.000000
                              0.035671     0.000303    0.235765   -0.005695    0.083496    1.000000
    6.5 B1u   1  2pz          1.604522     1.000000
    7.5 B1u   1  2pz          6.253507     1.000000
    8.5 B1u   1  4f0          0.824745     1.000000
    9.5 B1u   1  4f2+         0.824745     1.000000
   10.5 B1u   1  4f0          3.385699     1.000000
   11.5 B1u   1  4f2+         3.385699     1.000000
   12.5 B1u   1  4f0          7.308585     1.000000
   13.5 B1u   1  4f2+         7.308585     1.000000
    1.6 B2g   1  3d1+       152.736742     0.000029   -0.000026    0.000051    0.000000
    2.6 B2g                  50.772485     0.005238   -0.006329    0.008769    0.000000
    3.6 B2g                  26.253589     0.029325   -0.034398    0.047921    0.000000
    4.6 B2g                  12.137022     0.074901   -0.091765    0.132475    0.000000
                              5.853719     0.163411   -0.201592    0.297279    0.000000
                              2.856224     0.251057   -0.283930    0.275018    0.000000
                              1.386132     0.287603   -0.161981   -0.222842    0.000000
                              0.670802     0.251862    0.128822   -0.619067    0.000000
                              0.330280     0.186736    0.360160   -0.076290    0.000000
                              0.170907     0.093570    0.277592    0.256056    0.000000
                              0.086794     0.073811    0.261403    0.541482    1.000000
    5.6 B2g   1  3d1+         2.185217     1.000000
    6.6 B2g   1  3d1+         3.894144     1.000000
    7.6 B2g   1  5g1+         2.137024     1.000000
    8.6 B2g   1  5g3+         2.137024     1.000000
    9.6 B2g   1  5g1+         5.501497     1.000000
   10.6 B2g   1  5g3+         5.501497     1.000000
    1.7 B3g   1  3d1-       152.736742     0.000029   -0.000026    0.000051    0.000000
    2.7 B3g                  50.772485     0.005238   -0.006329    0.008769    0.000000
    3.7 B3g                  26.253589     0.029325   -0.034398    0.047921    0.000000
    4.7 B3g                  12.137022     0.074901   -0.091765    0.132475    0.000000
                              5.853719     0.163411   -0.201592    0.297279    0.000000
                              2.856224     0.251057   -0.283930    0.275018    0.000000
                              1.386132     0.287603   -0.161981   -0.222842    0.000000
                              0.670802     0.251862    0.128822   -0.619067    0.000000
                              0.330280     0.186736    0.360160   -0.076290    0.000000
                              0.170907     0.093570    0.277592    0.256056    0.000000
                              0.086794     0.073811    0.261403    0.541482    1.000000
    5.7 B3g   1  3d1-         2.185217     1.000000
    6.7 B3g   1  3d1-         3.894144     1.000000
    7.7 B3g   1  5g1-         2.137024     1.000000
    8.7 B3g   1  5g3-         2.137024     1.000000
    9.7 B3g   1  5g1-         5.501497     1.000000
   10.7 B3g   1  5g3-         5.501497     1.000000
    1.8 Au    1  4f2-         0.824745     1.000000
    2.8 Au    1  4f2-         3.385699     1.000000
    3.8 Au    1  4f2-         7.308585     1.000000

 NUCLEAR CHARGE:                   16
 NUMBER OF PRIMITIVE AOS:         198
 NUMBER OF SYMMETRY AOS:          164
 NUMBER OF CONTRACTIONS:           97   (  25Ag  +  13B3u +  13B2u +  10B1g +  13B1u +  10B2g +  10B3g +   3Au  )
 NUMBER OF CORE ORBITALS:           4   (   1Ag  +   1B3u +   1B2u +   0B1g +   1B1u +   0B2g +   0B3g +   0Au  )
 NUMBER OF VALENCE ORBITALS:        6   (   3Ag  +   0B3u +   0B2u +   1B1g +   0B1u +   1B2g +   1B3g +   0Au  )


 NUCLEAR REPULSION ENERGY    0.00000000

 EXTRA SYMMETRY OF AOS IN SYMMETRY 1:   1 1 1 1 1 1 1 2 3 2   3 2 3 2 3 2 3 2 3 4   5 6 4 5 6
 EXTRA SYMMETRY OF AOS IN SYMMETRY 2:   1 1 1 1 1 1 1 2 3 2   3 2 3
 EXTRA SYMMETRY OF AOS IN SYMMETRY 3:   1 1 1 1 1 1 1 2 3 2   3 2 3
 EXTRA SYMMETRY OF AOS IN SYMMETRY 4:   1 1 1 1 1 1 2 3 2 3
 EXTRA SYMMETRY OF AOS IN SYMMETRY 5:   1 1 1 1 1 1 1 2 3 2   3 2 3
 EXTRA SYMMETRY OF AOS IN SYMMETRY 6:   1 1 1 1 1 1 2 3 2 3
 EXTRA SYMMETRY OF AOS IN SYMMETRY 7:   1 1 1 1 1 1 2 3 2 3

 Eigenvalues of metric

         1 0.312E-02 0.125E-01 0.204E-01 0.204E-01 0.362E-01 0.362E-01 0.112E+00 0.112E+00
         2 0.289E-02 0.763E-01 0.219E+00 0.233E+00 0.233E+00 0.758E+00 0.919E+00 0.919E+00
         3 0.289E-02 0.763E-01 0.219E+00 0.233E+00 0.233E+00 0.758E+00 0.919E+00 0.919E+00
         4 0.204E-01 0.362E-01 0.112E+00 0.447E+00 0.447E+00 0.108E+01 0.155E+01 0.155E+01
         5 0.289E-02 0.763E-01 0.219E+00 0.233E+00 0.233E+00 0.758E+00 0.919E+00 0.919E+00
         6 0.204E-01 0.362E-01 0.112E+00 0.447E+00 0.447E+00 0.108E+01 0.155E+01 0.155E+01
         7 0.204E-01 0.362E-01 0.112E+00 0.447E+00 0.447E+00 0.108E+01 0.155E+01 0.155E+01
         8 0.233E+00 0.919E+00 0.185E+01


 Contracted 2-electron integrals neglected if value below      1.0D-12
 AO integral compression algorithm  1   Integral accuracy      1.0D-12

     14.156 MB (compressed) written to integral file ( 65.3%)


 NUMBER OF SORTED TWO-ELECTRON INTEGRALS:    1497820.     BUFFER LENGTH:  32768
 NUMBER OF SEGMENTS:   1  SEGMENT LENGTH:    1497820      RECORD LENGTH: 524288

 Memory used in sort:       2.05 MW

 SORT1 READ     2746375. AND WROTE     1138997. INTEGRALS IN      4 RECORDS. CPU TIME:     0.07 SEC, REAL TIME:     0.11 SEC
 SORT2 READ     1138997. AND WROTE     1497820. INTEGRALS IN     54 RECORDS. CPU TIME:     0.10 SEC, REAL TIME:     0.19 SEC

 FILE SIZES:   FILE 1:    33.5 MBYTE,  FILE 4:    16.8 MBYTE,   TOTAL:     50.3 MBYTE

 OPERATOR DM      FOR CENTER  0  COORDINATES:    0.000000    0.000000    0.000000
 OPERATOR EKIN    FOR CENTER  0  COORDINATES:    0.000000    0.000000    0.000000
 OPERATOR POT     FOR CENTER  0  COORDINATES:    0.000000    0.000000    0.000000


 **********************************************************************************************************************************
 DATASETS  * FILE   NREC   LENGTH (MB)   RECORD NAMES
              1      20       26.89       500      610      700      900      950      970     1000      129      960     1100   
                                          VAR    BASINP    GEOM    SYMINP    ZMAT    AOBASIS   BASIS     P2S    ABASIS      S 
                                         1400     1410     1420     1200     1210     1080     1600     1650     1300     1700   
                                         EKIN       V       ECP      H0       H01     AOSYM     SMH    MOLCAS    ERIS     OPER   

 PROGRAMS   *        TOTAL       INT
 CPU TIMES  *         3.76      3.62
 REAL TIME  *        14.98 SEC
 DISK USED  *        50.59 MB      
 **********************************************************************************************************************************


 PROGRAM * RHF-SCF (OPEN SHELL)       Authors: W. Meyer, H.-J. Werner


 NUMBER OF ELECTRONS:      10+    6-    SPACE SYMMETRY=1    SPIN SYMMETRY: Quintet 
 CONVERGENCE THRESHOLDS:    1.00E-05 (Density)    1.00E-07 (Energy)
 MAX. NUMBER OF ITERATIONS:       60
 INTERPOLATION TYPE:            DIIS
 INTERPOLATION STEPS:              2 (START)      1 (STEP)
 LEVEL SHIFTS:                 -0.60 (CLOSED) -0.30 (OPEN) 


 Singly occupied orbitals:      4.1       1.4       1.6       1.7
 
 Extra symmetries of mos in symmetry 1:   1   1   3

   Atom=FE basis=ECP10MDF_GUESS    lmin=0  lmax=2

 Orbital guess generated from atomic densities. Full valence occupancy:    4   1   1   1   1   1   1   0


 Molecular orbital dump at record        2100.2

 ITERATION    DDIFF          GRAD             ENERGY        2-EL.EN.            DIPOLE MOMENTS         DIIS   ORB.
    1      0.000D+00      0.000D+00      -122.53245219    179.479852    0.00000    0.00000    0.00000    0    start
    2      0.000D+00      0.316D-01      -122.62547232    188.473736    0.00000    0.00000    0.00000    1    diag,B
    3      0.115D-01      0.217D-01      -122.64458622    186.543488    0.00000    0.00000    0.00000    2    diag,B
    4      0.327D-02      0.480D-02      -122.64685997    186.400433    0.00000    0.00000    0.00000    3    diag,B
    5      0.152D-02      0.904D-03      -122.64711957    186.388452    0.00000    0.00000    0.00000    4    diag,B
    6      0.113D-02      0.254D-03      -122.64716365    186.348176    0.00000    0.00000    0.00000    5    diag,B
    7      0.655D-03      0.103D-03      -122.64717384    186.327204    0.00000    0.00000    0.00000    6    fixocc
    8      0.326D-03      0.470D-04      -122.64717656    186.318780    0.00000    0.00000    0.00000    7    diag,B
    9      0.639D-03      0.179D-04      -122.64717700    186.315529    0.00000    0.00000    0.00000    8    diag,B
   10      0.381D-03      0.504D-05      -122.64717702    186.315481    0.00000    0.00000    0.00000    9    orth
   11      0.687D-04      0.170D-05      -122.64717702    186.315420    0.00000    0.00000    0.00000    9    diag,B
   12      0.773D-05      0.833D-06      -122.64717702    186.315418    0.00000    0.00000    0.00000    0    orth

 Final alpha occupancy:   4   1   1   1   1   1   1   0
 Final beta  occupancy:   3   1   1   0   1   0   0   0

 !RHF STATE 1.1 Energy               -122.647177020550
 Nuclear energy                         0.00000000
 One-electron energy                 -215.80488585
 Two-electron energy                   93.15770882
 Virial quotient                       -1.70676927
 !RHF STATE 1.1 Dipole moment           0.00000000     0.00000000     0.00000000
 Dipole moment /Debye                   0.00000000     0.00000000     0.00000000
 

 !RHF expec          <1.1|EKIN|1.1>    71.859260144015
 
 !RHF expec           <1.1|POT|1.1>   -18.865431892656

 ELECTRON ORBITALS
 =================


   Orb  Occ    Energy  Couls-En    Coefficients

                                   1 1s      1 1s      1 1s      1 1s      1 1s      1 1s      1 1s      1 3d0     1 3d2+    1 3d0  
                                   1 3d2+    1 3d0     1 3d2+    1 3d0     1 3d2+    1 3d0     1 3d2+    1 3d0     1 3d2+    1 5g0  
                                   1 5g4+    1 5g2+    1 5g0     1 5g4+    1 5g2+ 

   1.1   2    -4.2756  -21.5474  0.999912  0.000041 -0.000006 -0.000029  0.000035  0.000124 -0.000061 -0.004087  0.000052 -0.001300
                                -0.000018  0.000414 -0.000000  0.000484  0.000002  0.001991  0.000012  0.000390  0.000002  0.000098
                                 0.000641  0.000003  0.000025  0.000140  0.000001

   2.1   2    -0.2616   -5.8721  0.000010  1.000008  0.000692 -0.000105 -0.000248  0.000027 -0.000007  0.013895 -0.000041  0.011870
                                 0.000079  0.002918  0.000020  0.000332  0.000004 -0.000266 -0.000001 -0.000051 -0.000000  0.000047
                                 0.000132  0.000001  0.000004  0.000024  0.000000

   3.1   2    -0.5437  -13.0392 -0.000057  0.000002  0.000002 -0.000001  0.000002 -0.000004  0.000002  0.003212  1.011306 -0.000225
                                -0.071314 -0.000063 -0.019903 -0.000081 -0.025601 -0.000017 -0.005280 -0.000001 -0.000242  0.000009
                                 0.000013  0.001307  0.000002  0.000003  0.000290

   4.1   +    -0.7023  -13.4843  0.001984 -0.012234 -0.001030 -0.000385  0.000031 -0.000447  0.000256  1.000204 -0.003177 -0.131996
                                 0.000417 -0.035633  0.000113 -0.011309  0.000036 -0.002908  0.000010  0.000645 -0.000002  0.003133
                                 0.001565  0.000002  0.000763  0.000417  0.000000

                                   1 2px     1 2px     1 2px     1 2px     1 2px     1 2px     1 2px     1 4f1+    1 4f3+    1 4f1+ 
                                   1 4f3+    1 4f1+    1 4f3+ 

   1.2   2    -2.7615  -18.4264  1.005750  0.015539  0.014249  0.001229 -0.003787 -0.006037  0.000999  0.000689  0.004417  0.001471
                                 0.002543 -0.000019  0.000548

                                   1 2py     1 2py     1 2py     1 2py     1 2py     1 2py     1 2py     1 4f1-    1 4f3-    1 4f1- 
                                   1 4f3-    1 4f1-    1 4f3- 

   1.3   2    -2.7615  -18.4263  1.005764  0.015561  0.014264  0.001228 -0.003792 -0.006053  0.001003  0.000667 -0.004406  0.001462
                                -0.002522 -0.000023 -0.000548

                                   1 3d2-    1 3d2-    1 3d2-    1 3d2-    1 3d2-    1 3d2-    1 5g2-    1 5g4-    1 5g2-    1 5g4- 


   1.4   +    -0.6598  -13.3830  1.003063 -0.118681 -0.032373 -0.014893 -0.003421  0.000423  0.001859  0.000023  0.000442  0.000005

                                   1 2pz     1 2pz     1 2pz     1 2pz     1 2pz     1 2pz     1 2pz     1 4f0     1 4f2+    1 4f0  
                                   1 4f2+    1 4f0     1 4f2+ 

   1.5   2    -2.7683  -18.4430  1.003907  0.012749  0.012369  0.001381 -0.003175 -0.003855  0.000427  0.002226  0.000024  0.002606
                                 0.000020  0.000147  0.000002

                                   1 3d1+    1 3d1+    1 3d1+    1 3d1+    1 3d1+    1 3d1+    1 5g1+    1 5g3+    1 5g1+    1 5g3+ 


   1.6   +    -0.6915  -13.4594  1.001026 -0.128651 -0.034839 -0.012214 -0.003072  0.000592  0.002983 -0.000967  0.000727 -0.000258

                                   1 3d1-    1 3d1-    1 3d1-    1 3d1-    1 3d1-    1 3d1-    1 5g1-    1 5g3-    1 5g1-    1 5g3- 


   1.7   +    -0.6913  -13.4589  1.001040 -0.128584 -0.034822 -0.012232 -0.003074  0.000591  0.002999  0.000989  0.000731  0.000263

 HOMO      1.4    -0.659837 =     -17.9551eV
 LUMO      2.5     0.033526 =       0.9123eV
 LUMO-HOMO         0.693363 =      18.8674eV


 **********************************************************************************************************************************
 DATASETS  * FILE   NREC   LENGTH (MB)   RECORD NAMES
              1      20       26.89       500      610      700      900      950      970     1000      129      960     1100   
                                          VAR    BASINP    GEOM    SYMINP    ZMAT    AOBASIS   BASIS     P2S    ABASIS      S 
                                         1400     1410     1420     1200     1210     1080     1600     1650     1300     1700   
                                         EKIN       V       ECP      H0       H01     AOSYM     SMH    MOLCAS    ERIS     OPER   

              2       4        2.81       700     1000      520     2100   
                                         GEOM     BASIS   MCVARS     RHF  

 PROGRAMS   *        TOTAL        HF       INT
 CPU TIMES  *         3.91      0.15      3.62
 REAL TIME  *        15.37 SEC
 DISK USED  *        50.59 MB      
 **********************************************************************************************************************************
 SETTING SCF(I)         =      -122.64717702  AU                              
 SETTING _CC_NORM_MAX   =         2.00000000                                  


 PROGRAM * UHF-SCF       Authors: W. Meyer, H.-J. Werner


 NUMBER OF ELECTRONS:      10+    6-    SPACE SYMMETRY=1    SPIN SYMMETRY: Quintet 
 CONVERGENCE THRESHOLDS:    1.00E-05 (Density)    1.00E-07 (Energy)
 MAX. NUMBER OF ITERATIONS:        0
 INTERPOLATION TYPE:            DIIS
 INTERPOLATION STEPS:              2 (START)      1 (STEP)
 LEVEL SHIFTS:                  0.20 (ALPHA)   0.20 (BETA) 


 Singly occupied orbitals:      4.1       1.4       1.6       1.7
 
 Extra symmetries of mos in symmetry 1:   1   1   3
 Molecular orbitals read from record     2100.2  Type=RHF/CANONICAL (state 1.1)

 Molecular orbital dump at record        2200.2

 Initial alpha occupation   4   1   1   1   1   1   1   0
 Initial beta  occupation   3   1   1   0   1   0   0   0

 ITERATION    DDIFF          GRAD             ENERGY        2-EL.EN.            DIPOLE MOMENTS         DIIS
    1      0.000D+00      0.000D+00      -122.64717702    186.315418    0.00000    0.00000    0.00000    0
 
 Final alpha occupancy:   4   1   1   1   1   1   1   0
 Final beta  occupancy:   3   1   1   0   1   0   0   0

 !UHF STATE 1.1 Energy               -122.647177020550
 Nuclear energy                         0.00000000
 One-electron energy                 -215.80488585
 Two-electron energy                   93.15770882
 Virial quotient                       -1.70676927
 !UHF STATE 1.1 Dipole moment           0.00000000     0.00000000     0.00000000
 Dipole moment /Debye                   0.00000000     0.00000000     0.00000000
 

 !UHF expec          <1.1|EKIN|1.1>    71.859260144015
 
 !UHF expec           <1.1|POT|1.1>   -18.865431892656

 ELECTRON ORBITALS FOR POSITIVE SPIN
 ===================================


   Orb  Occ    Energy  Couls-En    Coefficients

                                   1 1s      1 1s      1 1s      1 1s      1 1s      1 1s      1 1s      1 3d0     1 3d2+    1 3d0  
                                   1 3d2+    1 3d0     1 3d2+    1 3d0     1 3d2+    1 3d0     1 3d2+    1 3d0     1 3d2+    1 5g0  
                                   1 5g4+    1 5g2+    1 5g0     1 5g4+    1 5g2+ 

   1.1   +    -4.2756  -21.5474  0.999912  0.000041 -0.000006 -0.000029  0.000035  0.000124 -0.000061 -0.004087  0.000052 -0.001300
                                -0.000018  0.000414 -0.000000  0.000484  0.000002  0.001991  0.000012  0.000390  0.000002  0.000098
                                 0.000641  0.000003  0.000025  0.000140  0.000001

   2.1   +    -0.2616   -5.8721  0.000010  1.000008  0.000692 -0.000105 -0.000248  0.000027 -0.000007  0.013895 -0.000041  0.011870
                                 0.000079  0.002918  0.000020  0.000332  0.000004 -0.000266 -0.000001 -0.000051 -0.000000  0.000047
                                 0.000132  0.000001  0.000004  0.000024  0.000000

   3.1   +    -0.5437  -13.0392 -0.000057  0.000002  0.000002 -0.000001  0.000002 -0.000004  0.000002  0.003212  1.011306 -0.000225
                                -0.071314 -0.000063 -0.019903 -0.000081 -0.025601 -0.000017 -0.005280 -0.000001 -0.000242  0.000009
                                 0.000013  0.001307  0.000002  0.000003  0.000290

   4.1   +    -0.7023  -13.4843  0.001984 -0.012234 -0.001030 -0.000385  0.000031 -0.000447  0.000256  1.000204 -0.003177 -0.131996
                                 0.000417 -0.035633  0.000113 -0.011309  0.000036 -0.002908  0.000010  0.000645 -0.000002  0.003133
                                 0.001565  0.000002  0.000763  0.000417  0.000000

                                   1 2px     1 2px     1 2px     1 2px     1 2px     1 2px     1 2px     1 4f1+    1 4f3+    1 4f1+ 
                                   1 4f3+    1 4f1+    1 4f3+ 

   1.2   +    -2.7615  -18.4264  1.005750  0.015539  0.014249  0.001229 -0.003787 -0.006037  0.000999  0.000689  0.004417  0.001471
                                 0.002543 -0.000019  0.000548

                                   1 2py     1 2py     1 2py     1 2py     1 2py     1 2py     1 2py     1 4f1-    1 4f3-    1 4f1- 
                                   1 4f3-    1 4f1-    1 4f3- 

   1.3   +    -2.7615  -18.4263  1.005764  0.015561  0.014264  0.001228 -0.003792 -0.006053  0.001003  0.000667 -0.004406  0.001462
                                -0.002522 -0.000023 -0.000548

                                   1 3d2-    1 3d2-    1 3d2-    1 3d2-    1 3d2-    1 3d2-    1 5g2-    1 5g4-    1 5g2-    1 5g4- 


   1.4   +    -0.6598  -13.3830  1.003063 -0.118681 -0.032373 -0.014893 -0.003421  0.000423  0.001859  0.000023  0.000442  0.000005

                                   1 2pz     1 2pz     1 2pz     1 2pz     1 2pz     1 2pz     1 2pz     1 4f0     1 4f2+    1 4f0  
                                   1 4f2+    1 4f0     1 4f2+ 

   1.5   +    -2.7683  -18.4430  1.003907  0.012749  0.012369  0.001381 -0.003175 -0.003855  0.000427  0.002226  0.000024  0.002606
                                 0.000020  0.000147  0.000002

                                   1 3d1+    1 3d1+    1 3d1+    1 3d1+    1 3d1+    1 3d1+    1 5g1+    1 5g3+    1 5g1+    1 5g3+ 


   1.6   +    -0.6915  -13.4594  1.001026 -0.128651 -0.034839 -0.012214 -0.003072  0.000592  0.002983 -0.000967  0.000727 -0.000258

                                   1 3d1-    1 3d1-    1 3d1-    1 3d1-    1 3d1-    1 3d1-    1 5g1-    1 5g3-    1 5g1-    1 5g3- 


   1.7   +    -0.6913  -13.4589  1.001040 -0.128584 -0.034822 -0.012232 -0.003074  0.000591  0.002999  0.000989  0.000731  0.000263

 ELECTRON ORBITALS FOR NEGATIVE SPIN
 ===================================


   Orb  Occ    Energy  Couls-En    Coefficients

                                   1 1s      1 1s      1 1s      1 1s      1 1s      1 1s      1 1s      1 3d0     1 3d2+    1 3d0  
                                   1 3d2+    1 3d0     1 3d2+    1 3d0     1 3d2+    1 3d0     1 3d2+    1 3d0     1 3d2+    1 5g0  
                                   1 5g4+    1 5g2+    1 5g0     1 5g4+    1 5g2+ 

   1.1   -    -4.2756  -21.5474  0.999912  0.000041 -0.000006 -0.000029  0.000035  0.000124 -0.000061 -0.004087  0.000052 -0.001300
                                -0.000018  0.000414 -0.000000  0.000484  0.000002  0.001991  0.000012  0.000390  0.000002  0.000098
                                 0.000641  0.000003  0.000025  0.000140  0.000001

   2.1   -    -0.2616   -5.8721  0.000010  1.000008  0.000692 -0.000105 -0.000248  0.000027 -0.000007  0.013895 -0.000041  0.011870
                                 0.000079  0.002918  0.000020  0.000332  0.000004 -0.000266 -0.000001 -0.000051 -0.000000  0.000047
                                 0.000132  0.000001  0.000004  0.000024  0.000000

   3.1   -    -0.5437  -13.0392 -0.000057  0.000002  0.000002 -0.000001  0.000002 -0.000004  0.000002  0.003212  1.011306 -0.000225
                                -0.071314 -0.000063 -0.019903 -0.000081 -0.025601 -0.000017 -0.005280 -0.000001 -0.000242  0.000009
                                 0.000013  0.001307  0.000002  0.000003  0.000290

                                   1 2px     1 2px     1 2px     1 2px     1 2px     1 2px     1 2px     1 4f1+    1 4f3+    1 4f1+ 
                                   1 4f3+    1 4f1+    1 4f3+ 

   1.2   -    -2.7615  -18.4264  1.005750  0.015539  0.014249  0.001229 -0.003787 -0.006037  0.000999  0.000689  0.004417  0.001471
                                 0.002543 -0.000019  0.000548

                                   1 2py     1 2py     1 2py     1 2py     1 2py     1 2py     1 2py     1 4f1-    1 4f3-    1 4f1- 
                                   1 4f3-    1 4f1-    1 4f3- 

   1.3   -    -2.7615  -18.4263  1.005764  0.015561  0.014264  0.001228 -0.003792 -0.006053  0.001003  0.000667 -0.004406  0.001462
                                -0.002522 -0.000023 -0.000548

                                   1 2pz     1 2pz     1 2pz     1 2pz     1 2pz     1 2pz     1 2pz     1 4f0     1 4f2+    1 4f0  
                                   1 4f2+    1 4f0     1 4f2+ 

   1.5   -    -2.7683  -18.4430  1.003907  0.012749  0.012369  0.001381 -0.003175 -0.003855  0.000427  0.002226  0.000024  0.002606
                                 0.000020  0.000147  0.000002

 HOMO     -3.1    -0.543722 =     -14.7954eV
 LUMO     -4.1    -0.702309 =     -19.1108eV
 LUMO-HOMO        -0.158587 =      -4.3154eV

 EXPECTATION VALUE OF S**2:             6.00000000

 Occupation number threshold for canonical orbitals:  1.999000 (occupied),  0.001000 (virtual)

 Number of pseudo-canonical orbitals per symmetry:    3   1   1   0   1   0   0   0
 Number of active natural orbitals per symmetry:      1   0   0   1   0   1   1   0

 NATURAL CHARGE ORBITALS
 =======================


   Orb     Occ        Energy       Coefficients

                                   1 1s      1 1s      1 1s      1 1s      1 1s      1 1s      1 1s      1 3d0     1 3d2+    1 3d0  
                                   1 3d2+    1 3d0     1 3d2+    1 3d0     1 3d2+    1 3d0     1 3d2+    1 3d0     1 3d2+    1 5g0  
                                   1 5g4+    1 5g2+    1 5g0     1 5g4+    1 5g2+ 

   1.1  2.00000    -4.275569     0.999912  0.000040 -0.000006 -0.000029  0.000035  0.000124 -0.000061 -0.004087  0.000051 -0.001300
                                -0.000018  0.000414 -0.000000  0.000484  0.000002  0.001991  0.000012  0.000390  0.000002  0.000098
                                 0.000641  0.000003  0.000025  0.000140  0.000001

   2.1  2.00000    -0.543722    -0.000057  0.000002  0.000002 -0.000001  0.000002 -0.000004  0.000002  0.003212  1.011306 -0.000225
                                -0.071314 -0.000063 -0.019903 -0.000081 -0.025601 -0.000017 -0.005280 -0.000001 -0.000242  0.000009
                                 0.000013  0.001307  0.000002  0.000003  0.000290

   3.1  2.00000    -0.261635     0.000010  1.000008  0.000692 -0.000105 -0.000248  0.000027 -0.000007  0.013895 -0.000041  0.011870
                                 0.000079  0.002918  0.000020  0.000332  0.000004 -0.000266 -0.000001 -0.000051 -0.000000  0.000047
                                 0.000132  0.000001  0.000004  0.000024  0.000000

   4.1  1.00000    -0.188965     0.001984 -0.012234 -0.001030 -0.000385  0.000031 -0.000447  0.000256  1.000204 -0.003177 -0.131996
                                 0.000417 -0.035633  0.000113 -0.011309  0.000036 -0.002908  0.000010  0.000645 -0.000002  0.003133
                                 0.001565  0.000002  0.000763  0.000417  0.000000

                                   1 2px     1 2px     1 2px     1 2px     1 2px     1 2px     1 2px     1 4f1+    1 4f3+    1 4f1+ 
                                   1 4f3+    1 4f1+    1 4f3+ 

   1.2  2.00000    -2.761525     1.005750  0.015539  0.014249  0.001229 -0.003787 -0.006037  0.000999  0.000689  0.004417  0.001471
                                 0.002543 -0.000019  0.000548

                                   1 2py     1 2py     1 2py     1 2py     1 2py     1 2py     1 2py     1 4f1-    1 4f3-    1 4f1- 
                                   1 4f3-    1 4f1-    1 4f3- 

   1.3  2.00000    -2.761467     1.005764  0.015561  0.014264  0.001228 -0.003792 -0.006053  0.001003  0.000667 -0.004406  0.001462
                                -0.002522 -0.000023 -0.000548

                                   1 3d2-    1 3d2-    1 3d2-    1 3d2-    1 3d2-    1 3d2-    1 5g2-    1 5g4-    1 5g2-    1 5g4- 


   1.4  1.00000    -0.141543     1.003063 -0.118681 -0.032373 -0.014893 -0.003421  0.000423  0.001859  0.000023  0.000442  0.000005

                                   1 2pz     1 2pz     1 2pz     1 2pz     1 2pz     1 2pz     1 2pz     1 4f0     1 4f2+    1 4f0  
                                   1 4f2+    1 4f0     1 4f2+ 

   1.5  2.00000    -2.768347     1.003907  0.012749  0.012369  0.001381 -0.003175 -0.003855  0.000427  0.002226  0.000024  0.002606
                                 0.000020  0.000147  0.000002

                                   1 3d1+    1 3d1+    1 3d1+    1 3d1+    1 3d1+    1 3d1+    1 5g1+    1 5g3+    1 5g1+    1 5g3+ 


   1.6  1.00000    -0.177158     1.001026 -0.128651 -0.034839 -0.012214 -0.003072  0.000592  0.002983 -0.000967  0.000727 -0.000258

                                   1 3d1-    1 3d1-    1 3d1-    1 3d1-    1 3d1-    1 3d1-    1 5g1-    1 5g3-    1 5g1-    1 5g3- 


   1.7  1.00000    -0.176897     1.001040 -0.128584 -0.034822 -0.012232 -0.003074  0.000591  0.002999  0.000989  0.000731  0.000263

 Natural orbitals saved to record    2200.2 (Orbital set 3)

 Orbital spaces for UNO-CAS (Min. occupation: 0.020  Max. occupation: 1.980):

 Closed:        3   1   1   0   1   0   0   0
 Active:        1   0   0   1   0   1   1   0

 No convergence



 **********************************************************************************************************************************
 DATASETS  * FILE   NREC   LENGTH (MB)   RECORD NAMES
              1      20       26.89       500      610      700      900      950      970     1000      129      960     1100   
                                          VAR    BASINP    GEOM    SYMINP    ZMAT    AOBASIS   BASIS     P2S    ABASIS      S 
                                         1400     1410     1420     1200     1210     1080     1600     1650     1300     1700   
                                         EKIN       V       ECP      H0       H01     AOSYM     SMH    MOLCAS    ERIS     OPER   

              2       5        5.38       700     1000      520     2100     2200   
                                         GEOM     BASIS   MCVARS     RHF      UHF  

 PROGRAMS   *        TOTAL       UHF        HF       INT
 CPU TIMES  *         3.94      0.02      0.15      3.62
 REAL TIME  *        15.51 SEC
 DISK USED  *        50.59 MB      
 **********************************************************************************************************************************
 SETTING SCF(I)         =      -122.64717702  AU                              


 PROGRAM * MRCC (General Multireference Coupled Cluster)    Author: M. Kallay, 2000-2005

 ***  Initialisation ***

   0 Spin projections
 
 Molecular orbitals read from record     2200.2  Type=UHF/ALPHA (state 1.1)

 ?Warning: UHF not converged
 Molecular orbitals read from record     2200.2  Type=UHF/BETA (state 1.1)

 ?Warning: UHF not converged
 
 Frozen orbitals:              0 (  0  0  0  0  0  0  0  0)
 Active orbitals:             97 ( 25 13 13 10 13 10 10  3)
 Active electrons:            16
 Spin quantum number:          2.0

 Transformed integrals will be written to file mrccdir/mrcc_60990/fort.55

 Load integrals                4.0 sec
 Transform integrals           4.9 sec
 Storage for integrals:        8677739
 Remaining memory:           *********

 Core energy:               0.00000000
 
 MRCC Input:
     4     0     0     0     3     0     0     1     0     0     0     1     1     0     0     7     0     0   0.000     0   64000
  ex.lev,nsing,ntrip, rest,method,dens,conver,symm, diag, CS ,spatial, HF, ndoub,nacto,nactv, tol, maxex, sacc, freq,  dboc,   mem
  2  2  2  1  0  0  0  0  0  0  0  0  0  0  0  0  0  0  0  0  0  0  0  0  0  2  0  0  0  0  0  0  0  0  0  0  0  0  2  0  0  0  0  0  0  0  0  0  0  0  0  1  0  0  0  0  0  0  0  0  0  2  0  0  0  0  0  0  0  0  0  0  0  0  1  0  0  0  0  0  0  0  0  0  1  0  0  0  0  0  0  0  0  0  0  0  0
 MRCC Input end
 Variable memory released
 MRCC now being run, temporary output in /global/cscratch1/sd/aannabe/mrccdir/mrcc_60990/mrcc.out
 **********************************************************************
                          MRCC program system
 **********************************************************************

                              Written by
  Mihaly Kallay, Zoltan Rolik, Jozsef Csontos, Peter Nagy, Gyula Samu,
      David Mester, Jozsef Csoka, Bernat Szabo, Istvan Ladjanszki,
       Lorant Szegedy, Bence Ladoczki, Klara Petrov, Mate Farkas,
                    Pal D. Mezei, and Bence Hegely

        Department of Physical Chemistry and Materials Science
            Budapest University of Technology and Economics
                  Budapest P.O.Box 91, H-1521 Hungary

                              www.mrcc.hu

                       Release date: May 23, 2018

 ************************ 2018-11-14 03:30:55 *************************
 Executing goldstone...

 Generation of CC equations in terms of H and T...
 Generation of antisymmetrized Goldstone diagrams...
 Number of diagrams in T^1 equations:    15
 Number of diagrams in T^2 equations:    38
 Number of diagrams in T^3 equations:    49
 Number of diagrams in T^4 equations:     5
 Translation of diagrams to factorized equations...
 Optimizing intermediate calculation...
 Number of floating-point operations per iteration step:   9.1551E+12
 Probable CPU time per iteration step (hours):     91.55
 Required memory (Mbytes):   70178.5
 Number of intermediates:                                  80
 Number of intermediates to be stored:                     31
 Length of intermediate file (Mbytes):     336.7

 ************************ 2018-11-14 03:30:56 *************************
 Executing xmrcc...

 **********************************************************************
 CC(3)(4) calculation


 Allocation of****** Mbytes of memory...
 Number of spinorbitals:                   194
 Number of alpha electrons:                       10
 Number of beta electrons:                         6
 Spin multiplicity:                     2
 z-component of spin:  2.0
 Spatial symmetry:                      1
 Convergence criterion:  1.0E-07
 Construction of occupation graphs...
 Number of                     0 -fold excitations:                      1
 Number of                     1 -fold excitations:                    249
 Number of                     2 -fold excitations:                  91329
 Number of                     3 -fold excitations:               20106198
 Total number of configurations:               20197777
 Calculation of coupling coefficients...
 Length of intermediate file (Mbytes):     241.8

 ======================================================================

 Spin case  1   Alpha:  0   Beta:  4
 Number of excitations:                5011800
 Spin case  2   Alpha:  1   Beta:  3
 Number of excitations:              264231054
 Spin case  3   Alpha:  2   Beta:  2
 Number of excitations:             1292750118
 Spin case  4   Alpha:  3   Beta:  1
 Number of excitations:              867940776
 Spin case  5   Alpha:  4   Beta:  0
 Number of excitations:               58433424
 Number of                     4 -fold excitations:             2488367172

 Memory requirements /Mbyte/:
               Minimal        Optimal
 Real*8:        396.2977       675.5723
 Integer:        61.7499
 Total:         458.0477       737.3222


 ************************ 2018-11-14 03:31:08 *************************
 Executing mrcc...

 **********************************************************************
 CCSDT(Q) calculation


 Allocation of  675.6 Mbytes of memory...
 Number of spinorbitals: 194
 Number of alpha electrons: 10
 Number of beta  electrons:  6
 Spin multiplicity: 2
 z-component of spin:  2.0
 Spatial symmetry: 1
 Convergence criterion:  1.0E-07
 Construction of occupation graphs...
 Number of 0-fold excitations: 1
 Number of 1-fold excitations: 249
 Number of 2-fold excitations: 91329
 Number of 3-fold excitations: 20106198
 Total number of determinants: 20197777
 Calculation of coupling coefficients...
 Initial cluster amplitudes are generated.
 Length of intermediate file (Mbytes):     241.8
 Reading integral list from unit 55...
 Sorting integrals...
 Sorting integrals...
 Sorting integrals...
 Sorting integrals...
 Energy of reference determinant [au]:    -122.647177020550
 Calculation of MP denominators...

 Starting CC iteration...
 ======================================================================
 Norm of residual vector:     2.94662192
 CPU time [min]:     4.938                   Wall time [min]:     4.965

 Iteration  1  CC energy:  -123.29207841  Energy decrease:   0.64490139
 ======================================================================
 Norm of residual vector:     0.62191438
 CPU time [min]:     9.567                   Wall time [min]:     9.656

 Iteration  2  CC energy:  -123.26879132  Energy decrease:   0.02328709
 ======================================================================
 Norm of residual vector:     0.13474644
 CPU time [min]:    14.737                   Wall time [min]:    14.934

 Iteration  3  CC energy:  -123.29629216  Energy decrease:   0.02750084
 ======================================================================
 Norm of residual vector:     0.05571710
 CPU time [min]:    19.854                   Wall time [min]:    20.154

 Iteration  4  CC energy:  -123.30303328  Energy decrease:   0.00674112
 ======================================================================
 Norm of residual vector:     0.02810242
 CPU time [min]:    24.880                   Wall time [min]:    25.205

 Iteration  5  CC energy:  -123.30106282  Energy decrease:   0.00197046
 ======================================================================
 Norm of residual vector:     0.01141088
 CPU time [min]:    30.010                   Wall time [min]:    30.479

 Iteration  6  CC energy:  -123.30035678  Energy decrease:   0.00070603
 ======================================================================
 Norm of residual vector:     0.00639228
 CPU time [min]:    35.083                   Wall time [min]:    35.752

 Iteration  7  CC energy:  -123.30071821  Energy decrease:   0.00036142
 ======================================================================
 Norm of residual vector:     0.00359766
 CPU time [min]:    40.033                   Wall time [min]:    40.904

 Iteration  8  CC energy:  -123.30103451  Energy decrease:   0.00031631
 ======================================================================
 Norm of residual vector:     0.00231182
 CPU time [min]:    44.916                   Wall time [min]:    45.967

 Iteration  9  CC energy:  -123.30102591  Energy decrease:   0.00000860
 ======================================================================
 Norm of residual vector:     0.00151329
 CPU time [min]:    49.819                   Wall time [min]:    50.888

 Iteration 10  CC energy:  -123.30096602  Energy decrease:   0.00005989
 ======================================================================
 Norm of residual vector:     0.00102719
 CPU time [min]:    54.919                   Wall time [min]:    57.303

 Iteration 11  CC energy:  -123.30099383  Energy decrease:   0.00002781
 ======================================================================
 Norm of residual vector:     0.00067544
 CPU time [min]:    60.861                   Wall time [min]:    63.445

 Iteration 12  CC energy:  -123.30100974  Energy decrease:   0.00001591
 ======================================================================
 Norm of residual vector:     0.00049973
 CPU time [min]:    66.690                   Wall time [min]:    69.531

 Iteration 13  CC energy:  -123.30099551  Energy decrease:   0.00001423
 ======================================================================
 Norm of residual vector:     0.00038600
 CPU time [min]:    72.775                   Wall time [min]:    75.932

 Iteration 14  CC energy:  -123.30099401  Energy decrease:   0.00000150
 ======================================================================
 Norm of residual vector:     0.00030342
 CPU time [min]:    78.570                   Wall time [min]:    82.056

 Iteration 15  CC energy:  -123.30100351  Energy decrease:   0.00000950
 ======================================================================
 Norm of residual vector:     0.00024731
 CPU time [min]:    84.516                   Wall time [min]:    88.273

 Iteration 16  CC energy:  -123.30100215  Energy decrease:   0.00000136
 ======================================================================
 Norm of residual vector:     0.00020019
 CPU time [min]:    90.786                   Wall time [min]:    94.830

 Iteration 17  CC energy:  -123.30099879  Energy decrease:   0.00000336
 ======================================================================
 Norm of residual vector:     0.00015501
 CPU time [min]:    97.051                   Wall time [min]:   101.376

 Iteration 18  CC energy:  -123.30100134  Energy decrease:   0.00000255
 ======================================================================
 Norm of residual vector:     0.00009887
 CPU time [min]:   103.325                   Wall time [min]:   107.884

 Iteration 19  CC energy:  -123.30100167  Energy decrease:   0.00000033
 ======================================================================
 Norm of residual vector:     0.00005364
 CPU time [min]:   109.682                   Wall time [min]:   114.545

 Iteration 20  CC energy:  -123.30100061  Energy decrease:   0.00000106
 ======================================================================
 Norm of residual vector:     0.00002930
 CPU time [min]:   116.108                   Wall time [min]:   121.209

 Iteration 21  CC energy:  -123.30100057  Energy decrease:   0.00000004
 ======================================================================
 Norm of residual vector:     0.00001548
 CPU time [min]:   122.600                   Wall time [min]:   127.965

 Iteration 22  CC energy:  -123.30100098  Energy decrease:   0.00000041
 ======================================================================
 Norm of residual vector:     0.00000780
 CPU time [min]:   129.109                   Wall time [min]:   134.776

 Iteration 23  CC energy:  -123.30100112  Energy decrease:   0.00000014
 ======================================================================
 Norm of residual vector:     0.00000405
 CPU time [min]:   135.597                   Wall time [min]:   141.599

 Iteration 24  CC energy:  -123.30100108  Energy decrease:   0.00000005
 ======================================================================
 Norm of residual vector:     0.00000206
 CPU time [min]:   142.188                   Wall time [min]:   148.501

 Iteration 25  CC energy:  -123.30100104  Energy decrease:   0.00000004
 ======================================================================
 Norm of residual vector:     0.00000105
 CPU time [min]:   148.663                   Wall time [min]:   155.327

 Iteration 26  CC energy:  -123.30100104  Energy decrease:   3.1784E-09
 ======================================================================
 Norm of residual vector:     0.00000049
 CPU time [min]:   155.175                   Wall time [min]:   162.212

 Iteration 27  CC energy:  -123.30100105  Energy decrease:   0.00000001
 ======================================================================
 Norm of residual vector:     0.00000025
 CPU time [min]:   161.636                   Wall time [min]:   169.047

 Iteration 28  CC energy:  -123.30100105  Energy decrease:   5.5456E-10
 ======================================================================
 Norm of residual vector:     0.00000013
 CPU time [min]:   168.111                   Wall time [min]:   176.200

 Iteration 29  CC energy:  -123.30100105  Energy decrease:   2.6221E-09
 ======================================================================
 Norm of residual vector:     0.00000006
 CPU time [min]:   173.501                   Wall time [min]:   181.683

 Iteration 30  CC energy:  -123.30100105  Energy decrease:   8.5154E-10
 ======================================================================

 Iteration has converged in 30 steps.

 Final results:
 Total CCSDT energy [au]:           -123.301001049901
 Total MP2 energy [au]:             -123.292078407553

 Perturbative corrections are calculated...
 ======================================================================
 Spin case  1   Alpha:  0   Beta:  4
 Number of excitations:        5011800
 CPU time [min]:   185.068                   Wall time [min]:   193.269
 ======================================================================
 Spin case  2   Alpha:  1   Beta:  3
 Number of excitations:        264231054
 CPU time [min]:   408.846                   Wall time [min]:   417.100
 ======================================================================
 Spin case  3   Alpha:  2   Beta:  2
 Number of excitations:        1292750118
 CPU time [min]:  1077.990                   Wall time [min]:  1086.301
 ======================================================================
 Spin case  4   Alpha:  3   Beta:  1
 Number of excitations:        867940776
 CPU time [min]:  1478.424                   Wall time [min]:  1486.799
 ======================================================================
 Spin case  5   Alpha:  4   Beta:  0
 Number of excitations:        58433424
 CPU time [min]:  1507.392                   Wall time [min]:  1515.791
 ======================================================================
 Number of 4-fold excitations: 2488367172
 CPU time [min]:  1507.392                   Wall time [min]:  1515.800

 Total CCSDT[Q] energy [au]:        -123.300622984092
 Total CCSDT(Q) energy [au]:        -123.301573604438

 ************************ 2018-11-15 04:46:56 *************************
                      Normal termination of mrcc.
 **********************************************************************
 !CCSDT STATE 1.1 Energy             -123.301001049901
 !MP2 STATE 1.1 Energy               -123.292078407553
 !CCSDT[Q] STATE 1.1 Energy          -123.300622984092
 !CCSDT(Q) STATE 1.1 Energy          -123.301573604438
 
 CPU-time for MRCC:          90443.5 sec
 Elapsed-time for MRCC:      90962.8 sec

 Variable memory set to 8000000000 words,  buffer space   230000 words



 **********************************************************************************************************************************
 DATASETS  * FILE   NREC   LENGTH (MB)   RECORD NAMES
              1      20       26.89       500      610      700      900      950      970     1000      129      960     1100   
                                          VAR    BASINP    GEOM    SYMINP    ZMAT    AOBASIS   BASIS     P2S    ABASIS      S 
                                         1400     1410     1420     1200     1210     1080     1600     1650     1300     1700   
                                         EKIN       V       ECP      H0       H01     AOSYM     SMH    MOLCAS    ERIS     OPER   

              2       5        5.38       700     1000      520     2100     2200   
                                         GEOM     BASIS   MCVARS     RHF      UHF  

 PROGRAMS   *        TOTAL      MRCC       UHF        HF       INT
 CPU TIMES  *     90471.83  90467.89      0.02      0.15      3.62
 REAL TIME  *     91112.36 SEC
 DISK USED  *        50.59 MB      
 **********************************************************************************************************************************
 SETTING POSTHF(I)      =      -123.30157360  AU                              
                                                                                                                                                                                                                                                                

         SCF            POSTHF       EKIN           POT
    -122.6471770   -123.3015736   71.85926014   -18.86543189
                                                  

 CCSDT(Q)/USERDEF energy=   -123.301573604438

        CCSDT(Q)        UHF-SCF         HF-SCF  
   -123.30157360   -122.64717702   -122.64717702
 **********************************************************************************************************************************
 Variable memory released
