
 Primary working directories    : /global/cscratch1/sd/aannabe
 Secondary working directories  : /global/cscratch1/sd/aannabe
 Wavefunction directory         : /global/homes/a/aannabe/wfu/
 Main file repository           : /global/cscratch1/sd/aannabe/

 SHA1      : 2873118e99aab1bc19f5b6fc1784693c06d15c95
 NAME      : 2015.1.8
 ARCHNAME  : linux/x86_64
 FC        : /opt/cray/pe/craype/2.5.5/bin/ftn
 BLASLIB   : -Wl,-_start-group /opt/intel/compilers_and_libraries_2016.3.210/linux/mkl/lib/intel64/libmkl_intel_ilp64.a /opt/intel/compilers_and_libraries_2016.3.210/linux/mkl/lib/intel64/libmkl_intel_thread.a /opt/intel/compilers_and_libraries_2016.3.210/linux/mkl/lib/intel64/libmkl_core.a -Wl,-_end-group
 id        : lbl

 Nodes     nprocs
 nid00458     1

 Using customized tuning parameters: mindgm=8; mindgv=16; mindgc=4; mindgr=1; noblas=0; minvec=7
 default implementation of scratch files=df  

 ***,Fe
 memory,512,m
 gthresh,twoint=1.e-12
 
 gprint,basis,orbitals
 gexpec,ekin,pot
 
 angstrom
 geometry={
 1                                                                               ! Number of atoms
 Fe 0.0 0.0 0.0
 }
 
 basis={
 Including file /global/homes/a/aannabe/docs/totals/pps/Fe.pp
 Including file /global/homes/a/aannabe/docs/totals/basis/aug-cc-pVnZ/Fe_qz.basis
 }
 
 {hf
 wf,16,1,4
 occ,4,1,1,1,1,1,1,0
 open,4.1,1.4,1.6,1.7
 sym,1,1,1,3
 }
 scf(i)=energy
 
 _CC_NORM_MAX=2.0
 {rccsd(t)
 maxit,100
 core
 }
 posthf(i)=energy
 
 table,scf,posthf,ekin,pot
 save,4.csv,new
 
 

 Variables initialized (889), CPU time= 0.00 sec
 Commands  initialized (702), CPU time= 0.02 sec, 572 directives.
 Default parameters read. Elapsed time= 0.20 sec

 Checking input...
 Passed
1


                                         ***  PROGRAM SYSTEM MOLPRO  ***
                                       Copyright, TTI GmbH Stuttgart, 2015
                                    Version 2015.1 linked Sep  7 2016 23:09:38


 **********************************************************************************************************************************
 LABEL *   Fe                                                                            
  64 bit serial version                                                                  DATE: 12-Jun-18          TIME: 14:02:37  
 **********************************************************************************************************************************

 SHA1:             2873118e99aab1bc19f5b6fc1784693c06d15c95
 **********************************************************************************************************************************

 THRESHOLDS:

 ZERO    =  1.00D-12  ONEINT  =  1.00D-12  TWOINT  =  1.00D-12  PREFAC  =  1.00D-14  LOCALI  =  1.00D-09  EORDER  =  1.00D-04
 ENERGY  =  0.00D+00  ETEST   =  0.00D+00  EDENS   =  0.00D+00  THRDEDEF=  1.00D-06  GRADIENT=  1.00D-02  STEP    =  1.00D-03
 ORBITAL =  1.00D-05  CIVEC   =  1.00D-05  COEFF   =  1.00D-04  PRINTCI =  5.00D-02  PUNCHCI =  9.90D+01  OPTGRAD =  3.00D-04
 OPTENERG=  1.00D-06  OPTSTEP =  3.00D-04  THRGRAD =  1.00D-10  COMPRESS=  1.00D-11  VARMIN  =  1.00D-07  VARMAX  =  1.00D-03
 THRDOUB =  0.00D+00  THRDIV  =  1.00D-05  THRRED  =  1.00D-07  THRPSP  =  1.00D+00  THRDC   =  1.00D-10  THRCS   =  1.00D-10
 THRNRM  =  1.00D-08  THREQ   =  0.00D+00  THRDE   =  1.00D+00  THRREF  =  1.00D-05  SPARFAC =  1.00D+00  THRDLP  =  1.00D-07
 THRDIA  =  1.00D-10  THRDLS  =  1.00D-07  THRGPS  =  0.00D+00  THRKEX  =  0.00D+00  THRDIS  =  2.00D-01  THRVAR  =  1.00D-10
 THRLOC  =  1.00D-06  THRGAP  =  1.00D-06  THRLOCT = -1.00D+00  THRGAPT = -1.00D+00  THRORB  =  1.00D-06  THRMLTP =  0.00D+00
 THRCPQCI=  1.00D-10  KEXTA   =  0.00D+00  THRCOARS=  0.00D+00  SYMTOL  =  1.00D-06  GRADTOL =  1.00D-06  THROVL  =  1.00D-08
 THRORTH =  1.00D-08  GRID    =  1.00D-06  GRIDMAX =  1.00D-03  DTMAX   =  0.00D+00  THROCCDE=  1.00D-01  THROCCDE=  1.00D-01



 ZUNIT=ANG
 

Geometry recognized as XYZ


 Variable memory set to  512000000 words,  buffer space   230000 words

 SETTING BASIS          =    USERDEF


 Recomputing integrals since basis changed


 Using spherical harmonics



 PROGRAM * SEWARD (Integral evaluation for generally contracted gaussian basis sets)     Author: Roland Lindh, 1990

 Geometry written to block  1 of record 700

 Orientation using atomic masses  
 Molecule type: Atom
 Symmetry elements: X,Y,Z
 Rotational constants:       0.0000000      0.0000000      0.0000000 GHz  (calculated with average atomic masses)

 Point group  D2h 



 ATOMIC COORDINATES

 NR  ATOM    CHARGE       X              Y              Z

   1  FE     16.00    0.000000000    0.000000000    0.000000000


          FE  CORE POTENTIAL

          d POTENTIAL

 POWERS             1              3              2              2
 EXPONENTIALS   23.22092       23.54715       23.47256       9.852388    
 COEFFICIENTS   16.00000       371.5347      -181.2260      -2.373052    

          s - d POTENTIAL

 POWERS             2              2
 EXPONENTIALS   22.21063       9.515158    
 COEFFICIENTS   277.5003       46.20496    

          p - d POTENTIAL

 POWERS             2              2
 EXPONENTIALS   24.57001       8.866488    
 COEFFICIENTS   194.9988       31.67945    


 BASIS DATA

   Nr Sym  Nuc  Type         Exponents   Contraction coefficients

    1.1 Ag    1  1s          84.322332     0.000785   -0.000162    0.000002    0.000012    0.003301    0.000000
    2.1 Ag                   44.203528    -0.012781    0.002921    0.004103    0.007598   -0.029197    0.000000
    3.1 Ag                   23.288963     0.104635   -0.025466   -0.046840   -0.094133    0.213227    0.000000
    4.1 Ag                   13.385163    -0.119385    0.031182    0.052833    0.127655   -0.408109    0.000000
    5.1 Ag                    7.518052    -0.339804    0.086849    0.218094    0.435598   -0.385651    0.000000
    6.1 Ag                    4.101835    -0.049994    0.006846   -0.044999   -0.147911    0.168093    0.000000
                              2.253571     0.476955   -0.131856   -0.287386   -1.084477    3.102529    0.000000
                              1.134924     0.593222   -0.227746   -0.713220   -0.887003   -3.360446    0.000000
                              0.561550     0.200151   -0.173079    0.249174    2.449946   -0.531619    0.000000
                              0.201961     0.008591    0.136142    1.299872    0.167976    4.493981    0.000000
                              0.108698    -0.002188    0.434013    0.192119   -2.114668   -3.689750    0.000000
                              0.053619     0.000677    0.477555   -0.658616    0.452579   -0.510604    0.000000
                              0.025823    -0.000144    0.128804   -0.521047    0.801444    1.301021    1.000000
    7.1 Ag    1  1s           0.012000     1.000000
    8.1 Ag    1  3d0        152.736742     0.000029
                             50.772485     0.005238
                             26.253589     0.029325
                             12.137022     0.074901
                              5.853719     0.163411
                              2.856224     0.251057
                              1.386132     0.287603
                              0.670802     0.251862
                              0.330280     0.186736
                              0.170907     0.093570
                              0.086794     0.073811
    9.1 Ag    1  3d2+       152.736742     0.000029
                             50.772485     0.005238
                             26.253589     0.029325
                             12.137022     0.074901
                              5.853719     0.163411
                              2.856224     0.251057
                              1.386132     0.287603
                              0.670802     0.251862
                              0.330280     0.186736
                              0.170907     0.093570
                              0.086794     0.073811
   10.1 Ag    1  3d0        152.736742    -0.000026
                             50.772485    -0.006329
                             26.253589    -0.034398
                             12.137022    -0.091765
                              5.853719    -0.201592
                              2.856224    -0.283930
                              1.386132    -0.161981
                              0.670802     0.128822
                              0.330280     0.360160
                              0.170907     0.277592
                              0.086794     0.261403
   11.1 Ag    1  3d2+       152.736742    -0.000026
                             50.772485    -0.006329
                             26.253589    -0.034398
                             12.137022    -0.091765
                              5.853719    -0.201592
                              2.856224    -0.283930
                              1.386132    -0.161981
                              0.670802     0.128822
                              0.330280     0.360160
                              0.170907     0.277592
                              0.086794     0.261403
   12.1 Ag    1  3d0        152.736742     0.000051
                             50.772485     0.008769
                             26.253589     0.047921
                             12.137022     0.132475
                              5.853719     0.297279
                              2.856224     0.275018
                              1.386132    -0.222842
                              0.670802    -0.619067
                              0.330280    -0.076290
                              0.170907     0.256056
                              0.086794     0.541482
   13.1 Ag    1  3d2+       152.736742     0.000051
                             50.772485     0.008769
                             26.253589     0.047921
                             12.137022     0.132475
                              5.853719     0.297279
                              2.856224     0.275018
                              1.386132    -0.222842
                              0.670802    -0.619067
                              0.330280    -0.076290
                              0.170907     0.256056
                              0.086794     0.541482
   14.1 Ag    1  3d0        152.736742    -0.000096
                             50.772485    -0.012144
                             26.253589    -0.066971
                             12.137022    -0.196025
                              5.853719    -0.469003
                              2.856224     0.046560
                              1.386132     0.985940
                              0.670802    -0.220435
                              0.330280    -0.752482
                              0.170907    -0.111123
                              0.086794     0.753100
   15.1 Ag    1  3d2+       152.736742    -0.000096
                             50.772485    -0.012144
                             26.253589    -0.066971
                             12.137022    -0.196025
                              5.853719    -0.469003
                              2.856224     0.046560
                              1.386132     0.985940
                              0.670802    -0.220435
                              0.330280    -0.752482
                              0.170907    -0.111123
                              0.086794     0.753100
   16.1 Ag    1  3d0        152.736742     0.000000
                             50.772485     0.000000
                             26.253589     0.000000
                             12.137022     0.000000
                              5.853719     0.000000
                              2.856224     0.000000
                              1.386132     0.000000
                              0.670802     0.000000
                              0.330280     0.000000
                              0.170907     0.000000
                              0.086794     1.000000
   17.1 Ag    1  3d2+       152.736742     0.000000
                             50.772485     0.000000
                             26.253589     0.000000
                             12.137022     0.000000
                              5.853719     0.000000
                              2.856224     0.000000
                              1.386132     0.000000
                              0.670802     0.000000
                              0.330280     0.000000
                              0.170907     0.000000
                              0.086794     1.000000
   18.1 Ag    1  3d0          0.040000     1.000000
   19.1 Ag    1  3d2+         0.040000     1.000000
   20.1 Ag    1  5g0          0.307135     1.000000
   21.1 Ag    1  5g4+         0.307135     1.000000
   22.1 Ag    1  5g2+         0.307135     1.000000
   23.1 Ag    1  5g0          1.093014     1.000000
   24.1 Ag    1  5g4+         1.093014     1.000000
   25.1 Ag    1  5g2+         1.093014     1.000000
   26.1 Ag    1  5g0          3.889759     1.000000
   27.1 Ag    1  5g4+         3.889759     1.000000
   28.1 Ag    1  5g2+         3.889759     1.000000
    1.2 B3u   1  2px        125.092775     0.000056    0.000025   -0.000197    0.000264   -0.000084    0.000000
    2.2 B3u                  65.211589    -0.000572   -0.000070    0.001251   -0.001076    0.000768    0.000000
    3.2 B3u                  34.437599     0.007388   -0.001042   -0.009154   -0.002591   -0.009485    0.000000
    4.2 B3u                  18.930704    -0.028481    0.005127    0.038201    0.035519    0.088062    0.000000
    5.2 B3u                  10.873415    -0.063005    0.018404    0.043097    0.119554    0.156191    0.000000
    6.2 B3u                   6.012172     0.024855   -0.014692   -0.029475   -0.204714   -0.619166    0.000000
                              3.372205     0.277474   -0.061307   -0.426996   -0.760627   -1.385534    0.000000
                              1.768641     0.425386   -0.128638   -0.394840   -0.262740    2.492125    0.000000
                              0.914516     0.314145   -0.070637    0.077230    1.779030    0.008076    0.000000
                              0.460895     0.090422   -0.016314    1.119881   -0.462742   -2.499515    0.000000
                              0.204490     0.006977    0.380702   -0.066494   -1.241030    2.265576    0.000000
                              0.074741     0.001154    0.523071   -0.721583    0.940987   -0.748342    0.000000
                              0.035671     0.000303    0.235765   -0.005695    0.083496   -0.211598    1.000000
    7.2 B3u   1  2px          0.017000     1.000000
    8.2 B3u   1  4f1+         0.144926     1.000000
    9.2 B3u   1  4f3+         0.144926     1.000000
   10.2 B3u   1  4f1+         0.486122     1.000000
   11.2 B3u   1  4f3+         0.486122     1.000000
   12.2 B3u   1  4f1+         1.630591     1.000000
   13.2 B3u   1  4f3+         1.630591     1.000000
   14.2 B3u   1  4f1+         5.469463     1.000000
   15.2 B3u   1  4f3+         5.469463     1.000000
   16.2 B3u   1  6h1+         0.886940     1.000000
   17.2 B3u   1  6h3+         0.886940     1.000000
   18.2 B3u   1  6h5+         0.886940     1.000000
   19.2 B3u   1  6h1+         2.480792     1.000000
   20.2 B3u   1  6h3+         2.480792     1.000000
   21.2 B3u   1  6h5+         2.480792     1.000000
    1.3 B2u   1  2py        125.092775     0.000056    0.000025   -0.000197    0.000264   -0.000084    0.000000
    2.3 B2u                  65.211589    -0.000572   -0.000070    0.001251   -0.001076    0.000768    0.000000
    3.3 B2u                  34.437599     0.007388   -0.001042   -0.009154   -0.002591   -0.009485    0.000000
    4.3 B2u                  18.930704    -0.028481    0.005127    0.038201    0.035519    0.088062    0.000000
    5.3 B2u                  10.873415    -0.063005    0.018404    0.043097    0.119554    0.156191    0.000000
    6.3 B2u                   6.012172     0.024855   -0.014692   -0.029475   -0.204714   -0.619166    0.000000
                              3.372205     0.277474   -0.061307   -0.426996   -0.760627   -1.385534    0.000000
                              1.768641     0.425386   -0.128638   -0.394840   -0.262740    2.492125    0.000000
                              0.914516     0.314145   -0.070637    0.077230    1.779030    0.008076    0.000000
                              0.460895     0.090422   -0.016314    1.119881   -0.462742   -2.499515    0.000000
                              0.204490     0.006977    0.380702   -0.066494   -1.241030    2.265576    0.000000
                              0.074741     0.001154    0.523071   -0.721583    0.940987   -0.748342    0.000000
                              0.035671     0.000303    0.235765   -0.005695    0.083496   -0.211598    1.000000
    7.3 B2u   1  2py          0.017000     1.000000
    8.3 B2u   1  4f1-         0.144926     1.000000
    9.3 B2u   1  4f3-         0.144926     1.000000
   10.3 B2u   1  4f1-         0.486122     1.000000
   11.3 B2u   1  4f3-         0.486122     1.000000
   12.3 B2u   1  4f1-         1.630591     1.000000
   13.3 B2u   1  4f3-         1.630591     1.000000
   14.3 B2u   1  4f1-         5.469463     1.000000
   15.3 B2u   1  4f3-         5.469463     1.000000
   16.3 B2u   1  6h1-         0.886940     1.000000
   17.3 B2u   1  6h3-         0.886940     1.000000
   18.3 B2u   1  6h5-         0.886940     1.000000
   19.3 B2u   1  6h1-         2.480792     1.000000
   20.3 B2u   1  6h3-         2.480792     1.000000
   21.3 B2u   1  6h5-         2.480792     1.000000
    1.4 B1g   1  3d2-       152.736742     0.000029   -0.000026    0.000051   -0.000096    0.000000
    2.4 B1g                  50.772485     0.005238   -0.006329    0.008769   -0.012144    0.000000
    3.4 B1g                  26.253589     0.029325   -0.034398    0.047921   -0.066971    0.000000
    4.4 B1g                  12.137022     0.074901   -0.091765    0.132475   -0.196025    0.000000
    5.4 B1g                   5.853719     0.163411   -0.201592    0.297279   -0.469003    0.000000
                              2.856224     0.251057   -0.283930    0.275018    0.046560    0.000000
                              1.386132     0.287603   -0.161981   -0.222842    0.985940    0.000000
                              0.670802     0.251862    0.128822   -0.619067   -0.220435    0.000000
                              0.330280     0.186736    0.360160   -0.076290   -0.752482    0.000000
                              0.170907     0.093570    0.277592    0.256056   -0.111123    0.000000
                              0.086794     0.073811    0.261403    0.541482    0.753100    1.000000
    6.4 B1g   1  3d2-         0.040000     1.000000
    7.4 B1g   1  5g2-         0.307135     1.000000
    8.4 B1g   1  5g4-         0.307135     1.000000
    9.4 B1g   1  5g2-         1.093014     1.000000
   10.4 B1g   1  5g4-         1.093014     1.000000
   11.4 B1g   1  5g2-         3.889759     1.000000
   12.4 B1g   1  5g4-         3.889759     1.000000
    1.5 B1u   1  2pz        125.092775     0.000056    0.000025   -0.000197    0.000264   -0.000084    0.000000
    2.5 B1u                  65.211589    -0.000572   -0.000070    0.001251   -0.001076    0.000768    0.000000
    3.5 B1u                  34.437599     0.007388   -0.001042   -0.009154   -0.002591   -0.009485    0.000000
    4.5 B1u                  18.930704    -0.028481    0.005127    0.038201    0.035519    0.088062    0.000000
    5.5 B1u                  10.873415    -0.063005    0.018404    0.043097    0.119554    0.156191    0.000000
    6.5 B1u                   6.012172     0.024855   -0.014692   -0.029475   -0.204714   -0.619166    0.000000
                              3.372205     0.277474   -0.061307   -0.426996   -0.760627   -1.385534    0.000000
                              1.768641     0.425386   -0.128638   -0.394840   -0.262740    2.492125    0.000000
                              0.914516     0.314145   -0.070637    0.077230    1.779030    0.008076    0.000000
                              0.460895     0.090422   -0.016314    1.119881   -0.462742   -2.499515    0.000000
                              0.204490     0.006977    0.380702   -0.066494   -1.241030    2.265576    0.000000
                              0.074741     0.001154    0.523071   -0.721583    0.940987   -0.748342    0.000000
                              0.035671     0.000303    0.235765   -0.005695    0.083496   -0.211598    1.000000
    7.5 B1u   1  2pz          0.017000     1.000000
    8.5 B1u   1  4f0          0.144926     1.000000
    9.5 B1u   1  4f2+         0.144926     1.000000
   10.5 B1u   1  4f0          0.486122     1.000000
   11.5 B1u   1  4f2+         0.486122     1.000000
   12.5 B1u   1  4f0          1.630591     1.000000
   13.5 B1u   1  4f2+         1.630591     1.000000
   14.5 B1u   1  4f0          5.469463     1.000000
   15.5 B1u   1  4f2+         5.469463     1.000000
   16.5 B1u   1  6h2+         0.886940     1.000000
   17.5 B1u   1  6h4+         0.886940     1.000000
   18.5 B1u   1  6h0          0.886940     1.000000
   19.5 B1u   1  6h2+         2.480792     1.000000
   20.5 B1u   1  6h4+         2.480792     1.000000
   21.5 B1u   1  6h0          2.480792     1.000000
    1.6 B2g   1  3d1+       152.736742     0.000029   -0.000026    0.000051   -0.000096    0.000000
    2.6 B2g                  50.772485     0.005238   -0.006329    0.008769   -0.012144    0.000000
    3.6 B2g                  26.253589     0.029325   -0.034398    0.047921   -0.066971    0.000000
    4.6 B2g                  12.137022     0.074901   -0.091765    0.132475   -0.196025    0.000000
    5.6 B2g                   5.853719     0.163411   -0.201592    0.297279   -0.469003    0.000000
                              2.856224     0.251057   -0.283930    0.275018    0.046560    0.000000
                              1.386132     0.287603   -0.161981   -0.222842    0.985940    0.000000
                              0.670802     0.251862    0.128822   -0.619067   -0.220435    0.000000
                              0.330280     0.186736    0.360160   -0.076290   -0.752482    0.000000
                              0.170907     0.093570    0.277592    0.256056   -0.111123    0.000000
                              0.086794     0.073811    0.261403    0.541482    0.753100    1.000000
    6.6 B2g   1  3d1+         0.040000     1.000000
    7.6 B2g   1  5g1+         0.307135     1.000000
    8.6 B2g   1  5g3+         0.307135     1.000000
    9.6 B2g   1  5g1+         1.093014     1.000000
   10.6 B2g   1  5g3+         1.093014     1.000000
   11.6 B2g   1  5g1+         3.889759     1.000000
   12.6 B2g   1  5g3+         3.889759     1.000000
    1.7 B3g   1  3d1-       152.736742     0.000029   -0.000026    0.000051   -0.000096    0.000000
    2.7 B3g                  50.772485     0.005238   -0.006329    0.008769   -0.012144    0.000000
    3.7 B3g                  26.253589     0.029325   -0.034398    0.047921   -0.066971    0.000000
    4.7 B3g                  12.137022     0.074901   -0.091765    0.132475   -0.196025    0.000000
    5.7 B3g                   5.853719     0.163411   -0.201592    0.297279   -0.469003    0.000000
                              2.856224     0.251057   -0.283930    0.275018    0.046560    0.000000
                              1.386132     0.287603   -0.161981   -0.222842    0.985940    0.000000
                              0.670802     0.251862    0.128822   -0.619067   -0.220435    0.000000
                              0.330280     0.186736    0.360160   -0.076290   -0.752482    0.000000
                              0.170907     0.093570    0.277592    0.256056   -0.111123    0.000000
                              0.086794     0.073811    0.261403    0.541482    0.753100    1.000000
    6.7 B3g   1  3d1-         0.040000     1.000000
    7.7 B3g   1  5g1-         0.307135     1.000000
    8.7 B3g   1  5g3-         0.307135     1.000000
    9.7 B3g   1  5g1-         1.093014     1.000000
   10.7 B3g   1  5g3-         1.093014     1.000000
   11.7 B3g   1  5g1-         3.889759     1.000000
   12.7 B3g   1  5g3-         3.889759     1.000000
    1.8 Au    1  4f2-         0.144926     1.000000
    2.8 Au    1  4f2-         0.486122     1.000000
    3.8 Au    1  4f2-         1.630591     1.000000
    4.8 Au    1  4f2-         5.469463     1.000000
    5.8 Au    1  6h4-         0.886940     1.000000
    6.8 Au    1  6h2-         0.886940     1.000000
    7.8 Au    1  6h4-         2.480792     1.000000
    8.8 Au    1  6h2-         2.480792     1.000000

 NUCLEAR CHARGE:                   16
 NUMBER OF PRIMITIVE AOS:         255
 NUMBER OF SYMMETRY AOS:          193
 NUMBER OF CONTRACTIONS:          135   (  28Ag  +  21B3u +  21B2u +  12B1g +  21B1u +  12B2g +  12B3g +   8Au  )
 NUMBER OF CORE ORBITALS:           4   (   1Ag  +   1B3u +   1B2u +   0B1g +   1B1u +   0B2g +   0B3g +   0Au  )
 NUMBER OF VALENCE ORBITALS:        6   (   3Ag  +   0B3u +   0B2u +   1B1g +   0B1u +   1B2g +   1B3g +   0Au  )


 NUCLEAR REPULSION ENERGY    0.00000000

 EXTRA SYMMETRY OF AOS IN SYMMETRY 1:   1 1 1 1 1 1 1 2 3 2   3 2 3 2 3 2 3 2 3 4   5 6 4 5 6 4 5 6
 EXTRA SYMMETRY OF AOS IN SYMMETRY 2:   1 1 1 1 1 1 1 2 3 2   3 2 3 2 3 4 5 6 4 5   6
 EXTRA SYMMETRY OF AOS IN SYMMETRY 3:   1 1 1 1 1 1 1 2 3 2   3 2 3 2 3 4 5 6 4 5   6
 EXTRA SYMMETRY OF AOS IN SYMMETRY 4:   1 1 1 1 1 1 2 3 2 3   2 3
 EXTRA SYMMETRY OF AOS IN SYMMETRY 5:   1 1 1 1 1 1 1 2 3 2   3 2 3 2 3 4 5 6 4 5   6
 EXTRA SYMMETRY OF AOS IN SYMMETRY 6:   1 1 1 1 1 1 2 3 2 3   2 3
 EXTRA SYMMETRY OF AOS IN SYMMETRY 7:   1 1 1 1 1 1 2 3 2 3   2 3
 EXTRA SYMMETRY OF AOS IN SYMMETRY 8:   1 1 1 1 2 3 2 3

 Eigenvalues of metric

         1 0.137E-02 0.934E-02 0.934E-02 0.930E-01 0.292E+00 0.292E+00 0.514E+00 0.514E+00
         2 0.190E-01 0.314E+00 0.314E+00 0.348E+00 0.561E+00 0.561E+00 0.561E+00 0.660E+00
         3 0.190E-01 0.314E+00 0.314E+00 0.348E+00 0.561E+00 0.561E+00 0.561E+00 0.660E+00
         4 0.934E-02 0.292E+00 0.514E+00 0.514E+00 0.969E+00 0.972E+00 0.972E+00 0.100E+01
         5 0.190E-01 0.314E+00 0.314E+00 0.348E+00 0.561E+00 0.561E+00 0.561E+00 0.660E+00
         6 0.934E-02 0.292E+00 0.514E+00 0.514E+00 0.969E+00 0.972E+00 0.972E+00 0.100E+01
         7 0.934E-02 0.292E+00 0.514E+00 0.514E+00 0.969E+00 0.972E+00 0.972E+00 0.100E+01
         8 0.314E+00 0.561E+00 0.561E+00 0.660E+00 0.122E+01 0.144E+01 0.144E+01 0.181E+01


 Contracted 2-electron integrals neglected if value below      1.0D-12
 AO integral compression algorithm  1   Integral accuracy      1.0D-12

     34.603 MB (compressed) written to integral file ( 47.6%)


 NUMBER OF SORTED TWO-ELECTRON INTEGRALS:    5465755.     BUFFER LENGTH:  32768
 NUMBER OF SEGMENTS:   1  SEGMENT LENGTH:    5465755      RECORD LENGTH: 524288

 Memory used in sort:       6.02 MW

 SORT1 READ     9044109. AND WROTE     3825599. INTEGRALS IN     11 RECORDS. CPU TIME:     0.32 SEC, REAL TIME:     0.38 SEC
 SORT2 READ     3825599. AND WROTE     5465755. INTEGRALS IN    132 RECORDS. CPU TIME:     0.27 SEC, REAL TIME:     0.38 SEC

 FILE SIZES:   FILE 1:    54.1 MBYTE,  FILE 4:    46.2 MBYTE,   TOTAL:    100.3 MBYTE

 OPERATOR DM      FOR CENTER  0  COORDINATES:    0.000000    0.000000    0.000000
 OPERATOR EKIN    FOR CENTER  0  COORDINATES:    0.000000    0.000000    0.000000
 OPERATOR POT     FOR CENTER  0  COORDINATES:    0.000000    0.000000    0.000000


 **********************************************************************************************************************************
 DATASETS  * FILE   NREC   LENGTH (MB)   RECORD NAMES
              1      20       40.27       500      610      700      900      950      970     1000      129      960     1100   
                                          VAR    BASINP    GEOM    SYMINP    ZMAT    AOBASIS   BASIS     P2S    ABASIS      S 
                                         1400     1410     1420     1200     1210     1080     1600     1650     1300     1700   
                                         EKIN       V       ECP      H0       H01     AOSYM     SMH    MOLCAS    ERIS     OPER   

 PROGRAMS   *        TOTAL       INT
 CPU TIMES  *         4.42      4.30
 REAL TIME  *        10.39 SEC
 DISK USED  *       100.62 MB      
 **********************************************************************************************************************************


 PROGRAM * RHF-SCF (OPEN SHELL)       Authors: W. Meyer, H.-J. Werner


 NUMBER OF ELECTRONS:      10+    6-    SPACE SYMMETRY=1    SPIN SYMMETRY: Quintet 
 CONVERGENCE THRESHOLDS:    1.00E-05 (Density)    1.00E-07 (Energy)
 MAX. NUMBER OF ITERATIONS:       60
 INTERPOLATION TYPE:            DIIS
 INTERPOLATION STEPS:              2 (START)      1 (STEP)
 LEVEL SHIFTS:                 -0.60 (CLOSED) -0.30 (OPEN) 


 Singly occupied orbitals:      4.1       1.4       1.6       1.7
 
 Extra symmetries of mos in symmetry 1:   1   1   3

   Atom=FE basis=ECP10MDF_GUESS    lmin=0  lmax=2

 Orbital guess generated from atomic densities. Full valence occupancy:    4   1   1   1   1   1   1   0


 Molecular orbital dump at record        2100.2

 ITERATION    DDIFF          GRAD             ENERGY        2-EL.EN.            DIPOLE MOMENTS         DIIS   ORB.
    1      0.000D+00      0.000D+00      -122.53338919    179.510051    0.00000    0.00000    0.00000    0    start
    2      0.000D+00      0.276D-01      -122.62576248    188.457794    0.00000    0.00000    0.00000    1    diag,B
    3      0.862D-02      0.189D-01      -122.64469250    186.537869    0.00000    0.00000    0.00000    2    diag,B
    4      0.184D-02      0.422D-02      -122.64697843    186.399184    0.00000    0.00000    0.00000    3    diag,B
    5      0.111D-02      0.775D-03      -122.64722832    186.386354    0.00000    0.00000    0.00000    4    diag,B
    6      0.522D-03      0.217D-03      -122.64727086    186.344899    0.00000    0.00000    0.00000    5    diag,B
    7      0.338D-03      0.901D-04      -122.64728131    186.322042    0.00000    0.00000    0.00000    6    fixocc
    8      0.199D-03      0.315D-04      -122.64728271    186.315644    0.00000    0.00000    0.00000    7    diag,B
    9      0.829D-04      0.132D-04      -122.64728300    186.314188    0.00000    0.00000    0.00000    8    diag,B
   10      0.460D-04      0.692D-05      -122.64728309    186.314069    0.00000    0.00000    0.00000    9    orth
   11      0.480D-04      0.179D-05      -122.64728309    186.313996    0.00000    0.00000    0.00000    9    diag,B
   12      0.790D-05      0.593D-06      -122.64728309    186.314004    0.00000    0.00000    0.00000    0    orth

 Final alpha occupancy:   4   1   1   1   1   1   1   0
 Final beta  occupancy:   3   1   1   0   1   0   0   0

 !RHF STATE 1.1 Energy               -122.647283093551
 Nuclear energy                         0.00000000
 One-electron energy                 -215.80428522
 Two-electron energy                   93.15700213
 Virial quotient                       -1.70680644
 !RHF STATE 1.1 Dipole moment           0.00000000     0.00000000     0.00000000
 Dipole moment /Debye                   0.00000000     0.00000000     0.00000000
 

 !RHF expec          <1.1|EKIN|1.1>    71.857757413902
 
 !RHF expec           <1.1|POT|1.1>   -18.865308935002

 ELECTRON ORBITALS
 =================


   Orb  Occ    Energy  Couls-En    Coefficients

                                   1 1s      1 1s      1 1s      1 1s      1 1s      1 1s      1 1s      1 3d0     1 3d2+    1 3d0  
                                   1 3d2+    1 3d0     1 3d2+    1 3d0     1 3d2+    1 3d0     1 3d2+    1 3d0     1 3d2+    1 5g0  
                                   1 5g4+    1 5g2+    1 5g0     1 5g4+    1 5g2+    1 5g0     1 5g4+    1 5g2+ 

   1.1   2    -4.2756  -21.5475  0.999995  0.000058 -0.000013 -0.000022 -0.000009 -0.000021  0.000034 -0.001096 -0.000000 -0.000048
                                 0.000000  0.002502 -0.000000  0.001630 -0.000000 -0.003137  0.000000  0.000203 -0.000000  0.000018
                                 0.000159 -0.000000  0.000107  0.000727 -0.000000  0.000056  0.000344 -0.000000

   2.1   2    -0.2616   -5.8719  0.000010  0.999891  0.000727 -0.000120 -0.000007 -0.000118  0.000031  0.012813  0.000000  0.011782
                                -0.000000  0.002761 -0.000000 -0.000173  0.000000 -0.000255  0.000000  0.001031 -0.000000  0.000017
                                -0.000231  0.000000  0.000047  0.000077 -0.000000  0.000022  0.000093 -0.000000

   3.1   2    -0.5439  -13.0393  0.000000  0.000000  0.000000  0.000000 -0.000000 -0.000000  0.000000 -0.000001  1.003487  0.000000
                                -0.076024  0.000000 -0.026048  0.000000 -0.004640  0.000000 -0.014587  0.000000 -0.000511 -0.000000
                                -0.000000  0.000440 -0.000000 -0.000000  0.001400 -0.000000 -0.000000  0.000775

   4.1   +    -0.7023  -13.4842  0.001681 -0.011761 -0.000943 -0.000470  0.000061  0.000592 -0.000216  0.996868  0.000001 -0.134130
                                -0.000000 -0.037993 -0.000000 -0.002180 -0.000000 -0.006531 -0.000000 -0.000338 -0.000000  0.000951
                                 0.000182 -0.000000  0.003314  0.001551 -0.000000  0.001943  0.001037 -0.000000

                                   1 2px     1 2px     1 2px     1 2px     1 2px     1 2px     1 2px     1 4f1+    1 4f3+    1 4f1+ 
                                   1 4f3+    1 4f1+    1 4f3+    1 4f1+    1 4f3+    1 6h1+    1 6h3+    1 6h5+    1 6h1+    1 6h3+ 
                                   1 6h5+ 

   1.2   2    -2.7616  -18.4264  1.000446  0.016633  0.013962  0.000752 -0.001121 -0.005014  0.000214 -0.000038  0.000068 -0.000247
                                 0.002505  0.001592  0.003758  0.000652  0.001623  0.000014 -0.000011  0.000097 -0.000032  0.000041
                                -0.000253

                                   1 2py     1 2py     1 2py     1 2py     1 2py     1 2py     1 2py     1 4f1-    1 4f3-    1 4f1- 
                                   1 4f3-    1 4f1-    1 4f3-    1 4f1-    1 4f3-    1 6h1-    1 6h3-    1 6h5-    1 6h1-    1 6h3- 
                                   1 6h5- 

   1.3   2    -2.7616  -18.4264  1.000446  0.016633  0.013962  0.000752 -0.001121 -0.005014  0.000214 -0.000038 -0.000068 -0.000247
                                -0.002505  0.001592 -0.003758  0.000652 -0.001623  0.000014  0.000011  0.000097 -0.000032 -0.000041
                                -0.000253

                                   1 3d2-    1 3d2-    1 3d2-    1 3d2-    1 3d2-    1 3d2-    1 5g2-    1 5g4-    1 5g2-    1 5g4- 
                                   1 5g2-    1 5g4- 

   1.4   +    -0.6599  -13.3830  0.998697 -0.121435 -0.035631 -0.002743 -0.008672 -0.000389  0.000637 -0.000000  0.001991 -0.000000
                                 0.001136 -0.000000

                                   1 2pz     1 2pz     1 2pz     1 2pz     1 2pz     1 2pz     1 2pz     1 4f0     1 4f2+    1 4f0  
                                   1 4f2+    1 4f0     1 4f2+    1 4f0     1 4f2+    1 6h2+    1 6h4+    1 6h0     1 6h2+    1 6h4+ 
                                   1 6h0  

   1.5   2    -2.7683  -18.4430  1.000378  0.013286  0.012310  0.001091 -0.000563 -0.003646  0.000033 -0.000024 -0.000000  0.000484
                                -0.000000  0.003147 -0.000000  0.001317 -0.000000 -0.000000  0.000063  0.000020  0.000000 -0.000160
                                -0.000039

                                   1 3d1+    1 3d1+    1 3d1+    1 3d1+    1 3d1+    1 3d1+    1 5g1+    1 5g3+    1 5g1+    1 5g3+ 
                                   1 5g1+    1 5g3+ 

   1.6   +    -0.6914  -13.4591  0.997382 -0.130950 -0.037438 -0.002343 -0.007041 -0.000344  0.000900 -0.000119  0.003162 -0.000974
                                 0.001856 -0.000648

                                   1 3d1-    1 3d1-    1 3d1-    1 3d1-    1 3d1-    1 3d1-    1 5g1-    1 5g3-    1 5g1-    1 5g3- 
                                   1 5g1-    1 5g3- 

   1.7   +    -0.6914  -13.4591  0.997382 -0.130950 -0.037438 -0.002343 -0.007041 -0.000344  0.000900  0.000119  0.003162  0.000974
                                 0.001856  0.000648

 HOMO      1.4    -0.659917 =     -17.9572eV
 LUMO      2.5     0.020454 =       0.5566eV
 LUMO-HOMO         0.680371 =      18.5138eV


 **********************************************************************************************************************************
 DATASETS  * FILE   NREC   LENGTH (MB)   RECORD NAMES
              1      20       40.27       500      610      700      900      950      970     1000      129      960     1100   
                                          VAR    BASINP    GEOM    SYMINP    ZMAT    AOBASIS   BASIS     P2S    ABASIS      S 
                                         1400     1410     1420     1200     1210     1080     1600     1650     1300     1700   
                                         EKIN       V       ECP      H0       H01     AOSYM     SMH    MOLCAS    ERIS     OPER   

              2       4        2.85       700     1000      520     2100   
                                         GEOM     BASIS   MCVARS     RHF  

 PROGRAMS   *        TOTAL        HF       INT
 CPU TIMES  *         4.73      0.31      4.30
 REAL TIME  *        11.68 SEC
 DISK USED  *       100.62 MB      
 **********************************************************************************************************************************
 SETTING SCF(I)         =      -122.64728309  AU                              
 SETTING _CC_NORM_MAX   =         2.00000000                                  


 PROGRAM * CCSD (Restricted open-shell coupled cluster)     Authors: C. Hampel, H.-J. Werner, 1991, M. Deegan, P.J. Knowles, 1992


 Convergence thresholds:  THRVAR = 1.00D-08  THRDEN = 1.00D-06

 CCSD(T)     terms to be evaluated (factor= 1.000)


 Number of closed-shell orbitals:   6 (   3   1   1   0   1   0   0   0 )
 Number of active  orbitals:        4 (   1   0   0   1   0   1   1   0 )
 Number of external orbitals:     125 (  24  20  20  11  20  11  11   8 )

 Memory could be reduced to 5.43 Mwords without degradation in triples

 Number of N-1 electron functions:              16
 Number of N-2 electron functions:             120
 Number of singly external CSFs:               331
 Number of doubly external CSFs:            191319
 Total number of CSFs:                      191650

 Molecular orbitals read from record     2100.2  Type=RHF/CANONICAL (state 1.1)

 Integral transformation finished. Total CPU:   0.13 sec, npass=  1  Memory used:   1.16 MW

 Starting RMP2 calculation

 Wavefunction is spin-projected

 ITER.      SQ.NORM     CORR.ENERGY   TOTAL ENERGY   ENERGY CHANGE        DEN1      VAR(S)    VAR(P)  DIIS     TIME
   1      1.10387797    -0.64818243  -123.29546553    -0.64818243    -0.00114085  0.16D-05  0.80D-03  1  1     0.15
   2      1.10594852    -0.64939083  -123.29667393    -0.00120840    -0.00001874  0.17D-06  0.19D-04  2  2     0.17
   3      1.10629454    -0.64951812  -123.29680121    -0.00012729    -0.00000015  0.10D-07  0.13D-06  3  3     0.18
   4      1.10631661    -0.64952404  -123.29680713    -0.00000592    -0.00000000  0.36D-09  0.12D-08  4  4     0.20
   5      1.10631669    -0.64952393  -123.29680702     0.00000011    -0.00000000  0.25D-10  0.16D-10  5  5     0.20

 Norm of t1 vector:      0.03822485      S-energy:    -0.00484736      T1 diagnostic:  0.00026553
 Norm of t2 vector:      0.32381407      P-energy:    -0.64467656
                                         Alpha-Beta:  -0.43967093
                                         Alpha-Alpha: -0.15085410
                                         Beta-Beta:   -0.05415153

 Spin contamination <S**2-Sz**2-Sz>     0.00000000
  Reference energy                   -122.647283093551
  RHF-RMP2 correlation energy          -0.649523925902
 !RHF-RMP2 energy                    -123.296807019452
 (NB above energy spin projected)

 Starting RCCSD calculation

 ITER.      SQ.NORM     CORR.ENERGY   TOTAL ENERGY   ENERGY CHANGE        DEN1      VAR(S)    VAR(P)  DIIS     TIME
   1      1.10566157    -0.62879370  -123.27607679    -0.62879370    -0.01356682  0.39D-02  0.28D-02  1  1     0.59
   2      1.12006786    -0.64046862  -123.28775171    -0.01167492    -0.00158446  0.58D-03  0.73D-03  2  2     0.97
   3      1.13038418    -0.64305989  -123.29034298    -0.00259127    -0.00026986  0.18D-03  0.10D-03  3  3     1.35
   4      1.13667569    -0.64456450  -123.29184759    -0.00150461    -0.00002585  0.14D-04  0.97D-05  4  4     1.73
   5      1.13869334    -0.64490699  -123.29219008    -0.00034249    -0.00000221  0.13D-05  0.79D-06  5  5     2.10
   6      1.13901964    -0.64494051  -123.29222360    -0.00003352    -0.00000027  0.12D-06  0.12D-06  6  6     2.49
   7      1.13909128    -0.64495073  -123.29223383    -0.00001023    -0.00000006  0.46D-07  0.17D-07  6  2     2.86
   8      1.13909240    -0.64494930  -123.29223239     0.00000143    -0.00000002  0.21D-07  0.37D-08  6  1     3.23
   9      1.13908887    -0.64494856  -123.29223166     0.00000074    -0.00000002  0.16D-07  0.17D-08  6  3     3.65
  10      1.13909183    -0.64494965  -123.29223275    -0.00000109    -0.00000001  0.72D-08  0.15D-08  6  4     4.05
  11      1.13909981    -0.64495016  -123.29223325    -0.00000050    -0.00000000  0.17D-08  0.12D-08  6  5     4.51

 Norm of t1 vector:      0.12790041      S-energy:    -0.00591566      T1 diagnostic:  0.01978813
                                                                       D1 diagnostic:  0.06660815
 Norm of t2 vector:      0.35034453      P-energy:    -0.63903449
                                         Alpha-Beta:  -0.45146756
                                         Alpha-Alpha: -0.13596521
                                         Beta-Beta:   -0.05160173

 Singles amplitudes (print threshold =  0.500E-01):

         I         SYM. A    A   T(IA) [Alpha-Alpha]

         2         1         5      0.07747440

 Doubles amplitudes (print threshold =  0.500E-01):

         I         J         SYM. A    SYM. B    A         B      T(IJ, AB) [Alpha-Beta]

         2         2         2         2         2         2     -0.05028141
         2         2         3         3         2         2     -0.05028141
         2         2         5         5         2         2     -0.05186605

 Spin contamination <S**2-Sz**2-Sz>     0.00000000

 Memory could be reduced to 5.94 Mwords without degradation in triples
 

  Correlated core orbitals:             1.1       1.2       1.3       1.5
  Orbital energies:                    -4.4616   -2.9633   -2.9633   -3.0412
 
  RCCSD core-core energy               -0.154655610579
  RCCSD core-valence energy            -0.291239903870
  RCCSD valence correlation energy     -0.199054640770
 

 RESULTS
 =======

  Reference energy                   -122.647283093551
  RCCSD singles energy                 -0.005915660999
  RCCSD pair energy                    -0.639034494221
  RCCSD correlation energy             -0.644950155219
  Triples (T) contribution             -0.020196297994
  Total correlation energy             -0.665146453213
 
  RHF-RCCSD energy                   -123.292233248770
  RHF-RCCSD[T] energy                -123.313344182868
  RHF-RCCSD-T energy                 -123.312169620545
 !RHF-RCCSD(T) energy                -123.312429546764

 Program statistics:

 Available memory in ccsd:               511999000
 Min. memory needed in ccsd:                611076
 Max. memory used in ccsd:                  841842
 Max. memory used in cckext:                689636 (11 integral passes)
 Max. memory used in cckint:               1159291 ( 1 integral passes)



 **********************************************************************************************************************************
 DATASETS  * FILE   NREC   LENGTH (MB)   RECORD NAMES
              1      20       40.27       500      610      700      900      950      970     1000      129      960     1100   
                                          VAR    BASINP    GEOM    SYMINP    ZMAT    AOBASIS   BASIS     P2S    ABASIS      S 
                                         1400     1410     1420     1200     1210     1080     1600     1650     1300     1700   
                                         EKIN       V       ECP      H0       H01     AOSYM     SMH    MOLCAS    ERIS     OPER   

              2       4        2.85       700     1000      520     2100   
                                         GEOM     BASIS   MCVARS     RHF  

 PROGRAMS   *        TOTAL  RCCSD(T)        HF       INT
 CPU TIMES  *        17.38     12.64      0.31      4.30
 REAL TIME  *        36.18 SEC
 DISK USED  *       144.20 MB      
 **********************************************************************************************************************************
 SETTING POSTHF(I)      =      -123.31242955  AU                              
                                                                                                                                                                                                                                                                

         SCF            POSTHF       EKIN           POT
    -122.6472831   -123.3124295   71.85775741   -18.86530894
                                                  

 RCCSD(T)/USERDEF energy=   -123.312429546764

        RCCSD(T)        HF-SCF  
   -123.31242955   -122.64728309
 **********************************************************************************************************************************
 Variable memory released
