TACC:  Starting up job 2983010 
TACC:  Starting parallel tasks... 
  Input file(s): K.log.qmc.in-wfj.xml 

=====================================================
                    QMCPACK 3.6.0

       (c) Copyright 2003-  QMCPACK developers

                    Please cite:
 J. Kim et al. J. Phys. Cond. Mat. 30 195901 (2018)
      https://doi.org/10.1088/1361-648X/aab9c3

  Git branch: develop
  Last git commit: 278b2da505fe49852d465a6e4d7961918d794c87
  Last git commit date: Thu Feb 14 11:22:02 2019 -0500
  Last git commit subject: Merge pull request #1379 from ye-luo/raise-boost-version
=====================================================
  Global options 

  MPI Nodes             = 1024
  MPI Nodes per group   = 1024
  MPI Group ID          = 0
  OMP 1st level threads = 1
  OMP nested threading disabled or only 1 thread on the 2nd level

  Precision used in this calculation, see definitions in the manual:
  Base precision      = double
  Full precision      = double

  Structure-of-arrays (SoA) optimization enabled

  Input XML = K.log.qmc.in-wfj.xml

  Project = K.log
  date    = 2019-02-21 12:51:21 CST
  host    = c456-024.stampede2.tacc.utexas.edu

 Random Number
 -------------
  Offset for the random number seeds based on time: 809

  Range of prime numbers to use as seeds over processors and threads = 6229-15737


 Particle Set 
 ------------
  Name: ion0
  All the species have the same mass 1
  Particle set size: 1

 Particle Set 
 ------------
  Name: e
  All the species have the same mass 1
  Particle set size: 9

 Wavefunction setup: 
 ------------------- 
  Name: psi0
  LCAO: SoaAtomicBasisSet<MultiQuintic,0>

  Distance table for similar particles (A-A):
    source/target: e
    Using structure-of-arrays (SoA) data layout
    Distance computations use open boundary conditions in 3D.


  Distance table for dissimilar particles (A-B):
    source: ion0  target: e
    Using structure-of-arrays (SoA) data layout
    Distance computations use open boundary conditions in 3D.

Reading BasisSet from HDF5 file:K.log.orbs.h5
<input node="atomicBasisSet" name="Gaussian" expandYlm="Gamess" angular="cartesian" elementType="K" normalized="no" type="Numerical" expM="0" />
  AO BasisSet for K
   Angular momentum expanded in cartesian functions x^lx y^ly z^lz according to Gamess
   Grid is created by the input paremters in h5
    Using log grid ri = 1e-06 rf = 100 npts = 1001
   R(n,l,m,s) 0 0 0 0
   R(n,l,m,s) 1 0 0 0
   R(n,l,m,s) 2 1 0 0
   R(n,l,m,s) 3 1 0 0
   R(n,l,m,s) 4 2 0 0
   R(n,l,m,s) 5 0 0 0
   R(n,l,m,s) 6 0 0 0
   R(n,l,m,s) 7 0 0 0
   R(n,l,m,s) 8 1 0 0
   R(n,l,m,s) 9 1 0 0
   R(n,l,m,s) 10 1 0 0
   R(n,l,m,s) 11 2 0 0
   R(n,l,m,s) 12 2 0 0
   R(n,l,m,s) 13 3 0 0
   R(n,l,m,s) 14 0 0 0
   R(n,l,m,s) 15 0 0 0
   R(n,l,m,s) 16 0 0 0
   R(n,l,m,s) 17 1 0 0
   R(n,l,m,s) 18 1 0 0
   R(n,l,m,s) 19 1 0 0
   R(n,l,m,s) 20 2 0 0
   R(n,l,m,s) 21 2 0 0
   R(n,l,m,s) 22 3 0 0
Expanding Ylm (angular function) according to Gamess using cartesian gaussians
Adding 1 cartesian gaussian orbitals for l= 0
Adding 1 cartesian gaussian orbitals for l= 0
Adding 3 cartesian gaussian orbitals for l= 1
Adding 3 cartesian gaussian orbitals for l= 1
Adding 6 cartesian gaussian orbitals for l= 2
Adding 1 cartesian gaussian orbitals for l= 0
Adding 1 cartesian gaussian orbitals for l= 0
Adding 1 cartesian gaussian orbitals for l= 0
Adding 3 cartesian gaussian orbitals for l= 1
Adding 3 cartesian gaussian orbitals for l= 1
Adding 3 cartesian gaussian orbitals for l= 1
Adding 6 cartesian gaussian orbitals for l= 2
Adding 6 cartesian gaussian orbitals for l= 2
Adding 10 cartesian gaussian orbitals for l= 3
Adding 1 cartesian gaussian orbitals for l= 0
Adding 1 cartesian gaussian orbitals for l= 0
Adding 1 cartesian gaussian orbitals for l= 0
Adding 3 cartesian gaussian orbitals for l= 1
Adding 3 cartesian gaussian orbitals for l= 1
Adding 3 cartesian gaussian orbitals for l= 1
Adding 6 cartesian gaussian orbitals for l= 2
Adding 6 cartesian gaussian orbitals for l= 2
Adding 10 cartesian gaussian orbitals for l= 3
  Setting cutoff radius 28.5759

   Maximum Angular Momentum  = 3
   Number of Radial functors = 23
   Basis size                = 82

  Created SPOSet builder named 'LCAOBSet' of type molecularorbital
Reuse SPOSetBuilder "LCAOBSet" type MolecularOrbital
  Building SPOSet '' with '' basis set.
Reuse SPOSetBuilder "LCAOBSet" type MolecularOrbital
  Building SPOSet '' with '' basis set.
  Creating a determinant updet group=0 sposet=updet
  Reusing a SPO set updet
Using DiracDeterminant
Using rank-1 Sherman-Morrison Fahy update

  Creating a determinant downdet group=1 sposet=downdet
  Reusing a SPO set downdet
Using DiracDeterminant
Using rank-1 Sherman-Morrison Fahy update

  FermionWF = SlaterDet
  RadialJastrowBuilder adds a functor with cusp = -0.25
 size = 10 parameters 
 cusp = -0.25
 rcut = 18
Parameter     Name      Value
uu_0 0.411507 1 1  ON 0
uu_1 0.111309 1 1  ON 1
uu_2 -0.00780492 1 1  ON 2
uu_3 -0.0770902 1 1  ON 3
uu_4 -0.109224 1 1  ON 4
uu_5 -0.123827 1 1  ON 5
uu_6 -0.101115 1 1  ON 6
uu_7 -0.0458982 1 1  ON 7
uu_8 -0.00855164 1 1  ON 8
uu_9 -0.013151 1 1  ON 9
  RadialJastrowBuilder adds a functor with cusp = -0.5
 size = 10 parameters 
 cusp = -0.5
 rcut = 18
Parameter     Name      Value
ud_0 0.50117 1 1  ON 0
ud_1 0.116368 1 1  ON 1
ud_2 -0.0105546 1 1  ON 2
ud_3 -0.0952637 1 1  ON 3
ud_4 -0.117497 1 1  ON 4
ud_5 -0.134672 1 1  ON 5
ud_6 -0.106523 1 1  ON 6
ud_7 -0.0597031 1 1  ON 7
ud_8 -0.0282354 1 1  ON 8
ud_9 -0.0292419 1 1  ON 9
 size = 10 parameters 
 cusp = 0
 rcut = 18
Parameter     Name      Value
eK_0 -2.07487 1 1  ON 0
eK_1 -0.975732 1 1  ON 1
eK_2 -0.094865 1 1  ON 2
eK_3 0.479978 1 1  ON 3
eK_4 0.783035 1 1  ON 4
eK_5 0.88602 1 1  ON 5
eK_6 0.690072 1 1  ON 6
eK_7 0.280208 1 1  ON 7
eK_8 0.0376053 1 1  ON 8
eK_9 -0.00504131 1 1  ON 9
Expected 26 parameters, but found 0 in PolynomialFunctor3D.
Parameter     Name      Value
uuK_0 0 1 1  ON 0
uuK_1 0 1 1  ON 1
uuK_2 0 1 1  ON 2
uuK_3 0 1 1  ON 3
uuK_4 0 1 1  ON 4
uuK_5 0 1 1  ON 5
uuK_6 0 1 1  ON 6
uuK_7 0 1 1  ON 7
uuK_8 0 1 1  ON 8
uuK_9 0 1 1  ON 9
uuK_10 0 1 1  ON 10
uuK_11 0 1 1  ON 11
uuK_12 0 1 1  ON 12
uuK_13 0 1 1  ON 13
uuK_14 0 1 1  ON 14
uuK_15 0 1 1  ON 15
uuK_16 0 1 1  ON 16
uuK_17 0 1 1  ON 17
uuK_18 0 1 1  ON 18
uuK_19 0 1 1  ON 19
uuK_20 0 1 1  ON 20
uuK_21 0 1 1  ON 21
uuK_22 0 1 1  ON 22
uuK_23 0 1 1  ON 23
uuK_24 0 1 1  ON 24
uuK_25 0 1 1  ON 25
Expected 26 parameters, but found 0 in PolynomialFunctor3D.
Parameter     Name      Value
udK_0 0 1 1  ON 0
udK_1 0 1 1  ON 1
udK_2 0 1 1  ON 2
udK_3 0 1 1  ON 3
udK_4 0 1 1  ON 4
udK_5 0 1 1  ON 5
udK_6 0 1 1  ON 6
udK_7 0 1 1  ON 7
udK_8 0 1 1  ON 8
udK_9 0 1 1  ON 9
udK_10 0 1 1  ON 10
udK_11 0 1 1  ON 11
udK_12 0 1 1  ON 12
udK_13 0 1 1  ON 13
udK_14 0 1 1  ON 14
udK_15 0 1 1  ON 15
udK_16 0 1 1  ON 16
udK_17 0 1 1  ON 17
udK_18 0 1 1  ON 18
udK_19 0 1 1  ON 19
udK_20 0 1 1  ON 20
udK_21 0 1 1  ON 21
udK_22 0 1 1  ON 22
udK_23 0 1 1  ON 23
udK_24 0 1 1  ON 24
udK_25 0 1 1  ON 25
  QMCHamiltonian::addOperator Kinetic to H, physical Hamiltonian 
  QMCHamiltonian::addOperator ElecElec to H, physical Hamiltonian 
QMCHamiltonian::addOperatorType added type coulomb named ElecElec
  CoulombAA for ion0 is not created.  Number of particles == 1 and nonPeriodic

  ECPotential builder for pseudopotential 

  Adding pseudopotential for K
   Linear grid  ri=0 rf=10 npts = 10001
    ECPComponentBuilder::buildSemiLocalAndLocal 
    Assuming Hartree unit
   Number of angular momentum channels 3
   Maximum angular momentum channel 2
   Creating a Linear Grid Rmax=1.805
  Using global grid with delta = 0.001
   Making L=2 a local potential with a radial cutoff of 9.999
    Non-local pseudopotential parameters
    Maximum angular mementum = 1
    Number of non-local channels = 2
       l(0)=0
       l(1)=1
    Cutoff radius = 1.805
    Spherical grids and weights: 
                        1                 0                 0       0.08333333333
                       -1   1.224646799e-16                 0       0.08333333333
             0.4472135955       0.894427191                 0       0.08333333333
            -0.4472135955      0.7236067977      0.5257311121       0.08333333333
             0.4472135955      0.2763932023      0.8506508084       0.08333333333
            -0.4472135955     -0.2763932023      0.8506508084       0.08333333333
             0.4472135955     -0.7236067977      0.5257311121       0.08333333333
            -0.4472135955      -0.894427191   1.095357397e-16       0.08333333333
             0.4472135955     -0.7236067977     -0.5257311121       0.08333333333
            -0.4472135955     -0.2763932023     -0.8506508084       0.08333333333
             0.4472135955      0.2763932023     -0.8506508084       0.08333333333
            -0.4472135955      0.7236067977     -0.5257311121       0.08333333333
    Maximum cutoff radius 1.805
  QMCHamiltonian::addOperator LocalECP to H, physical Hamiltonian 

  Using NonLocalECP potential 
    Maximum grid on a sphere for NonLocalECPotential: 12
  QMCHamiltonian::addOperator NonLocalECP to H, physical Hamiltonian 
QMCHamiltonian::addOperatorType added type pseudo named PseudoPot

  QMCHamiltonian::add2WalkerProperty added
    4 to P::PropertyList 
    0 to P::Collectables 
    starting Index of the observables in P::PropertyList = 9
ParticleSetPool::randomize 
<init source="ion0" target="e">
</init>
  Initialization Execution time = 0.8533 secs
=========================================================
 Summary of QMC systems 
=========================================================
ParticleSetPool has: 

  ParticleSet e : 0 5 9 

    9

    u  2.2816755721e-03  1.0778449771e+00 -3.2156956595e-01
    u  6.6334930459e-01 -2.0404511912e+00  9.8357503356e-01
    u -1.7579448815e+00 -2.1705962652e+00  6.3467540787e-01
    u -3.4388716027e+00  1.3513415217e+00  2.3857074469e+00
    u  2.0164782771e+00  2.6175715900e+00 -1.7129681312e+00
    d  1.9278420378e-02 -1.4550055188e+00  1.4514868339e-01
    d  9.0106014041e-01  3.2039889020e+00 -1.1872953329e+00
    d  2.2664966355e+00 -1.3839419732e+00 -1.6111479064e+00
    d  2.8524485507e+00 -1.3627619049e+00 -3.2645886295e-01

  ParticleSet ion0 : 0 1 

    1

    K  0.0000000000e+00  0.0000000000e+00  0.0000000000e+00

  Hamiltonian h0
  Kinetic         Kinetic energy
  ElecElec        CoulombAA source/target e

  LocalECP        LocalECPotential: ion0
  NonLocalECP     NonLocalECPotential: ion0

=========================================================
  Start VMC
  File Root K.log.s000 append = no 
=========================================================
  Adding 1 walkers to 0 existing sets
  Total number of walkers: 1.0240000000e+03
  Total weight: 1.0240000000e+03
  Resetting Properties of the walkers 1 x 13

<vmc function="put">
  qmc_counter=0  my_counter=0
  time step      = 1.5000000000e-01
  blocks         = 200
  steps          = 1
  substeps       = 5
  current        = 0
  target samples = 1.0240000000e+03
  walkers/mpi    = 1

  stepsbetweensamples = 200
<parameter name="blocks" condition="int">200</parameter>
<parameter name="blocks_between_recompute" condition="int">0</parameter>
<parameter name="check_properties" condition="int">100</parameter>
<parameter name="checkproperties" condition="int">100</parameter>
<parameter name="current" condition="int">0</parameter>
<parameter name="dmcwalkersperthread" condition="real">1.0000000000e+00</parameter>
<parameter name="maxcpusecs" condition="real">3.6000000000e+05</parameter>
<parameter name="record_configs" condition="int">0</parameter>
<parameter name="record_walkers" condition="int">200</parameter>
<parameter name="recordconfigs" condition="int">0</parameter>
<parameter name="recordwalkers" condition="int">200</parameter>
<parameter name="rewind" condition="int">0</parameter>
<parameter name="samples" condition="real">1.0240000000e+03</parameter>
<parameter name="samplesperthread" condition="real">1.0000000000e+00</parameter>
<parameter name="steps" condition="int">1</parameter>
<parameter name="stepsbetweensamples" condition="int">200</parameter>
<parameter name="store_configs" condition="int">0</parameter>
<parameter name="storeconfigs" condition="int">0</parameter>
<parameter name="sub_steps" condition="int">5</parameter>
<parameter name="substeps" condition="int">5</parameter>
<parameter name="tau" condition="au">1.5000000000e-01</parameter>
<parameter name="time_step" condition="au">1.5000000000e-01</parameter>
<parameter name="timestep" condition="au">1.5000000000e-01</parameter>
<parameter name="use_drift" condition="string">no</parameter>
<parameter name="usedrift" condition="string">no</parameter>
<parameter name="walkers" condition="int">1</parameter>
<parameter name="warmup_steps" condition="int">100</parameter>
<parameter name="warmupsteps" condition="int">100</parameter>
  DumpConfig==false Nothing (configurations, state) will be saved.
  Walker Samples are dumped every 200 steps.
</vmc>
  Initial partition of walkers 0 1 

  Using Particle by Particle moves
  Walker moves without drift
  Total Sample Size   =1024
  Walker distribution on root = 0 1 
  Using Locality Approximation
===== Memory Usage after the buffer registration =====
Available memory on node 0, free + buffers : 84067 MB
Memory footprint by rank 0 on node 0       : 74 MB
==================================================
  Anonymous Buffer size per walker : 3840 Bytes.
MEMORY increase 0 MB VMC::resetRun
====================================================
  SimpleFixedNodeBranch::finalize after a VMC block
    QMC counter        = 0
    time step          = 0.15
    reference energy   = -28.1974
    reference variance = 0.33933
====================================================
  QMC Execution time = 1.2158e+00 secs
Loop execution max-interations = 20

=========================================================
  Start QMCFixedSampleLinearOptimize
  File Root K.log.s001 append = no 
=========================================================
  Skip QMCDriver::putQMCInfo 
  Resetting Properties of the walkers 1 x 13

=========================================================
  Start VMC
  File Root K.log.s001 append = no 
=========================================================
  Using the current 1 walkers.
  Total number of walkers: 1.0240e+03
  Total weight: 1.0240e+03
  Resetting Properties of the walkers 1 x 13

<vmc function="put">
  qmc_counter=0  my_counter=0
  time step      = 1.5000e-01
  blocks         = 300
  steps          = 2
  substeps       = 5
  current        = 0
  target samples = 5.1200e+05
  walkers/mpi    = 1

  stepsbetweensamples = 1
<parameter name="blocks" condition="int">300</parameter>
<parameter name="blocks_between_recompute" condition="int">0</parameter>
<parameter name="check_properties" condition="int">100</parameter>
<parameter name="checkproperties" condition="int">100</parameter>
<parameter name="current" condition="int">0</parameter>
<parameter name="dmcwalkersperthread" condition="real">5.0000e+02</parameter>
<parameter name="maxcpusecs" condition="real">3.6000e+05</parameter>
<parameter name="record_configs" condition="int">0</parameter>
<parameter name="record_walkers" condition="int">1</parameter>
<parameter name="recordconfigs" condition="int">0</parameter>
<parameter name="recordwalkers" condition="int">1</parameter>
<parameter name="rewind" condition="int">0</parameter>
<parameter name="samples" condition="real">5.1200e+05</parameter>
<parameter name="samplesperthread" condition="real">5.0000e+02</parameter>
<parameter name="steps" condition="int">2</parameter>
<parameter name="stepsbetweensamples" condition="int">1</parameter>
<parameter name="store_configs" condition="int">0</parameter>
<parameter name="storeconfigs" condition="int">0</parameter>
<parameter name="sub_steps" condition="int">5</parameter>
<parameter name="substeps" condition="int">5</parameter>
<parameter name="tau" condition="au">1.5000e-01</parameter>
<parameter name="time_step" condition="au">1.5000e-01</parameter>
<parameter name="timestep" condition="au">1.5000e-01</parameter>
<parameter name="use_drift" condition="string">no</parameter>
<parameter name="usedrift" condition="string">no</parameter>
<parameter name="walkers" condition="int">1</parameter>
<parameter name="warmup_steps" condition="int">0</parameter>
<parameter name="warmupsteps" condition="int">0</parameter>
  DumpConfig==false Nothing (configurations, state) will be saved.
  Walker Samples are dumped every 1 steps.
</vmc>
    Restarting, cummulative properties:
      energy     = -2.8197e+01
      variance   = 0.0000e+00
      r2accepted = 1.0000e-10
      r2proposed = 1.0000e-10
 Using QMCCostFunction::QMCCostFunction
  EstimatorManagerBase::add replace LocalEnergy estimator.
<optimization-report>
<vmc stage="main" blocks="300">
  Cannot make clones again. Use existing 1 clones
  Initial partition of walkers 0 1 

  Using Particle by Particle moves
  Walker moves without drift
  Total Sample Size   =512000
  Walker distribution on root = 0 1 
  Using Locality Approximation
===== Memory Usage after the buffer registration =====
Available memory on node 0, free + buffers : 84046 MB
Memory footprint by rank 0 on node 0       : 75 MB
==================================================
  Anonymous Buffer size per walker : 3840 Bytes.
MEMORY increase 0 MB VMC::resetRun
====================================================
  SimpleFixedNodeBranch::finalize after a VMC block
    QMC counter        = 1
    time step          = 0.15
    reference energy   = -28.198
    reference variance = 0.405807
====================================================
  Execution time = 2.8001e+00
</vmc>
<opt stage="setup">
  <log>
   Reading configurations from h5FileRoot K.log.s001
  QMCCostFunction is created with 1 threads.
  Using Nonlocal PP in Opt: NonLocalECP
   Number of samples loaded to each thread : 500 
  VMC Eavg = -2.8207e+01
  VMC Evar = 3.6297e-01
  Total weights = 5.1200e+05
  Execution time = 9.9833e-01
  </log>
</opt>
<opt stage="main" walkers="512000">
  <log>

*****************************************
Building overlap and Hamiltonian matrices
*****************************************

Among totally 82 optimized parameters, largest LM parameter change : 1.3763e-01 at parameter 21

******************************************************************************
Init Cost =  -2.6779e+01    New Cost =  -2.6796e+01  Delta Cost =  -1.6812e-02
******************************************************************************

The new set of parameters is valid. Updating the trial wave function!

*****************************************************************************
Applying the update for shift_i =   1.0000e-02     and shift_s =   2.5000e-01
*****************************************************************************
  Execution time = 4.4133e+00
  </log>
  <optVariables href="K.log.s001.opt.xml">
uu_0 3.8827e-01 1 1  ON 0
uu_1 1.4743e-01 1 1  ON 1
uu_2 -2.0832e-02 1 1  ON 2
uu_3 -7.7914e-02 1 1  ON 3
uu_4 -9.4723e-02 1 1  ON 4
uu_5 -1.2771e-01 1 1  ON 5
uu_6 -1.0469e-01 1 1  ON 6
uu_7 -5.0653e-02 1 1  ON 7
uu_8 -1.1808e-02 1 1  ON 8
uu_9 -1.3509e-02 1 1  ON 9
ud_0 5.1680e-01 1 1  ON 10
ud_1 1.1404e-01 1 1  ON 11
ud_2 -4.8821e-02 1 1  ON 12
ud_3 -8.5103e-02 1 1  ON 13
ud_4 -9.0914e-02 1 1  ON 14
ud_5 -1.3490e-01 1 1  ON 15
ud_6 -1.1401e-01 1 1  ON 16
ud_7 -6.5178e-02 1 1  ON 17
ud_8 -2.8650e-02 1 1  ON 18
ud_9 -2.7425e-02 1 1  ON 19
eK_0 -2.0013e+00 1 1  ON 20
eK_1 -1.1134e+00 1 1  ON 21
eK_2 6.2648e-03 1 1  ON 22
eK_3 4.2767e-01 1 1  ON 23
eK_4 8.0076e-01 1 1  ON 24
eK_5 8.4634e-01 1 1  ON 25
eK_6 7.0845e-01 1 1  ON 26
eK_7 2.9659e-01 1 1  ON 27
eK_8 3.9399e-02 1 1  ON 28
eK_9 -4.8987e-03 1 1  ON 29
uuK_0 8.0242e-08 1 1  ON 30
uuK_1 4.9258e-07 1 1  ON 31
uuK_2 6.1065e-08 1 1  ON 32
uuK_3 -1.4725e-07 1 1  ON 33
uuK_4 -1.6026e-08 1 1  ON 34
uuK_5 -3.0587e-08 1 1  ON 35
uuK_6 4.5453e-07 1 1  ON 36
uuK_7 6.5773e-08 1 1  ON 37
uuK_8 3.2040e-08 1 1  ON 38
uuK_9 -4.9826e-07 1 1  ON 39
uuK_10 -7.3428e-08 1 1  ON 40
uuK_11 -2.9423e-08 1 1  ON 41
uuK_12 -3.3148e-10 1 1  ON 42
uuK_13 6.7087e-08 1 1  ON 43
uuK_14 -1.2771e-09 1 1  ON 44
uuK_15 6.9392e-11 1 1  ON 45
uuK_16 3.5825e-07 1 1  ON 46
uuK_17 -1.9467e-08 1 1  ON 47
uuK_18 2.6060e-09 1 1  ON 48
uuK_19 -9.7798e-10 1 1  ON 49
uuK_20 -3.3306e-08 1 1  ON 50
uuK_21 1.9521e-09 1 1  ON 51
uuK_22 -8.4227e-11 1 1  ON 52
uuK_23 2.8557e-09 1 1  ON 53
uuK_24 -3.8611e-10 1 1  ON 54
uuK_25 3.1614e-11 1 1  ON 55
udK_0 1.2463e-07 1 1  ON 56
udK_1 1.1019e-06 1 1  ON 57
udK_2 2.6874e-07 1 1  ON 58
udK_3 -2.1843e-07 1 1  ON 59
udK_4 -3.6276e-08 1 1  ON 60
udK_5 1.6151e-09 1 1  ON 61
udK_6 1.2680e-06 1 1  ON 62
udK_7 -1.5207e-08 1 1  ON 63
udK_8 1.3238e-07 1 1  ON 64
udK_9 -1.2053e-06 1 1  ON 65
udK_10 -8.7798e-08 1 1  ON 66
udK_11 -1.3654e-07 1 1  ON 67
udK_12 -4.9190e-09 1 1  ON 68
udK_13 1.8995e-07 1 1  ON 69
udK_14 -1.1348e-09 1 1  ON 70
udK_15 2.8622e-10 1 1  ON 71
udK_16 1.0081e-06 1 1  ON 72
udK_17 -9.5825e-08 1 1  ON 73
udK_18 5.2422e-08 1 1  ON 74
udK_19 -4.2572e-09 1 1  ON 75
udK_20 -1.3920e-07 1 1  ON 76
udK_21 2.0659e-09 1 1  ON 77
udK_22 -2.9643e-11 1 1  ON 78
udK_23 2.1467e-08 1 1  ON 79
udK_24 -1.0150e-09 1 1  ON 80
udK_25 8.3334e-11 1 1  ON 81
  </optVariables>
   Restore the number of walkers to 1, removing 0 walkers.
</opt>
</optimization-report>
  QMC Execution time = 4.5365e+00 secs
  Reusing QMCFixedSampleLinearOptimize
 Using QMCCostFunction::QMCCostFunction

=========================================================
  Start QMCFixedSampleLinearOptimize
  File Root K.log.s002 append = no 
=========================================================
  Skip QMCDriver::putQMCInfo 
  Resetting Properties of the walkers 1 x 13

=========================================================
  Start VMC
  File Root K.log.s002 append = no 
=========================================================
Using existing walkers 
  Resetting Properties of the walkers 1 x 13

<vmc function="put">
  qmc_counter=1  my_counter=1
  time step      = 1.5000e-01
  blocks         = 300
  steps          = 2
  substeps       = 5
  current        = 0
  target samples = 5.1200e+05
  walkers/mpi    = 1

  stepsbetweensamples = 1
<parameter name="blocks" condition="int">300</parameter>
<parameter name="blocks_between_recompute" condition="int">0</parameter>
<parameter name="check_properties" condition="int">100</parameter>
<parameter name="checkproperties" condition="int">100</parameter>
<parameter name="current" condition="int">0</parameter>
<parameter name="dmcwalkersperthread" condition="real">5.0000e+02</parameter>
<parameter name="maxcpusecs" condition="real">3.6000e+05</parameter>
<parameter name="record_configs" condition="int">0</parameter>
<parameter name="record_walkers" condition="int">1</parameter>
<parameter name="recordconfigs" condition="int">0</parameter>
<parameter name="recordwalkers" condition="int">1</parameter>
<parameter name="rewind" condition="int">0</parameter>
<parameter name="samples" condition="real">5.1200e+05</parameter>
<parameter name="samplesperthread" condition="real">5.0000e+02</parameter>
<parameter name="steps" condition="int">2</parameter>
<parameter name="stepsbetweensamples" condition="int">1</parameter>
<parameter name="store_configs" condition="int">0</parameter>
<parameter name="storeconfigs" condition="int">0</parameter>
<parameter name="sub_steps" condition="int">5</parameter>
<parameter name="substeps" condition="int">5</parameter>
<parameter name="tau" condition="au">1.5000e-01</parameter>
<parameter name="time_step" condition="au">1.5000e-01</parameter>
<parameter name="timestep" condition="au">1.5000e-01</parameter>
<parameter name="use_drift" condition="string">no</parameter>
<parameter name="usedrift" condition="string">no</parameter>
<parameter name="walkers" condition="int">1</parameter>
<parameter name="warmup_steps" condition="int">0</parameter>
<parameter name="warmupsteps" condition="int">0</parameter>
  DumpConfig==false Nothing (configurations, state) will be saved.
  Walker Samples are dumped every 1 steps.
</vmc>
  EstimatorManagerBase::add replace LocalEnergy estimator.
  EstimatorManagerBase::add replace LocalEnergy estimator.
<optimization-report>
<vmc stage="main" blocks="300">
  Cannot make clones again. Use existing 1 clones
  Initial partition of walkers 0 1 
  Using Particle by Particle moves
  Walker moves without drift
  Total Sample Size   =512000
  Walker distribution on root = 0 1 
  Using Locality Approximation
===== Memory Usage after the buffer registration =====
Available memory on node 0, free + buffers : 82930 MB
Memory footprint by rank 0 on node 0       : 95 MB
==================================================
====================================================
  SimpleFixedNodeBranch::finalize after a VMC block
    QMC counter        = 2
    time step          = 0.15
    reference energy   = -28.228
    reference variance = 0.277656
====================================================
  Execution time = 2.6745e+00
</vmc>
<opt stage="setup">
  <log>
   Reading configurations from h5FileRoot K.log.s002
  QMCCostFunction is created with 1 threads.
  Using Nonlocal PP in Opt: NonLocalECP
   Number of samples loaded to each thread : 500 
  VMC Eavg = -2.8224e+01
  VMC Evar = 2.6524e-01
  Total weights = 5.1200e+05
  Execution time = 9.0272e-01
  </log>
</opt>
<opt stage="main" walkers="512000">
  <log>

*****************************************
Building overlap and Hamiltonian matrices
*****************************************

Among totally 82 optimized parameters, largest LM parameter change : 1.0739e-01 at parameter 21

******************************************************************************
Init Cost =  -2.6800e+01    New Cost =  -2.6801e+01  Delta Cost =  -1.3529e-03
******************************************************************************

The new set of parameters is valid. Updating the trial wave function!

*****************************************************************************
Applying the update for shift_i =   1.0000e-02     and shift_s =   6.2500e-02
*****************************************************************************
  Execution time = 4.1201e+00
  </log>
  <optVariables href="K.log.s002.opt.xml">
uu_0 3.8371e-01 1 1  ON 0
uu_1 1.6173e-01 1 1  ON 1
uu_2 -2.5425e-02 1 1  ON 2
uu_3 -7.8864e-02 1 1  ON 3
uu_4 -9.0748e-02 1 1  ON 4
uu_5 -1.2898e-01 1 1  ON 5
uu_6 -1.0908e-01 1 1  ON 6
uu_7 -5.1361e-02 1 1  ON 7
uu_8 -1.3607e-02 1 1  ON 8
uu_9 -1.4701e-02 1 1  ON 9
ud_0 5.2686e-01 1 1  ON 10
ud_1 1.1355e-01 1 1  ON 11
ud_2 -6.7054e-02 1 1  ON 12
ud_3 -8.0689e-02 1 1  ON 13
ud_4 -8.0462e-02 1 1  ON 14
ud_5 -1.2913e-01 1 1  ON 15
ud_6 -1.2036e-01 1 1  ON 16
ud_7 -6.6364e-02 1 1  ON 17
ud_8 -3.2749e-02 1 1  ON 18
ud_9 -2.8568e-02 1 1  ON 19
eK_0 -1.9389e+00 1 1  ON 20
eK_1 -1.2208e+00 1 1  ON 21
eK_2 6.8392e-02 1 1  ON 22
eK_3 4.0678e-01 1 1  ON 23
eK_4 8.0584e-01 1 1  ON 24
eK_5 8.1258e-01 1 1  ON 25
eK_6 7.2095e-01 1 1  ON 26
eK_7 3.1260e-01 1 1  ON 27
eK_8 4.3106e-02 1 1  ON 28
eK_9 -5.1646e-03 1 1  ON 29
uuK_0 1.1153e-07 1 1  ON 30
uuK_1 6.3879e-07 1 1  ON 31
uuK_2 6.4563e-08 1 1  ON 32
uuK_3 -1.9186e-07 1 1  ON 33
uuK_4 -1.8540e-08 1 1  ON 34
uuK_5 -5.8169e-08 1 1  ON 35
uuK_6 5.7867e-07 1 1  ON 36
uuK_7 1.1422e-07 1 1  ON 37
uuK_8 2.4853e-08 1 1  ON 38
uuK_9 -6.5129e-07 1 1  ON 39
uuK_10 -9.5738e-08 1 1  ON 40
uuK_11 -4.1738e-08 1 1  ON 41
uuK_12 4.0692e-09 1 1  ON 42
uuK_13 5.3941e-08 1 1  ON 43
uuK_14 -5.7628e-09 1 1  ON 44
uuK_15 6.3090e-11 1 1  ON 45
uuK_16 5.2291e-07 1 1  ON 46
uuK_17 -6.1924e-08 1 1  ON 47
uuK_18 1.1518e-08 1 1  ON 48
uuK_19 -3.2332e-09 1 1  ON 49
uuK_20 -4.1835e-08 1 1  ON 50
uuK_21 2.8463e-09 1 1  ON 51
uuK_22 -2.8087e-11 1 1  ON 52
uuK_23 2.8909e-09 1 1  ON 53
uuK_24 -5.7988e-10 1 1  ON 54
uuK_25 4.0137e-11 1 1  ON 55
udK_0 1.8559e-07 1 1  ON 56
udK_1 1.4094e-06 1 1  ON 57
udK_2 3.2693e-07 1 1  ON 58
udK_3 -2.6610e-07 1 1  ON 59
udK_4 -4.3641e-08 1 1  ON 60
udK_5 1.9505e-08 1 1  ON 61
udK_6 1.5663e-06 1 1  ON 62
udK_7 2.6739e-08 1 1  ON 63
udK_8 1.5847e-07 1 1  ON 64
udK_9 -1.5334e-06 1 1  ON 65
udK_10 -1.0375e-07 1 1  ON 66
udK_11 -1.8897e-07 1 1  ON 67
udK_12 -2.7644e-09 1 1  ON 68
udK_13 2.1597e-07 1 1  ON 69
udK_14 -3.5596e-09 1 1  ON 70
udK_15 2.8252e-10 1 1  ON 71
udK_16 1.3466e-06 1 1  ON 72
udK_17 -1.5463e-07 1 1  ON 73
udK_18 7.8662e-08 1 1  ON 74
udK_19 -7.1883e-09 1 1  ON 75
udK_20 -1.8116e-07 1 1  ON 76
udK_21 2.4255e-09 1 1  ON 77
udK_22 5.2816e-11 1 1  ON 78
udK_23 2.8769e-08 1 1  ON 79
udK_24 -1.3771e-09 1 1  ON 80
udK_25 1.0947e-10 1 1  ON 81
  </optVariables>
   Restore the number of walkers to 1, removing 0 walkers.
</opt>
</optimization-report>
  QMC Execution time = 4.1475e+00 secs
  Reusing QMCFixedSampleLinearOptimize
 Using QMCCostFunction::QMCCostFunction

=========================================================
  Start QMCFixedSampleLinearOptimize
  File Root K.log.s003 append = no 
=========================================================
  Skip QMCDriver::putQMCInfo 
  Resetting Properties of the walkers 1 x 13

=========================================================
  Start VMC
  File Root K.log.s003 append = no 
=========================================================
Using existing walkers 
  Resetting Properties of the walkers 1 x 13

<vmc function="put">
  qmc_counter=2  my_counter=2
  time step      = 1.5000e-01
  blocks         = 300
  steps          = 2
  substeps       = 5
  current        = 0
  target samples = 5.1200e+05
  walkers/mpi    = 1

  stepsbetweensamples = 1
<parameter name="blocks" condition="int">300</parameter>
<parameter name="blocks_between_recompute" condition="int">0</parameter>
<parameter name="check_properties" condition="int">100</parameter>
<parameter name="checkproperties" condition="int">100</parameter>
<parameter name="current" condition="int">0</parameter>
<parameter name="dmcwalkersperthread" condition="real">5.0000e+02</parameter>
<parameter name="maxcpusecs" condition="real">3.6000e+05</parameter>
<parameter name="record_configs" condition="int">0</parameter>
<parameter name="record_walkers" condition="int">1</parameter>
<parameter name="recordconfigs" condition="int">0</parameter>
<parameter name="recordwalkers" condition="int">1</parameter>
<parameter name="rewind" condition="int">0</parameter>
<parameter name="samples" condition="real">5.1200e+05</parameter>
<parameter name="samplesperthread" condition="real">5.0000e+02</parameter>
<parameter name="steps" condition="int">2</parameter>
<parameter name="stepsbetweensamples" condition="int">1</parameter>
<parameter name="store_configs" condition="int">0</parameter>
<parameter name="storeconfigs" condition="int">0</parameter>
<parameter name="sub_steps" condition="int">5</parameter>
<parameter name="substeps" condition="int">5</parameter>
<parameter name="tau" condition="au">1.5000e-01</parameter>
<parameter name="time_step" condition="au">1.5000e-01</parameter>
<parameter name="timestep" condition="au">1.5000e-01</parameter>
<parameter name="use_drift" condition="string">no</parameter>
<parameter name="usedrift" condition="string">no</parameter>
<parameter name="walkers" condition="int">1</parameter>
<parameter name="warmup_steps" condition="int">0</parameter>
<parameter name="warmupsteps" condition="int">0</parameter>
  DumpConfig==false Nothing (configurations, state) will be saved.
  Walker Samples are dumped every 1 steps.
</vmc>
  EstimatorManagerBase::add replace LocalEnergy estimator.
  EstimatorManagerBase::add replace LocalEnergy estimator.
<optimization-report>
<vmc stage="main" blocks="300">
  Cannot make clones again. Use existing 1 clones
  Initial partition of walkers 0 1 
  Using Particle by Particle moves
  Walker moves without drift
  Total Sample Size   =512000
  Walker distribution on root = 0 1 
  Using Locality Approximation
===== Memory Usage after the buffer registration =====
Available memory on node 0, free + buffers : 82927 MB
Memory footprint by rank 0 on node 0       : 97 MB
==================================================
====================================================
  SimpleFixedNodeBranch::finalize after a VMC block
    QMC counter        = 3
    time step          = 0.15
    reference energy   = -28.2201
    reference variance = 0.283027
====================================================
  Execution time = 2.5851e+00
</vmc>
<opt stage="setup">
  <log>
   Reading configurations from h5FileRoot K.log.s003
  QMCCostFunction is created with 1 threads.
  Using Nonlocal PP in Opt: NonLocalECP
   Number of samples loaded to each thread : 500 
  VMC Eavg = -2.8225e+01
  VMC Evar = 2.8632e-01
  Total weights = 5.1200e+05
  Execution time = 8.8022e-01
  </log>
</opt>
<opt stage="main" walkers="512000">
  <log>

*****************************************
Building overlap and Hamiltonian matrices
*****************************************

Among totally 82 optimized parameters, largest LM parameter change : 8.4927e-02 at parameter 21

******************************************************************************
Init Cost =  -2.6799e+01    New Cost =  -2.6799e+01  Delta Cost =  -1.2337e-04
******************************************************************************

The new set of parameters is valid. Updating the trial wave function!

*****************************************************************************
Applying the update for shift_i =   1.0000e-02     and shift_s =   1.5625e-02
*****************************************************************************
  Execution time = 4.0309e+00
  </log>
  <optVariables href="K.log.s003.opt.xml">
uu_0 3.8699e-01 1 1  ON 0
uu_1 1.6633e-01 1 1  ON 1
uu_2 -2.4735e-02 1 1  ON 2
uu_3 -7.9660e-02 1 1  ON 3
uu_4 -9.4510e-02 1 1  ON 4
uu_5 -1.2689e-01 1 1  ON 5
uu_6 -1.1391e-01 1 1  ON 6
uu_7 -5.1154e-02 1 1  ON 7
uu_8 -1.2785e-02 1 1  ON 8
uu_9 -1.3192e-02 1 1  ON 9
ud_0 5.3522e-01 1 1  ON 10
ud_1 1.1171e-01 1 1  ON 11
ud_2 -7.4384e-02 1 1  ON 12
ud_3 -7.9869e-02 1 1  ON 13
ud_4 -7.7245e-02 1 1  ON 14
ud_5 -1.2223e-01 1 1  ON 15
ud_6 -1.2464e-01 1 1  ON 16
ud_7 -6.8907e-02 1 1  ON 17
ud_8 -3.1447e-02 1 1  ON 18
ud_9 -2.9526e-02 1 1  ON 19
eK_0 -1.8865e+00 1 1  ON 20
eK_1 -1.3057e+00 1 1  ON 21
eK_2 1.0831e-01 1 1  ON 22
eK_3 4.0352e-01 1 1  ON 23
eK_4 8.0029e-01 1 1  ON 24
eK_5 7.8400e-01 1 1  ON 25
eK_6 7.3241e-01 1 1  ON 26
eK_7 3.2862e-01 1 1  ON 27
eK_8 4.6578e-02 1 1  ON 28
eK_9 -5.1656e-03 1 1  ON 29
uuK_0 1.3793e-07 1 1  ON 30
uuK_1 7.0967e-07 1 1  ON 31
uuK_2 5.7443e-08 1 1  ON 32
uuK_3 -2.0454e-07 1 1  ON 33
uuK_4 -1.8459e-08 1 1  ON 34
uuK_5 -5.3236e-08 1 1  ON 35
uuK_6 6.2292e-07 1 1  ON 36
uuK_7 1.2806e-07 1 1  ON 37
uuK_8 1.9914e-08 1 1  ON 38
uuK_9 -7.1785e-07 1 1  ON 39
uuK_10 -1.0296e-07 1 1  ON 40
uuK_11 -4.5672e-08 1 1  ON 41
uuK_12 6.1241e-09 1 1  ON 42
uuK_13 5.5179e-08 1 1  ON 43
uuK_14 -7.2563e-09 1 1  ON 44
uuK_15 1.7548e-11 1 1  ON 45
uuK_16 6.0284e-07 1 1  ON 46
uuK_17 -7.5749e-08 1 1  ON 47
uuK_18 1.4785e-08 1 1  ON 48
uuK_19 -4.2272e-09 1 1  ON 49
uuK_20 -4.9378e-08 1 1  ON 50
uuK_21 3.1858e-09 1 1  ON 51
uuK_22 7.7810e-12 1 1  ON 52
uuK_23 3.7064e-09 1 1  ON 53
uuK_24 -6.7247e-10 1 1  ON 54
uuK_25 4.4015e-11 1 1  ON 55
udK_0 2.1892e-07 1 1  ON 56
udK_1 1.5134e-06 1 1  ON 57
udK_2 3.4182e-07 1 1  ON 58
udK_3 -2.7699e-07 1 1  ON 59
udK_4 -4.4560e-08 1 1  ON 60
udK_5 7.5841e-09 1 1  ON 61
udK_6 1.6749e-06 1 1  ON 62
udK_7 5.1156e-08 1 1  ON 63
udK_8 1.6474e-07 1 1  ON 64
udK_9 -1.6678e-06 1 1  ON 65
udK_10 -1.0314e-07 1 1  ON 66
udK_11 -2.1663e-07 1 1  ON 67
udK_12 -8.8294e-10 1 1  ON 68
udK_13 2.0972e-07 1 1  ON 69
udK_14 -4.8533e-09 1 1  ON 70
udK_15 2.3197e-10 1 1  ON 71
udK_16 1.5072e-06 1 1  ON 72
udK_17 -1.9332e-07 1 1  ON 73
udK_18 9.6275e-08 1 1  ON 74
udK_19 -9.0578e-09 1 1  ON 75
udK_20 -1.9700e-07 1 1  ON 76
udK_21 1.7723e-09 1 1  ON 77
udK_22 1.9202e-10 1 1  ON 78
udK_23 3.0306e-08 1 1  ON 79
udK_24 -1.3308e-09 1 1  ON 80
udK_25 9.3453e-11 1 1  ON 81
  </optVariables>
   Restore the number of walkers to 1, removing 0 walkers.
</opt>
</optimization-report>
  QMC Execution time = 4.0805e+00 secs
  Reusing QMCFixedSampleLinearOptimize
 Using QMCCostFunction::QMCCostFunction

=========================================================
  Start QMCFixedSampleLinearOptimize
  File Root K.log.s004 append = no 
=========================================================
  Skip QMCDriver::putQMCInfo 
  Resetting Properties of the walkers 1 x 13

=========================================================
  Start VMC
  File Root K.log.s004 append = no 
=========================================================
Using existing walkers 
  Resetting Properties of the walkers 1 x 13

<vmc function="put">
  qmc_counter=3  my_counter=3
  time step      = 1.5000e-01
  blocks         = 300
  steps          = 2
  substeps       = 5
  current        = 0
  target samples = 5.1200e+05
  walkers/mpi    = 1

  stepsbetweensamples = 1
<parameter name="blocks" condition="int">300</parameter>
<parameter name="blocks_between_recompute" condition="int">0</parameter>
<parameter name="check_properties" condition="int">100</parameter>
<parameter name="checkproperties" condition="int">100</parameter>
<parameter name="current" condition="int">0</parameter>
<parameter name="dmcwalkersperthread" condition="real">5.0000e+02</parameter>
<parameter name="maxcpusecs" condition="real">3.6000e+05</parameter>
<parameter name="record_configs" condition="int">0</parameter>
<parameter name="record_walkers" condition="int">1</parameter>
<parameter name="recordconfigs" condition="int">0</parameter>
<parameter name="recordwalkers" condition="int">1</parameter>
<parameter name="rewind" condition="int">0</parameter>
<parameter name="samples" condition="real">5.1200e+05</parameter>
<parameter name="samplesperthread" condition="real">5.0000e+02</parameter>
<parameter name="steps" condition="int">2</parameter>
<parameter name="stepsbetweensamples" condition="int">1</parameter>
<parameter name="store_configs" condition="int">0</parameter>
<parameter name="storeconfigs" condition="int">0</parameter>
<parameter name="sub_steps" condition="int">5</parameter>
<parameter name="substeps" condition="int">5</parameter>
<parameter name="tau" condition="au">1.5000e-01</parameter>
<parameter name="time_step" condition="au">1.5000e-01</parameter>
<parameter name="timestep" condition="au">1.5000e-01</parameter>
<parameter name="use_drift" condition="string">no</parameter>
<parameter name="usedrift" condition="string">no</parameter>
<parameter name="walkers" condition="int">1</parameter>
<parameter name="warmup_steps" condition="int">0</parameter>
<parameter name="warmupsteps" condition="int">0</parameter>
  DumpConfig==false Nothing (configurations, state) will be saved.
  Walker Samples are dumped every 1 steps.
</vmc>
  EstimatorManagerBase::add replace LocalEnergy estimator.
  EstimatorManagerBase::add replace LocalEnergy estimator.
<optimization-report>
<vmc stage="main" blocks="300">
  Cannot make clones again. Use existing 1 clones
  Initial partition of walkers 0 1 
  Using Particle by Particle moves
  Walker moves without drift
  Total Sample Size   =512000
  Walker distribution on root = 0 1 
  Using Locality Approximation
===== Memory Usage after the buffer registration =====
Available memory on node 0, free + buffers : 82925 MB
Memory footprint by rank 0 on node 0       : 99 MB
==================================================
====================================================
  SimpleFixedNodeBranch::finalize after a VMC block
    QMC counter        = 4
    time step          = 0.15
    reference energy   = -28.2538
    reference variance = 0.224119
====================================================
  Execution time = 2.4844e+00
</vmc>
<opt stage="setup">
  <log>
   Reading configurations from h5FileRoot K.log.s004
  QMCCostFunction is created with 1 threads.
  Using Nonlocal PP in Opt: NonLocalECP
   Number of samples loaded to each thread : 500 
  VMC Eavg = -2.8225e+01
  VMC Evar = 2.9585e-01
  Total weights = 5.1200e+05
  Execution time = 8.8343e-01
  </log>
</opt>
<opt stage="main" walkers="512000">
  <log>

*****************************************
Building overlap and Hamiltonian matrices
*****************************************

Among totally 82 optimized parameters, largest LM parameter change : 6.3426e-02 at parameter 21

******************************************************************************
Init Cost =  -2.6798e+01    New Cost =  -2.6799e+01  Delta Cost =  -8.6921e-05
******************************************************************************

The new set of parameters is valid. Updating the trial wave function!

*****************************************************************************
Applying the update for shift_i =   1.0000e-02     and shift_s =   3.9062e-03
*****************************************************************************
  Execution time = 3.9057e+00
  </log>
  <optVariables href="K.log.s004.opt.xml">
uu_0 3.9083e-01 1 1  ON 0
uu_1 1.7082e-01 1 1  ON 1
uu_2 -2.2476e-02 1 1  ON 2
uu_3 -7.7635e-02 1 1  ON 3
uu_4 -9.7407e-02 1 1  ON 4
uu_5 -1.2770e-01 1 1  ON 5
uu_6 -1.1927e-01 1 1  ON 6
uu_7 -5.9209e-02 1 1  ON 7
uu_8 -1.6353e-02 1 1  ON 8
uu_9 -7.1896e-03 1 1  ON 9
ud_0 5.3790e-01 1 1  ON 10
ud_1 1.1389e-01 1 1  ON 11
ud_2 -7.4580e-02 1 1  ON 12
ud_3 -7.8280e-02 1 1  ON 13
ud_4 -7.4072e-02 1 1  ON 14
ud_5 -1.2395e-01 1 1  ON 15
ud_6 -1.2990e-01 1 1  ON 16
ud_7 -7.2382e-02 1 1  ON 17
ud_8 -3.6079e-02 1 1  ON 18
ud_9 -2.6898e-02 1 1  ON 19
eK_0 -1.8455e+00 1 1  ON 20
eK_1 -1.3691e+00 1 1  ON 21
eK_2 1.2853e-01 1 1  ON 22
eK_3 4.1492e-01 1 1  ON 23
eK_4 7.8879e-01 1 1  ON 24
eK_5 7.5957e-01 1 1  ON 25
eK_6 7.4125e-01 1 1  ON 26
eK_7 3.4193e-01 1 1  ON 27
eK_8 4.8637e-02 1 1  ON 28
eK_9 -3.2961e-03 1 1  ON 29
uuK_0 1.5033e-07 1 1  ON 30
uuK_1 7.5149e-07 1 1  ON 31
uuK_2 7.1579e-08 1 1  ON 32
uuK_3 -2.0801e-07 1 1  ON 33
uuK_4 -1.9582e-08 1 1  ON 34
uuK_5 -5.1147e-08 1 1  ON 35
uuK_6 6.6338e-07 1 1  ON 36
uuK_7 1.4516e-07 1 1  ON 37
uuK_8 3.3968e-08 1 1  ON 38
uuK_9 -7.7052e-07 1 1  ON 39
uuK_10 -1.0100e-07 1 1  ON 40
uuK_11 -6.7229e-08 1 1  ON 41
uuK_12 5.0131e-09 1 1  ON 42
uuK_13 5.7580e-08 1 1  ON 43
uuK_14 -5.6936e-09 1 1  ON 44
uuK_15 -1.6789e-11 1 1  ON 45
uuK_16 6.5915e-07 1 1  ON 46
uuK_17 -8.6771e-08 1 1  ON 47
uuK_18 2.5054e-08 1 1  ON 48
uuK_19 -4.6429e-09 1 1  ON 49
uuK_20 -5.3885e-08 1 1  ON 50
uuK_21 2.3588e-09 1 1  ON 51
uuK_22 7.9461e-11 1 1  ON 52
uuK_23 3.4349e-09 1 1  ON 53
uuK_24 -5.5348e-10 1 1  ON 54
uuK_25 2.9622e-11 1 1  ON 55
udK_0 2.4119e-07 1 1  ON 56
udK_1 1.5388e-06 1 1  ON 57
udK_2 3.4264e-07 1 1  ON 58
udK_3 -2.7449e-07 1 1  ON 59
udK_4 -4.3457e-08 1 1  ON 60
udK_5 2.4633e-09 1 1  ON 61
udK_6 1.6935e-06 1 1  ON 62
udK_7 7.1018e-08 1 1  ON 63
udK_8 1.6715e-07 1 1  ON 64
udK_9 -1.7144e-06 1 1  ON 65
udK_10 -9.6687e-08 1 1  ON 66
udK_11 -2.3865e-07 1 1  ON 67
udK_12 6.3863e-10 1 1  ON 68
udK_13 1.9786e-07 1 1  ON 69
udK_14 -5.6647e-09 1 1  ON 70
udK_15 1.8961e-10 1 1  ON 71
udK_16 1.5959e-06 1 1  ON 72
udK_17 -2.2442e-07 1 1  ON 73
udK_18 1.1428e-07 1 1  ON 74
udK_19 -1.0870e-08 1 1  ON 75
udK_20 -2.0783e-07 1 1  ON 76
udK_21 7.6750e-10 1 1  ON 77
udK_22 3.4613e-10 1 1  ON 78
udK_23 3.2390e-08 1 1  ON 79
udK_24 -1.3006e-09 1 1  ON 80
udK_25 8.2809e-11 1 1  ON 81
  </optVariables>
   Restore the number of walkers to 1, removing 0 walkers.
</opt>
</optimization-report>
  QMC Execution time = 4.0131e+00 secs
  Reusing QMCFixedSampleLinearOptimize
 Using QMCCostFunction::QMCCostFunction

=========================================================
  Start QMCFixedSampleLinearOptimize
  File Root K.log.s005 append = no 
=========================================================
  Skip QMCDriver::putQMCInfo 
  Resetting Properties of the walkers 1 x 13

=========================================================
  Start VMC
  File Root K.log.s005 append = no 
=========================================================
Using existing walkers 
  Resetting Properties of the walkers 1 x 13

<vmc function="put">
  qmc_counter=4  my_counter=4
  time step      = 1.5000e-01
  blocks         = 300
  steps          = 2
  substeps       = 5
  current        = 0
  target samples = 5.1200e+05
  walkers/mpi    = 1

  stepsbetweensamples = 1
<parameter name="blocks" condition="int">300</parameter>
<parameter name="blocks_between_recompute" condition="int">0</parameter>
<parameter name="check_properties" condition="int">100</parameter>
<parameter name="checkproperties" condition="int">100</parameter>
<parameter name="current" condition="int">0</parameter>
<parameter name="dmcwalkersperthread" condition="real">5.0000e+02</parameter>
<parameter name="maxcpusecs" condition="real">3.6000e+05</parameter>
<parameter name="record_configs" condition="int">0</parameter>
<parameter name="record_walkers" condition="int">1</parameter>
<parameter name="recordconfigs" condition="int">0</parameter>
<parameter name="recordwalkers" condition="int">1</parameter>
<parameter name="rewind" condition="int">0</parameter>
<parameter name="samples" condition="real">5.1200e+05</parameter>
<parameter name="samplesperthread" condition="real">5.0000e+02</parameter>
<parameter name="steps" condition="int">2</parameter>
<parameter name="stepsbetweensamples" condition="int">1</parameter>
<parameter name="store_configs" condition="int">0</parameter>
<parameter name="storeconfigs" condition="int">0</parameter>
<parameter name="sub_steps" condition="int">5</parameter>
<parameter name="substeps" condition="int">5</parameter>
<parameter name="tau" condition="au">1.5000e-01</parameter>
<parameter name="time_step" condition="au">1.5000e-01</parameter>
<parameter name="timestep" condition="au">1.5000e-01</parameter>
<parameter name="use_drift" condition="string">no</parameter>
<parameter name="usedrift" condition="string">no</parameter>
<parameter name="walkers" condition="int">1</parameter>
<parameter name="warmup_steps" condition="int">0</parameter>
<parameter name="warmupsteps" condition="int">0</parameter>
  DumpConfig==false Nothing (configurations, state) will be saved.
  Walker Samples are dumped every 1 steps.
</vmc>
  EstimatorManagerBase::add replace LocalEnergy estimator.
  EstimatorManagerBase::add replace LocalEnergy estimator.
<optimization-report>
<vmc stage="main" blocks="300">
  Cannot make clones again. Use existing 1 clones
  Initial partition of walkers 0 1 
  Using Particle by Particle moves
  Walker moves without drift
  Total Sample Size   =512000
  Walker distribution on root = 0 1 
  Using Locality Approximation
===== Memory Usage after the buffer registration =====
Available memory on node 0, free + buffers : 82922 MB
Memory footprint by rank 0 on node 0       : 101 MB
==================================================
====================================================
  SimpleFixedNodeBranch::finalize after a VMC block
    QMC counter        = 5
    time step          = 0.15
    reference energy   = -28.2345
    reference variance = 0.365235
====================================================
  Execution time = 2.3609e+00
</vmc>
<opt stage="setup">
  <log>
   Reading configurations from h5FileRoot K.log.s005
  QMCCostFunction is created with 1 threads.
  Using Nonlocal PP in Opt: NonLocalECP
   Number of samples loaded to each thread : 500 
  VMC Eavg = -2.8228e+01
  VMC Evar = 3.0649e-01
  Total weights = 5.1200e+05
  Execution time = 8.8146e-01
  </log>
</opt>
<opt stage="main" walkers="512000">
  <log>

*****************************************
Building overlap and Hamiltonian matrices
*****************************************

Among totally 82 optimized parameters, largest LM parameter change : 4.7134e-02 at parameter 21

******************************************************************************
Init Cost =  -2.6801e+01    New Cost =  -2.6801e+01  Delta Cost =  -1.3430e-04
******************************************************************************

The new set of parameters is valid. Updating the trial wave function!

*****************************************************************************
Applying the update for shift_i =   1.0000e-02     and shift_s =   3.9062e-03
*****************************************************************************
  Execution time = 3.7843e+00
  </log>
  <optVariables href="K.log.s005.opt.xml">
uu_0 3.9325e-01 1 1  ON 0
uu_1 1.7644e-01 1 1  ON 1
uu_2 -1.8152e-02 1 1  ON 2
uu_3 -7.7558e-02 1 1  ON 3
uu_4 -9.9146e-02 1 1  ON 4
uu_5 -1.2717e-01 1 1  ON 5
uu_6 -1.2468e-01 1 1  ON 6
uu_7 -6.4220e-02 1 1  ON 7
uu_8 -1.7820e-02 1 1  ON 8
uu_9 -4.3347e-03 1 1  ON 9
ud_0 5.4055e-01 1 1  ON 10
ud_1 1.1563e-01 1 1  ON 11
ud_2 -7.1730e-02 1 1  ON 12
ud_3 -7.8977e-02 1 1  ON 13
ud_4 -7.7247e-02 1 1  ON 14
ud_5 -1.2292e-01 1 1  ON 15
ud_6 -1.3451e-01 1 1  ON 16
ud_7 -7.5803e-02 1 1  ON 17
ud_8 -3.4622e-02 1 1  ON 18
ud_9 -2.2224e-02 1 1  ON 19
eK_0 -1.8136e+00 1 1  ON 20
eK_1 -1.4162e+00 1 1  ON 21
eK_2 1.3811e-01 1 1  ON 22
eK_3 4.3002e-01 1 1  ON 23
eK_4 7.7910e-01 1 1  ON 24
eK_5 7.3652e-01 1 1  ON 25
eK_6 7.4387e-01 1 1  ON 26
eK_7 3.5838e-01 1 1  ON 27
eK_8 5.2397e-02 1 1  ON 28
eK_9 -2.1121e-03 1 1  ON 29
uuK_0 1.5675e-07 1 1  ON 30
uuK_1 7.7117e-07 1 1  ON 31
uuK_2 7.7107e-08 1 1  ON 32
uuK_3 -2.1349e-07 1 1  ON 33
uuK_4 -2.0348e-08 1 1  ON 34
uuK_5 -4.8324e-08 1 1  ON 35
uuK_6 6.7768e-07 1 1  ON 36
uuK_7 1.5585e-07 1 1  ON 37
uuK_8 4.3275e-08 1 1  ON 38
uuK_9 -7.9146e-07 1 1  ON 39
uuK_10 -1.0273e-07 1 1  ON 40
uuK_11 -7.8445e-08 1 1  ON 41
uuK_12 4.2905e-09 1 1  ON 42
uuK_13 6.1918e-08 1 1  ON 43
uuK_14 -4.6793e-09 1 1  ON 44
uuK_15 -3.5343e-11 1 1  ON 45
uuK_16 6.8072e-07 1 1  ON 46
uuK_17 -8.7980e-08 1 1  ON 47
uuK_18 2.9898e-08 1 1  ON 48
uuK_19 -5.0463e-09 1 1  ON 49
uuK_20 -5.6350e-08 1 1  ON 50
uuK_21 2.1279e-09 1 1  ON 51
uuK_22 1.1650e-10 1 1  ON 52
uuK_23 3.3690e-09 1 1  ON 53
uuK_24 -5.6657e-10 1 1  ON 54
uuK_25 3.0323e-11 1 1  ON 55
udK_0 2.5014e-07 1 1  ON 56
udK_1 1.5782e-06 1 1  ON 57
udK_2 3.4225e-07 1 1  ON 58
udK_3 -2.8783e-07 1 1  ON 59
udK_4 -4.3835e-08 1 1  ON 60
udK_5 -5.7895e-09 1 1  ON 61
udK_6 1.7227e-06 1 1  ON 62
udK_7 6.3723e-08 1 1  ON 63
udK_8 1.6853e-07 1 1  ON 64
udK_9 -1.7432e-06 1 1  ON 65
udK_10 -1.0108e-07 1 1  ON 66
udK_11 -2.3654e-07 1 1  ON 67
udK_12 5.4217e-10 1 1  ON 68
udK_13 2.0711e-07 1 1  ON 69
udK_14 -5.4128e-09 1 1  ON 70
udK_15 1.6726e-10 1 1  ON 71
udK_16 1.6246e-06 1 1  ON 72
udK_17 -2.1810e-07 1 1  ON 73
udK_18 1.1102e-07 1 1  ON 74
udK_19 -1.0790e-08 1 1  ON 75
udK_20 -2.1487e-07 1 1  ON 76
udK_21 1.2425e-09 1 1  ON 77
udK_22 3.2514e-10 1 1  ON 78
udK_23 3.3687e-08 1 1  ON 79
udK_24 -1.4045e-09 1 1  ON 80
udK_25 8.9571e-11 1 1  ON 81
  </optVariables>
   Restore the number of walkers to 1, removing 0 walkers.
</opt>
</optimization-report>
  QMC Execution time = 4.2162e+00 secs
  Reusing QMCFixedSampleLinearOptimize
 Using QMCCostFunction::QMCCostFunction

=========================================================
  Start QMCFixedSampleLinearOptimize
  File Root K.log.s006 append = no 
=========================================================
  Skip QMCDriver::putQMCInfo 
  Resetting Properties of the walkers 1 x 13

=========================================================
  Start VMC
  File Root K.log.s006 append = no 
=========================================================
Using existing walkers 
  Resetting Properties of the walkers 1 x 13

<vmc function="put">
  qmc_counter=5  my_counter=5
  time step      = 1.5000e-01
  blocks         = 300
  steps          = 2
  substeps       = 5
  current        = 0
  target samples = 5.1200e+05
  walkers/mpi    = 1

  stepsbetweensamples = 1
<parameter name="blocks" condition="int">300</parameter>
<parameter name="blocks_between_recompute" condition="int">0</parameter>
<parameter name="check_properties" condition="int">100</parameter>
<parameter name="checkproperties" condition="int">100</parameter>
<parameter name="current" condition="int">0</parameter>
<parameter name="dmcwalkersperthread" condition="real">5.0000e+02</parameter>
<parameter name="maxcpusecs" condition="real">3.6000e+05</parameter>
<parameter name="record_configs" condition="int">0</parameter>
<parameter name="record_walkers" condition="int">1</parameter>
<parameter name="recordconfigs" condition="int">0</parameter>
<parameter name="recordwalkers" condition="int">1</parameter>
<parameter name="rewind" condition="int">0</parameter>
<parameter name="samples" condition="real">5.1200e+05</parameter>
<parameter name="samplesperthread" condition="real">5.0000e+02</parameter>
<parameter name="steps" condition="int">2</parameter>
<parameter name="stepsbetweensamples" condition="int">1</parameter>
<parameter name="store_configs" condition="int">0</parameter>
<parameter name="storeconfigs" condition="int">0</parameter>
<parameter name="sub_steps" condition="int">5</parameter>
<parameter name="substeps" condition="int">5</parameter>
<parameter name="tau" condition="au">1.5000e-01</parameter>
<parameter name="time_step" condition="au">1.5000e-01</parameter>
<parameter name="timestep" condition="au">1.5000e-01</parameter>
<parameter name="use_drift" condition="string">no</parameter>
<parameter name="usedrift" condition="string">no</parameter>
<parameter name="walkers" condition="int">1</parameter>
<parameter name="warmup_steps" condition="int">0</parameter>
<parameter name="warmupsteps" condition="int">0</parameter>
  DumpConfig==false Nothing (configurations, state) will be saved.
  Walker Samples are dumped every 1 steps.
</vmc>
  EstimatorManagerBase::add replace LocalEnergy estimator.
  EstimatorManagerBase::add replace LocalEnergy estimator.
<optimization-report>
<vmc stage="main" blocks="300">
  Cannot make clones again. Use existing 1 clones
  Initial partition of walkers 0 1 
  Using Particle by Particle moves
  Walker moves without drift
  Total Sample Size   =512000
  Walker distribution on root = 0 1 
  Using Locality Approximation
===== Memory Usage after the buffer registration =====
Available memory on node 0, free + buffers : 82919 MB
Memory footprint by rank 0 on node 0       : 104 MB
==================================================
====================================================
  SimpleFixedNodeBranch::finalize after a VMC block
    QMC counter        = 6
    time step          = 0.15
    reference energy   = -28.2218
    reference variance = 0.323546
====================================================
  Execution time = 2.2466e+00
</vmc>
<opt stage="setup">
  <log>
   Reading configurations from h5FileRoot K.log.s006
  QMCCostFunction is created with 1 threads.
  Using Nonlocal PP in Opt: NonLocalECP
   Number of samples loaded to each thread : 500 
  VMC Eavg = -2.8226e+01
  VMC Evar = 2.9970e-01
  Total weights = 5.1200e+05
  Execution time = 8.7193e-01
  </log>
</opt>
<opt stage="main" walkers="512000">
  <log>

*****************************************
Building overlap and Hamiltonian matrices
*****************************************

Among totally 82 optimized parameters, largest LM parameter change : 3.8493e-02 at parameter 21

******************************************************************************
Init Cost =  -2.6800e+01    New Cost =  -2.6800e+01  Delta Cost =  -4.5509e-05
******************************************************************************

The new set of parameters is valid. Updating the trial wave function!

*****************************************************************************
Applying the update for shift_i =   1.0000e-02     and shift_s =   3.9062e-03
*****************************************************************************
  Execution time = 3.7214e+00
  </log>
  <optVariables href="K.log.s006.opt.xml">
uu_0 3.9715e-01 1 1  ON 0
uu_1 1.7882e-01 1 1  ON 1
uu_2 -1.5242e-02 1 1  ON 2
uu_3 -7.9422e-02 1 1  ON 3
uu_4 -1.0195e-01 1 1  ON 4
uu_5 -1.2589e-01 1 1  ON 5
uu_6 -1.2638e-01 1 1  ON 6
uu_7 -6.7518e-02 1 1  ON 7
uu_8 -1.6621e-02 1 1  ON 8
uu_9 -5.0719e-03 1 1  ON 9
ud_0 5.4176e-01 1 1  ON 10
ud_1 1.1605e-01 1 1  ON 11
ud_2 -6.9473e-02 1 1  ON 12
ud_3 -7.7481e-02 1 1  ON 13
ud_4 -7.7548e-02 1 1  ON 14
ud_5 -1.2276e-01 1 1  ON 15
ud_6 -1.3655e-01 1 1  ON 16
ud_7 -8.1752e-02 1 1  ON 17
ud_8 -3.1191e-02 1 1  ON 18
ud_9 -2.1528e-02 1 1  ON 19
eK_0 -1.7870e+00 1 1  ON 20
eK_1 -1.4547e+00 1 1  ON 21
eK_2 1.4285e-01 1 1  ON 22
eK_3 4.4732e-01 1 1  ON 23
eK_4 7.6759e-01 1 1  ON 24
eK_5 7.1794e-01 1 1  ON 25
eK_6 7.4867e-01 1 1  ON 26
eK_7 3.6899e-01 1 1  ON 27
eK_8 5.7767e-02 1 1  ON 28
eK_9 -2.5994e-03 1 1  ON 29
uuK_0 1.6267e-07 1 1  ON 30
uuK_1 7.7515e-07 1 1  ON 31
uuK_2 7.4274e-08 1 1  ON 32
uuK_3 -2.0543e-07 1 1  ON 33
uuK_4 -1.8937e-08 1 1  ON 34
uuK_5 -5.2246e-08 1 1  ON 35
uuK_6 6.8474e-07 1 1  ON 36
uuK_7 1.5428e-07 1 1  ON 37
uuK_8 3.7529e-08 1 1  ON 38
uuK_9 -8.0378e-07 1 1  ON 39
uuK_10 -9.7047e-08 1 1  ON 40
uuK_11 -8.0191e-08 1 1  ON 41
uuK_12 5.5736e-09 1 1  ON 42
uuK_13 5.2748e-08 1 1  ON 43
uuK_14 -5.7056e-09 1 1  ON 44
uuK_15 -6.0002e-11 1 1  ON 45
uuK_16 7.1653e-07 1 1  ON 46
uuK_17 -1.0111e-07 1 1  ON 47
uuK_18 3.3205e-08 1 1  ON 48
uuK_19 -5.4693e-09 1 1  ON 49
uuK_20 -6.2256e-08 1 1  ON 50
uuK_21 2.1577e-09 1 1  ON 51
uuK_22 1.3141e-10 1 1  ON 52
uuK_23 5.3998e-09 1 1  ON 53
uuK_24 -6.6421e-10 1 1  ON 54
uuK_25 3.6952e-11 1 1  ON 55
udK_0 2.4968e-07 1 1  ON 56
udK_1 1.5829e-06 1 1  ON 57
udK_2 3.5728e-07 1 1  ON 58
udK_3 -2.7193e-07 1 1  ON 59
udK_4 -4.2586e-08 1 1  ON 60
udK_5 -4.8199e-09 1 1  ON 61
udK_6 1.7427e-06 1 1  ON 62
udK_7 7.2255e-08 1 1  ON 63
udK_8 1.7462e-07 1 1  ON 64
udK_9 -1.7644e-06 1 1  ON 65
udK_10 -8.7463e-08 1 1  ON 66
udK_11 -2.5567e-07 1 1  ON 67
udK_12 1.1421e-09 1 1  ON 68
udK_13 1.9183e-07 1 1  ON 69
udK_14 -5.9360e-09 1 1  ON 70
udK_15 1.7156e-10 1 1  ON 71
udK_16 1.6643e-06 1 1  ON 72
udK_17 -2.4226e-07 1 1  ON 73
udK_18 1.2334e-07 1 1  ON 74
udK_19 -1.1758e-08 1 1  ON 75
udK_20 -2.1504e-07 1 1  ON 76
udK_21 5.2422e-10 1 1  ON 77
udK_22 4.0767e-10 1 1  ON 78
udK_23 3.3165e-08 1 1  ON 79
udK_24 -1.3314e-09 1 1  ON 80
udK_25 8.0181e-11 1 1  ON 81
  </optVariables>
   Restore the number of walkers to 1, removing 0 walkers.
</opt>
</optimization-report>
  QMC Execution time = 3.7336e+00 secs
  Reusing QMCFixedSampleLinearOptimize
 Using QMCCostFunction::QMCCostFunction

=========================================================
  Start QMCFixedSampleLinearOptimize
  File Root K.log.s007 append = no 
=========================================================
  Skip QMCDriver::putQMCInfo 
  Resetting Properties of the walkers 1 x 13

=========================================================
  Start VMC
  File Root K.log.s007 append = no 
=========================================================
Using existing walkers 
  Resetting Properties of the walkers 1 x 13

<vmc function="put">
  qmc_counter=6  my_counter=6
  time step      = 1.5000e-01
  blocks         = 300
  steps          = 2
  substeps       = 5
  current        = 0
  target samples = 5.1200e+05
  walkers/mpi    = 1

  stepsbetweensamples = 1
<parameter name="blocks" condition="int">300</parameter>
<parameter name="blocks_between_recompute" condition="int">0</parameter>
<parameter name="check_properties" condition="int">100</parameter>
<parameter name="checkproperties" condition="int">100</parameter>
<parameter name="current" condition="int">0</parameter>
<parameter name="dmcwalkersperthread" condition="real">5.0000e+02</parameter>
<parameter name="maxcpusecs" condition="real">3.6000e+05</parameter>
<parameter name="record_configs" condition="int">0</parameter>
<parameter name="record_walkers" condition="int">1</parameter>
<parameter name="recordconfigs" condition="int">0</parameter>
<parameter name="recordwalkers" condition="int">1</parameter>
<parameter name="rewind" condition="int">0</parameter>
<parameter name="samples" condition="real">5.1200e+05</parameter>
<parameter name="samplesperthread" condition="real">5.0000e+02</parameter>
<parameter name="steps" condition="int">2</parameter>
<parameter name="stepsbetweensamples" condition="int">1</parameter>
<parameter name="store_configs" condition="int">0</parameter>
<parameter name="storeconfigs" condition="int">0</parameter>
<parameter name="sub_steps" condition="int">5</parameter>
<parameter name="substeps" condition="int">5</parameter>
<parameter name="tau" condition="au">1.5000e-01</parameter>
<parameter name="time_step" condition="au">1.5000e-01</parameter>
<parameter name="timestep" condition="au">1.5000e-01</parameter>
<parameter name="use_drift" condition="string">no</parameter>
<parameter name="usedrift" condition="string">no</parameter>
<parameter name="walkers" condition="int">1</parameter>
<parameter name="warmup_steps" condition="int">0</parameter>
<parameter name="warmupsteps" condition="int">0</parameter>
  DumpConfig==false Nothing (configurations, state) will be saved.
  Walker Samples are dumped every 1 steps.
</vmc>
  EstimatorManagerBase::add replace LocalEnergy estimator.
  EstimatorManagerBase::add replace LocalEnergy estimator.
<optimization-report>
<vmc stage="main" blocks="300">
  Cannot make clones again. Use existing 1 clones
  Initial partition of walkers 0 1 
  Using Particle by Particle moves
  Walker moves without drift
  Total Sample Size   =512000
  Walker distribution on root = 0 1 
  Using Locality Approximation
===== Memory Usage after the buffer registration =====
Available memory on node 0, free + buffers : 82916 MB
Memory footprint by rank 0 on node 0       : 106 MB
==================================================
====================================================
  SimpleFixedNodeBranch::finalize after a VMC block
    QMC counter        = 7
    time step          = 0.15
    reference energy   = -28.2263
    reference variance = 0.318566
====================================================
  Execution time = 2.3119e+00
</vmc>
<opt stage="setup">
  <log>
   Reading configurations from h5FileRoot K.log.s007
  QMCCostFunction is created with 1 threads.
  Using Nonlocal PP in Opt: NonLocalECP
   Number of samples loaded to each thread : 500 
  VMC Eavg = -2.8226e+01
  VMC Evar = 3.3329e-01
  Total weights = 5.1200e+05
  Execution time = 8.7789e-01
  </log>
</opt>
<opt stage="main" walkers="512000">
  <log>

*****************************************
Building overlap and Hamiltonian matrices
*****************************************

Among totally 82 optimized parameters, largest LM parameter change : 3.0012e-02 at parameter 21

******************************************************************************
Init Cost =  -2.6798e+01    New Cost =  -2.6798e+01  Delta Cost =  -3.5725e-05
******************************************************************************

The new set of parameters is valid. Updating the trial wave function!

*****************************************************************************
Applying the update for shift_i =   1.0000e-02     and shift_s =   3.9062e-03
*****************************************************************************
  Execution time = 3.7273e+00
  </log>
  <optVariables href="K.log.s007.opt.xml">
uu_0 4.0104e-01 1 1  ON 0
uu_1 1.8191e-01 1 1  ON 1
uu_2 -1.2019e-02 1 1  ON 2
uu_3 -7.4487e-02 1 1  ON 3
uu_4 -9.7289e-02 1 1  ON 4
uu_5 -1.2647e-01 1 1  ON 5
uu_6 -1.2938e-01 1 1  ON 6
uu_7 -7.2092e-02 1 1  ON 7
uu_8 -2.2420e-02 1 1  ON 8
uu_9 -9.6732e-03 1 1  ON 9
ud_0 5.4217e-01 1 1  ON 10
ud_1 1.1931e-01 1 1  ON 11
ud_2 -6.3672e-02 1 1  ON 12
ud_3 -7.3304e-02 1 1  ON 13
ud_4 -7.8219e-02 1 1  ON 14
ud_5 -1.2412e-01 1 1  ON 15
ud_6 -1.3732e-01 1 1  ON 16
ud_7 -7.9951e-02 1 1  ON 17
ud_8 -3.6315e-02 1 1  ON 18
ud_9 -2.5051e-02 1 1  ON 19
eK_0 -1.7678e+00 1 1  ON 20
eK_1 -1.4847e+00 1 1  ON 21
eK_2 1.4366e-01 1 1  ON 22
eK_3 4.6775e-01 1 1  ON 23
eK_4 7.5696e-01 1 1  ON 24
eK_5 6.9964e-01 1 1  ON 25
eK_6 7.5404e-01 1 1  ON 26
eK_7 3.8067e-01 1 1  ON 27
eK_8 6.0593e-02 1 1  ON 28
eK_9 -3.6810e-03 1 1  ON 29
uuK_0 1.5144e-07 1 1  ON 30
uuK_1 7.8131e-07 1 1  ON 31
uuK_2 8.2641e-08 1 1  ON 32
uuK_3 -1.9266e-07 1 1  ON 33
uuK_4 -1.7812e-08 1 1  ON 34
uuK_5 -4.8065e-08 1 1  ON 35
uuK_6 7.0633e-07 1 1  ON 36
uuK_7 1.5319e-07 1 1  ON 37
uuK_8 3.4400e-08 1 1  ON 38
uuK_9 -8.0951e-07 1 1  ON 39
uuK_10 -9.0395e-08 1 1  ON 40
uuK_11 -8.0997e-08 1 1  ON 41
uuK_12 7.1604e-09 1 1  ON 42
uuK_13 4.0926e-08 1 1  ON 43
uuK_14 -7.5904e-09 1 1  ON 44
uuK_15 -3.9632e-11 1 1  ON 45
uuK_16 7.1635e-07 1 1  ON 46
uuK_17 -1.1210e-07 1 1  ON 47
uuK_18 3.3216e-08 1 1  ON 48
uuK_19 -6.0231e-09 1 1  ON 49
uuK_20 -5.4044e-08 1 1  ON 50
uuK_21 2.4726e-09 1 1  ON 51
uuK_22 1.4399e-10 1 1  ON 52
uuK_23 2.4891e-09 1 1  ON 53
uuK_24 -6.0079e-10 1 1  ON 54
uuK_25 2.9140e-11 1 1  ON 55
udK_0 2.5854e-07 1 1  ON 56
udK_1 1.6061e-06 1 1  ON 57
udK_2 3.5777e-07 1 1  ON 58
udK_3 -2.8535e-07 1 1  ON 59
udK_4 -4.3015e-08 1 1  ON 60
udK_5 -1.2192e-08 1 1  ON 61
udK_6 1.7539e-06 1 1  ON 62
udK_7 6.7978e-08 1 1  ON 63
udK_8 1.8003e-07 1 1  ON 64
udK_9 -1.7815e-06 1 1  ON 65
udK_10 -9.0346e-08 1 1  ON 66
udK_11 -2.5896e-07 1 1  ON 67
udK_12 4.6605e-10 1 1  ON 68
udK_13 1.9992e-07 1 1  ON 69
udK_14 -5.2205e-09 1 1  ON 70
udK_15 1.6945e-10 1 1  ON 71
udK_16 1.6799e-06 1 1  ON 72
udK_17 -2.3797e-07 1 1  ON 73
udK_18 1.2436e-07 1 1  ON 74
udK_19 -1.1832e-08 1 1  ON 75
udK_20 -2.1944e-07 1 1  ON 76
udK_21 5.1575e-10 1 1  ON 77
udK_22 4.1764e-10 1 1  ON 78
udK_23 3.3570e-08 1 1  ON 79
udK_24 -1.3444e-09 1 1  ON 80
udK_25 7.9930e-11 1 1  ON 81
  </optVariables>
   Restore the number of walkers to 1, removing 0 walkers.
</opt>
</optimization-report>
  QMC Execution time = 3.7576e+00 secs
  Reusing QMCFixedSampleLinearOptimize
 Using QMCCostFunction::QMCCostFunction

=========================================================
  Start QMCFixedSampleLinearOptimize
  File Root K.log.s008 append = no 
=========================================================
  Skip QMCDriver::putQMCInfo 
  Resetting Properties of the walkers 1 x 13

=========================================================
  Start VMC
  File Root K.log.s008 append = no 
=========================================================
Using existing walkers 
  Resetting Properties of the walkers 1 x 13

<vmc function="put">
  qmc_counter=7  my_counter=7
  time step      = 1.5000e-01
  blocks         = 300
  steps          = 2
  substeps       = 5
  current        = 0
  target samples = 5.1200e+05
  walkers/mpi    = 1

  stepsbetweensamples = 1
<parameter name="blocks" condition="int">300</parameter>
<parameter name="blocks_between_recompute" condition="int">0</parameter>
<parameter name="check_properties" condition="int">100</parameter>
<parameter name="checkproperties" condition="int">100</parameter>
<parameter name="current" condition="int">0</parameter>
<parameter name="dmcwalkersperthread" condition="real">5.0000e+02</parameter>
<parameter name="maxcpusecs" condition="real">3.6000e+05</parameter>
<parameter name="record_configs" condition="int">0</parameter>
<parameter name="record_walkers" condition="int">1</parameter>
<parameter name="recordconfigs" condition="int">0</parameter>
<parameter name="recordwalkers" condition="int">1</parameter>
<parameter name="rewind" condition="int">0</parameter>
<parameter name="samples" condition="real">5.1200e+05</parameter>
<parameter name="samplesperthread" condition="real">5.0000e+02</parameter>
<parameter name="steps" condition="int">2</parameter>
<parameter name="stepsbetweensamples" condition="int">1</parameter>
<parameter name="store_configs" condition="int">0</parameter>
<parameter name="storeconfigs" condition="int">0</parameter>
<parameter name="sub_steps" condition="int">5</parameter>
<parameter name="substeps" condition="int">5</parameter>
<parameter name="tau" condition="au">1.5000e-01</parameter>
<parameter name="time_step" condition="au">1.5000e-01</parameter>
<parameter name="timestep" condition="au">1.5000e-01</parameter>
<parameter name="use_drift" condition="string">no</parameter>
<parameter name="usedrift" condition="string">no</parameter>
<parameter name="walkers" condition="int">1</parameter>
<parameter name="warmup_steps" condition="int">0</parameter>
<parameter name="warmupsteps" condition="int">0</parameter>
  DumpConfig==false Nothing (configurations, state) will be saved.
  Walker Samples are dumped every 1 steps.
</vmc>
  EstimatorManagerBase::add replace LocalEnergy estimator.
  EstimatorManagerBase::add replace LocalEnergy estimator.
<optimization-report>
<vmc stage="main" blocks="300">
  Cannot make clones again. Use existing 1 clones
  Initial partition of walkers 0 1 
  Using Particle by Particle moves
  Walker moves without drift
  Total Sample Size   =512000
  Walker distribution on root = 0 1 
  Using Locality Approximation
===== Memory Usage after the buffer registration =====
Available memory on node 0, free + buffers : 82913 MB
Memory footprint by rank 0 on node 0       : 108 MB
==================================================
====================================================
  SimpleFixedNodeBranch::finalize after a VMC block
    QMC counter        = 8
    time step          = 0.15
    reference energy   = -28.2335
    reference variance = 0.263545
====================================================
  Execution time = 2.2991e+00
</vmc>
<opt stage="setup">
  <log>
   Reading configurations from h5FileRoot K.log.s008
  QMCCostFunction is created with 1 threads.
  Using Nonlocal PP in Opt: NonLocalECP
   Number of samples loaded to each thread : 500 
  VMC Eavg = -2.8226e+01
  VMC Evar = 3.0016e-01
  Total weights = 5.1200e+05
  Execution time = 9.0585e-01
  </log>
</opt>
<opt stage="main" walkers="512000">
  <log>

*****************************************
Building overlap and Hamiltonian matrices
*****************************************

Among totally 82 optimized parameters, largest LM parameter change : 2.3029e-02 at parameter 21

******************************************************************************
Init Cost =  -2.6800e+01    New Cost =  -2.6800e+01  Delta Cost =  -1.2415e-04
******************************************************************************

The new set of parameters is valid. Updating the trial wave function!

*****************************************************************************
Applying the update for shift_i =   1.0000e-02     and shift_s =   3.9062e-03
*****************************************************************************
  Execution time = 3.7609e+00
  </log>
  <optVariables href="K.log.s008.opt.xml">
uu_0 4.0740e-01 1 1  ON 0
uu_1 1.8260e-01 1 1  ON 1
uu_2 -1.3273e-02 1 1  ON 2
uu_3 -7.4420e-02 1 1  ON 3
uu_4 -9.5504e-02 1 1  ON 4
uu_5 -1.3130e-01 1 1  ON 5
uu_6 -1.3581e-01 1 1  ON 6
uu_7 -7.8849e-02 1 1  ON 7
uu_8 -2.3359e-02 1 1  ON 8
uu_9 -6.8745e-03 1 1  ON 9
ud_0 5.4580e-01 1 1  ON 10
ud_1 1.1923e-01 1 1  ON 11
ud_2 -6.2404e-02 1 1  ON 12
ud_3 -7.0947e-02 1 1  ON 13
ud_4 -7.9845e-02 1 1  ON 14
ud_5 -1.2607e-01 1 1  ON 15
ud_6 -1.4289e-01 1 1  ON 16
ud_7 -8.7881e-02 1 1  ON 17
ud_8 -3.8180e-02 1 1  ON 18
ud_9 -2.2172e-02 1 1  ON 19
eK_0 -1.7520e+00 1 1  ON 20
eK_1 -1.5078e+00 1 1  ON 21
eK_2 1.4242e-01 1 1  ON 22
eK_3 4.8541e-01 1 1  ON 23
eK_4 7.4693e-01 1 1  ON 24
eK_5 6.7874e-01 1 1  ON 25
eK_6 7.5815e-01 1 1  ON 26
eK_7 3.9093e-01 1 1  ON 27
eK_8 6.4904e-02 1 1  ON 28
eK_9 -2.8317e-03 1 1  ON 29
uuK_0 1.6500e-07 1 1  ON 30
uuK_1 7.8148e-07 1 1  ON 31
uuK_2 8.2268e-08 1 1  ON 32
uuK_3 -2.0253e-07 1 1  ON 33
uuK_4 -1.7556e-08 1 1  ON 34
uuK_5 -6.4591e-08 1 1  ON 35
uuK_6 7.0357e-07 1 1  ON 36
uuK_7 1.4446e-07 1 1  ON 37
uuK_8 3.7308e-08 1 1  ON 38
uuK_9 -8.2077e-07 1 1  ON 39
uuK_10 -8.8754e-08 1 1  ON 40
uuK_11 -8.5001e-08 1 1  ON 41
uuK_12 7.0801e-09 1 1  ON 42
uuK_13 4.8586e-08 1 1  ON 43
uuK_14 -7.3984e-09 1 1  ON 44
uuK_15 -4.2916e-11 1 1  ON 45
uuK_16 7.3555e-07 1 1  ON 46
uuK_17 -1.1245e-07 1 1  ON 47
uuK_18 3.7613e-08 1 1  ON 48
uuK_19 -6.4994e-09 1 1  ON 49
uuK_20 -6.2884e-08 1 1  ON 50
uuK_21 2.2409e-09 1 1  ON 51
uuK_22 1.9046e-10 1 1  ON 52
uuK_23 4.6992e-09 1 1  ON 53
uuK_24 -6.7256e-10 1 1  ON 54
uuK_25 3.1145e-11 1 1  ON 55
udK_0 2.7368e-07 1 1  ON 56
udK_1 1.6176e-06 1 1  ON 57
udK_2 3.4686e-07 1 1  ON 58
udK_3 -2.8355e-07 1 1  ON 59
udK_4 -4.2019e-08 1 1  ON 60
udK_5 4.3859e-10 1 1  ON 61
udK_6 1.7547e-06 1 1  ON 62
udK_7 6.0237e-08 1 1  ON 63
udK_8 1.7233e-07 1 1  ON 64
udK_9 -1.7953e-06 1 1  ON 65
udK_10 -9.2151e-08 1 1  ON 66
udK_11 -2.5191e-07 1 1  ON 67
udK_12 1.8043e-09 1 1  ON 68
udK_13 2.0820e-07 1 1  ON 69
udK_14 -6.1984e-09 1 1  ON 70
udK_15 1.4155e-10 1 1  ON 71
udK_16 1.7032e-06 1 1  ON 72
udK_17 -2.3628e-07 1 1  ON 73
udK_18 1.2086e-07 1 1  ON 74
udK_19 -1.1977e-08 1 1  ON 75
udK_20 -2.2672e-07 1 1  ON 76
udK_21 1.1766e-09 1 1  ON 77
udK_22 3.8419e-10 1 1  ON 78
udK_23 3.5780e-08 1 1  ON 79
udK_24 -1.5255e-09 1 1  ON 80
udK_25 9.5238e-11 1 1  ON 81
  </optVariables>
   Restore the number of walkers to 1, removing 0 walkers.
</opt>
</optimization-report>
  QMC Execution time = 3.7779e+00 secs
  Reusing QMCFixedSampleLinearOptimize
 Using QMCCostFunction::QMCCostFunction

=========================================================
  Start QMCFixedSampleLinearOptimize
  File Root K.log.s009 append = no 
=========================================================
  Skip QMCDriver::putQMCInfo 
  Resetting Properties of the walkers 1 x 13

=========================================================
  Start VMC
  File Root K.log.s009 append = no 
=========================================================
Using existing walkers 
  Resetting Properties of the walkers 1 x 13

<vmc function="put">
  qmc_counter=8  my_counter=8
  time step      = 1.5000e-01
  blocks         = 300
  steps          = 2
  substeps       = 5
  current        = 0
  target samples = 5.1200e+05
  walkers/mpi    = 1

  stepsbetweensamples = 1
<parameter name="blocks" condition="int">300</parameter>
<parameter name="blocks_between_recompute" condition="int">0</parameter>
<parameter name="check_properties" condition="int">100</parameter>
<parameter name="checkproperties" condition="int">100</parameter>
<parameter name="current" condition="int">0</parameter>
<parameter name="dmcwalkersperthread" condition="real">5.0000e+02</parameter>
<parameter name="maxcpusecs" condition="real">3.6000e+05</parameter>
<parameter name="record_configs" condition="int">0</parameter>
<parameter name="record_walkers" condition="int">1</parameter>
<parameter name="recordconfigs" condition="int">0</parameter>
<parameter name="recordwalkers" condition="int">1</parameter>
<parameter name="rewind" condition="int">0</parameter>
<parameter name="samples" condition="real">5.1200e+05</parameter>
<parameter name="samplesperthread" condition="real">5.0000e+02</parameter>
<parameter name="steps" condition="int">2</parameter>
<parameter name="stepsbetweensamples" condition="int">1</parameter>
<parameter name="store_configs" condition="int">0</parameter>
<parameter name="storeconfigs" condition="int">0</parameter>
<parameter name="sub_steps" condition="int">5</parameter>
<parameter name="substeps" condition="int">5</parameter>
<parameter name="tau" condition="au">1.5000e-01</parameter>
<parameter name="time_step" condition="au">1.5000e-01</parameter>
<parameter name="timestep" condition="au">1.5000e-01</parameter>
<parameter name="use_drift" condition="string">no</parameter>
<parameter name="usedrift" condition="string">no</parameter>
<parameter name="walkers" condition="int">1</parameter>
<parameter name="warmup_steps" condition="int">0</parameter>
<parameter name="warmupsteps" condition="int">0</parameter>
  DumpConfig==false Nothing (configurations, state) will be saved.
  Walker Samples are dumped every 1 steps.
</vmc>
  EstimatorManagerBase::add replace LocalEnergy estimator.
  EstimatorManagerBase::add replace LocalEnergy estimator.
<optimization-report>
<vmc stage="main" blocks="300">
  Cannot make clones again. Use existing 1 clones
  Initial partition of walkers 0 1 
  Using Particle by Particle moves
  Walker moves without drift
  Total Sample Size   =512000
  Walker distribution on root = 0 1 
  Using Locality Approximation
===== Memory Usage after the buffer registration =====
Available memory on node 0, free + buffers : 82911 MB
Memory footprint by rank 0 on node 0       : 110 MB
==================================================
====================================================
  SimpleFixedNodeBranch::finalize after a VMC block
    QMC counter        = 9
    time step          = 0.15
    reference energy   = -28.2285
    reference variance = 0.292608
====================================================
  Execution time = 2.4667e+00
</vmc>
<opt stage="setup">
  <log>
   Reading configurations from h5FileRoot K.log.s009
  QMCCostFunction is created with 1 threads.
  Using Nonlocal PP in Opt: NonLocalECP
   Number of samples loaded to each thread : 500 
  VMC Eavg = -2.8225e+01
  VMC Evar = 3.0298e-01
  Total weights = 5.1200e+05
  Execution time = 8.7769e-01
  </log>
</opt>
<opt stage="main" walkers="512000">
  <log>

*****************************************
Building overlap and Hamiltonian matrices
*****************************************

Among totally 82 optimized parameters, largest LM parameter change : 2.0695e-02 at parameter 21

******************************************************************************
Init Cost =  -2.6799e+01    New Cost =  -2.6799e+01  Delta Cost =   1.1490e-05
******************************************************************************

The new set of parameters is valid. Updating the trial wave function!

*****************************************************************************
Applying the update for shift_i =   1.0000e-02     and shift_s =   3.9062e-03
*****************************************************************************
  Execution time = 3.9168e+00
  </log>
  <optVariables href="K.log.s009.opt.xml">
uu_0 4.1106e-01 1 1  ON 0
uu_1 1.8345e-01 1 1  ON 1
uu_2 -1.2799e-02 1 1  ON 2
uu_3 -7.1522e-02 1 1  ON 3
uu_4 -9.4595e-02 1 1  ON 4
uu_5 -1.3042e-01 1 1  ON 5
uu_6 -1.3790e-01 1 1  ON 6
uu_7 -7.9705e-02 1 1  ON 7
uu_8 -2.8320e-02 1 1  ON 8
uu_9 -8.1027e-03 1 1  ON 9
ud_0 5.4630e-01 1 1  ON 10
ud_1 1.2063e-01 1 1  ON 11
ud_2 -6.0509e-02 1 1  ON 12
ud_3 -7.2911e-02 1 1  ON 13
ud_4 -8.1473e-02 1 1  ON 14
ud_5 -1.2364e-01 1 1  ON 15
ud_6 -1.4037e-01 1 1  ON 16
ud_7 -8.8491e-02 1 1  ON 17
ud_8 -4.2419e-02 1 1  ON 18
ud_9 -2.1164e-02 1 1  ON 19
eK_0 -1.7382e+00 1 1  ON 20
eK_1 -1.5285e+00 1 1  ON 21
eK_2 1.4245e-01 1 1  ON 22
eK_3 4.9973e-01 1 1  ON 23
eK_4 7.3941e-01 1 1  ON 24
eK_5 6.6074e-01 1 1  ON 25
eK_6 7.5972e-01 1 1  ON 26
eK_7 4.0208e-01 1 1  ON 27
eK_8 7.0080e-02 1 1  ON 28
eK_9 -2.6108e-03 1 1  ON 29
uuK_0 1.5820e-07 1 1  ON 30
uuK_1 8.0530e-07 1 1  ON 31
uuK_2 8.7867e-08 1 1  ON 32
uuK_3 -2.0887e-07 1 1  ON 33
uuK_4 -1.8772e-08 1 1  ON 34
uuK_5 -6.5556e-08 1 1  ON 35
uuK_6 7.2379e-07 1 1  ON 36
uuK_7 1.4475e-07 1 1  ON 37
uuK_8 3.9515e-08 1 1  ON 38
uuK_9 -8.2585e-07 1 1  ON 39
uuK_10 -9.2955e-08 1 1  ON 40
uuK_11 -8.3118e-08 1 1  ON 41
uuK_12 6.6000e-09 1 1  ON 42
uuK_13 5.0257e-08 1 1  ON 43
uuK_14 -7.2728e-09 1 1  ON 44
uuK_15 -1.9352e-11 1 1  ON 45
uuK_16 7.2237e-07 1 1  ON 46
uuK_17 -1.0848e-07 1 1  ON 47
uuK_18 3.5134e-08 1 1  ON 48
uuK_19 -6.2405e-09 1 1  ON 49
uuK_20 -5.7440e-08 1 1  ON 50
uuK_21 2.3216e-09 1 1  ON 51
uuK_22 1.6931e-10 1 1  ON 52
uuK_23 2.6992e-09 1 1  ON 53
uuK_24 -6.0294e-10 1 1  ON 54
uuK_25 2.8790e-11 1 1  ON 55
udK_0 2.8185e-07 1 1  ON 56
udK_1 1.6243e-06 1 1  ON 57
udK_2 3.4704e-07 1 1  ON 58
udK_3 -2.8789e-07 1 1  ON 59
udK_4 -4.2168e-08 1 1  ON 60
udK_5 -3.0516e-09 1 1  ON 61
udK_6 1.7517e-06 1 1  ON 62
udK_7 6.4657e-08 1 1  ON 63
udK_8 1.7852e-07 1 1  ON 64
udK_9 -1.8028e-06 1 1  ON 65
udK_10 -9.1047e-08 1 1  ON 66
udK_11 -2.5888e-07 1 1  ON 67
udK_12 8.1875e-10 1 1  ON 68
udK_13 2.1251e-07 1 1  ON 69
udK_14 -4.6884e-09 1 1  ON 70
udK_15 1.0200e-10 1 1  ON 71
udK_16 1.7131e-06 1 1  ON 72
[...]
    QMC counter        = 20
    time step          = 0.15
    reference energy   = -28.2585
    reference variance = 0.288069
====================================================
  Execution time = 2.3227e+00
</vmc>
<opt stage="setup">
  <log>
   Reading configurations from h5FileRoot K.log.s020
  QMCCostFunction is created with 1 threads.
  Using Nonlocal PP in Opt: NonLocalECP
   Number of samples loaded to each thread : 500 
  VMC Eavg = -2.8228e+01
  VMC Evar = 3.0029e-01
  Total weights = 5.1200e+05
  Execution time = 8.7816e-01
  </log>
</opt>
<opt stage="main" walkers="512000">
  <log>

*****************************************
Building overlap and Hamiltonian matrices
*****************************************

Among totally 82 optimized parameters, largest LM parameter change : 1.1190e-02 at parameter 25

******************************************************************************
Init Cost =  -2.6801e+01    New Cost =  -2.6801e+01  Delta Cost =  -1.2024e-04
******************************************************************************

The new set of parameters is valid. Updating the trial wave function!

*****************************************************************************
Applying the update for shift_i =   1.0000e-02     and shift_s =   3.9062e-03
*****************************************************************************
  Execution time = 3.7481e+00
  </log>
  <optVariables href="K.log.s020.opt.xml">
uu_0 4.2920e-01 1 1  ON 0
uu_1 2.0147e-01 1 1  ON 1
uu_2 1.0293e-02 1 1  ON 2
uu_3 -5.0412e-02 1 1  ON 3
uu_4 -8.1094e-02 1 1  ON 4
uu_5 -1.2238e-01 1 1  ON 5
uu_6 -1.3601e-01 1 1  ON 6
uu_7 -1.0696e-01 1 1  ON 7
uu_8 -4.8435e-02 1 1  ON 8
uu_9 -3.0338e-02 1 1  ON 9
ud_0 5.5510e-01 1 1  ON 10
ud_1 1.2698e-01 1 1  ON 11
ud_2 -5.4955e-02 1 1  ON 12
ud_3 -5.9904e-02 1 1  ON 13
ud_4 -6.2329e-02 1 1  ON 14
ud_5 -1.0966e-01 1 1  ON 15
ud_6 -1.3432e-01 1 1  ON 16
ud_7 -1.0131e-01 1 1  ON 17
ud_8 -5.5392e-02 1 1  ON 18
ud_9 -3.6475e-02 1 1  ON 19
eK_0 -1.6919e+00 1 1  ON 20
eK_1 -1.6366e+00 1 1  ON 21
eK_2 1.4366e-01 1 1  ON 22
eK_3 6.2013e-01 1 1  ON 23
eK_4 6.9078e-01 1 1  ON 24
eK_5 5.2958e-01 1 1  ON 25
eK_6 7.4809e-01 1 1  ON 26
eK_7 4.9465e-01 1 1  ON 27
eK_8 1.1883e-01 1 1  ON 28
eK_9 -5.4610e-03 1 1  ON 29
uuK_0 1.7943e-07 1 1  ON 30
uuK_1 8.2646e-07 1 1  ON 31
uuK_2 9.1172e-08 1 1  ON 32
uuK_3 -2.1453e-07 1 1  ON 33
uuK_4 -1.8972e-08 1 1  ON 34
uuK_5 -7.4486e-08 1 1  ON 35
uuK_6 7.4370e-07 1 1  ON 36
uuK_7 1.3513e-07 1 1  ON 37
uuK_8 4.7889e-08 1 1  ON 38
uuK_9 -8.6668e-07 1 1  ON 39
uuK_10 -8.9801e-08 1 1  ON 40
uuK_11 -9.2570e-08 1 1  ON 41
uuK_12 5.4022e-09 1 1  ON 42
uuK_13 6.2157e-08 1 1  ON 43
uuK_14 -5.8621e-09 1 1  ON 44
uuK_15 -2.9439e-11 1 1  ON 45
uuK_16 7.7890e-07 1 1  ON 46
uuK_17 -1.0775e-07 1 1  ON 47
uuK_18 3.8910e-08 1 1  ON 48
uuK_19 -6.1639e-09 1 1  ON 49
uuK_20 -7.1513e-08 1 1  ON 50
uuK_21 2.2132e-09 1 1  ON 51
uuK_22 1.7400e-10 1 1  ON 52
uuK_23 5.5553e-09 1 1  ON 53
uuK_24 -7.0743e-10 1 1  ON 54
uuK_25 3.3812e-11 1 1  ON 55
udK_0 2.8399e-07 1 1  ON 56
udK_1 1.6443e-06 1 1  ON 57
udK_2 3.5461e-07 1 1  ON 58
udK_3 -2.7806e-07 1 1  ON 59
udK_4 -4.1094e-08 1 1  ON 60
udK_5 -1.0795e-09 1 1  ON 61
udK_6 1.7746e-06 1 1  ON 62
udK_7 6.6833e-08 1 1  ON 63
udK_8 1.7439e-07 1 1  ON 64
udK_9 -1.8218e-06 1 1  ON 65
udK_10 -8.2203e-08 1 1  ON 66
udK_11 -2.6825e-07 1 1  ON 67
udK_12 3.0393e-09 1 1  ON 68
udK_13 1.9322e-07 1 1  ON 69
udK_14 -7.3746e-09 1 1  ON 70
udK_15 1.4247e-10 1 1  ON 71
udK_16 1.7653e-06 1 1  ON 72
udK_17 -2.6283e-07 1 1  ON 73
udK_18 1.3358e-07 1 1  ON 74
udK_19 -1.3264e-08 1 1  ON 75
udK_20 -2.3099e-07 1 1  ON 76
udK_21 5.7015e-10 1 1  ON 77
udK_22 4.8370e-10 1 1  ON 78
udK_23 3.5759e-08 1 1  ON 79
udK_24 -1.4717e-09 1 1  ON 80
udK_25 8.4629e-11 1 1  ON 81
  </optVariables>
   Restore the number of walkers to 1, removing 0 walkers.
</opt>
</optimization-report>
  QMC Execution time = 5.1778e+00 secs

=========================================================
  Start VMC
  File Root K.log.s021 append = no 
=========================================================
  Using the current 1 walkers.
  Total number of walkers: 1.0240e+03
  Total weight: 1.0240e+03
  Resetting Properties of the walkers 1 x 13

<vmc function="put">
  qmc_counter=0  my_counter=0
  time step      = 1.5000e-01
  blocks         = 200
  steps          = 1
  substeps       = 30
  current        = 0
  target samples = 4.0960e+03
  walkers/mpi    = 1

  stepsbetweensamples = 50
<parameter name="blocks" condition="int">200</parameter>
<parameter name="blocks_between_recompute" condition="int">0</parameter>
<parameter name="check_properties" condition="int">100</parameter>
<parameter name="checkproperties" condition="int">100</parameter>
<parameter name="current" condition="int">0</parameter>
<parameter name="dmcwalkersperthread" condition="real">4.0000e+00</parameter>
<parameter name="maxcpusecs" condition="real">3.6000e+05</parameter>
<parameter name="record_configs" condition="int">0</parameter>
<parameter name="record_walkers" condition="int">50</parameter>
<parameter name="recordconfigs" condition="int">0</parameter>
<parameter name="recordwalkers" condition="int">50</parameter>
<parameter name="rewind" condition="int">0</parameter>
<parameter name="samples" condition="real">4.0960e+03</parameter>
<parameter name="samplesperthread" condition="real">4.0000e+00</parameter>
<parameter name="steps" condition="int">1</parameter>
<parameter name="stepsbetweensamples" condition="int">50</parameter>
<parameter name="store_configs" condition="int">0</parameter>
<parameter name="storeconfigs" condition="int">0</parameter>
<parameter name="sub_steps" condition="int">30</parameter>
<parameter name="substeps" condition="int">30</parameter>
<parameter name="tau" condition="au">1.5000e-01</parameter>
<parameter name="time_step" condition="au">1.5000e-01</parameter>
<parameter name="timestep" condition="au">1.5000e-01</parameter>
<parameter name="use_drift" condition="string">no</parameter>
<parameter name="usedrift" condition="string">no</parameter>
<parameter name="walkers" condition="int">1</parameter>
<parameter name="warmup_steps" condition="int">100</parameter>
<parameter name="warmupsteps" condition="int">100</parameter>
  DumpConfig==false Nothing (configurations, state) will be saved.
  Walker Samples are dumped every 50 steps.
</vmc>
  EstimatorManagerBase::add replace LocalEnergy estimator.
  Cannot make clones again. Use existing 1 clones
  Initial partition of walkers 0 1 

  Using Particle by Particle moves
  Walker moves without drift
  Total Sample Size   =4096
  Walker distribution on root = 0 1 
  Using Locality Approximation
===== Memory Usage after the buffer registration =====
Available memory on node 0, free + buffers : 82869 MB
Memory footprint by rank 0 on node 0       : 137 MB
==================================================
  Anonymous Buffer size per walker : 3840 Bytes.
MEMORY increase 0 MB VMC::resetRun
====================================================
  SimpleFixedNodeBranch::finalize after a VMC block
    QMC counter        = 21
    time step          = 0.15
    reference energy   = -28.2363
    reference variance = 0.249618
====================================================
  QMC Execution time = 3.7962e+00 secs

=========================================================
  Start DMC
  File Root K.log.s022 append = no 
=========================================================
Using existing walkers 
  Resetting Properties of the walkers 1 x 13
  EstimatorManagerBase::add replace LocalEnergy estimator.
  Cannot make clones again. Use existing 1 clones
  Total number of walkers: 4.0960e+03
  Total weight: 4.0960e+03
  Creating WalkerController: target  number of walkers = 4096
  Using WalkerControlMPI for dynamic population control.
  START ALL OVER 
  WalkerControlBase parameters 
    maxCopy = 2
    Max Walkers per MPI rank 9
    Min Walkers per MPI rank 1
    Using non-blocking send/recv
  QMC counter      = 22
  time step        = 2.0000e-02
  effective time step = 2.0000e-02
  trial energy     = -2.8236e+01
  reference energy = -2.8236e+01
  Feedback = 1.0000e+00
  reference variance = 2.4962e-01
  target walkers = 4096
  branching cutoff scheme classic
  branch cutoff = 5.0000e+01 7.5000e+01
  Max and minimum walkers per node= 9 1
  QMC Status (BranchMode) = 0000001101
  Initial partition of walkers on a node: 0 4 
  Updates by particle-by-particle moves
  DMC moves are rejected when a node crossing is detected
  Using Non-local T-moves v0, M. Casula, PRB 74, 161102(R) (2006)
===== Memory Usage after the buffer registration =====
Available memory on node 0, free + buffers : 82868 MB
Memory footprint by rank 0 on node 0       : 137 MB
==================================================
SimpleFixedNodeBranch::checkParameters 
  Average Energy of a population  = -28.2568
  Energy Variance = 0.435269

  Fluctuating population
  Persistent walkers are killed after 1 MC sweeps
  BranchInterval = 1
  Steps per block = 50
  Number of blocks = 70

  DMC Engine Initialization = 4.1013e-02 secs

 Warmup is completed after 100

  TauEff     = 1.9663e-02
 TauEff/Tau = 9.8316e-01
  Etrial     = -2.8268e+01
 Running average of energy = -2.8239e+01
                  Variance = 3.2763e-01
branch cutoff = 1.0000e+01 1.5000e+01
====================================================
  SimpleFixedNodeBranch::finalize after a DMC block
    QMC counter                   = 22
    time step                     = 0.02
    effective time step           = 0.019663
    trial energy                  = -28.2404
    reference energy              = -28.2399
    reference variance            = 0.327627
    target walkers                = 4096
    branch cutoff                 = 10 15
    Max and minimum walkers per node= 9 1
    Feedback                      = 1
    QMC Status (BranchMode)       = 0000001111
====================================================
  QMC Execution time = 2.1278e+01 secs
  Reusing DMC
BRANCH resetRun
 SimpleFixedNodeBranch::resetRun detected changes in <parameter>'s 
 BranchMode : 0000001111 0000001111
  WalkerControlBase parameters 
    maxCopy = 2
    Max Walkers per MPI rank 9
    Min Walkers per MPI rank 1
    Using non-blocking send/recv
 iParam (old):                  0                 1                22              4096                 9                 1                 1                 0
 iParam (new):                100                 1                22              4096                 9                 1                 1                 0
 vParam (old):   2.0000000000e-02  1.9663000280e-02 -2.8240425697e+01 -2.8239937534e+01 -2.8236899835e+01  1.5000000000e+01  1.0000000000e+01  2.0000000000e-01  3.2762657281e-01 -9.6044024517e+04  3.4010000000e+03  1.0000000000e+00  1.0000000000e+01  1.0000000000e+00  1.0000000000e+00  1.0000000000e+00  1.0000000000e+00
 vParam (new):   1.0000000000e-02  1.9663000280e-02 -2.8240425697e+01 -2.8239937534e+01 -2.8236899835e+01  1.5000000000e+01  1.0000000000e+01  2.0000000000e-01  3.2762657281e-01 -9.6044024517e+04  3.4010000000e+03  1.0000000000e+00  1.0000000000e+01  1.0000000000e+00  1.0000000000e+00  1.0000000000e+00  1.0000000000e+00

 Using branching cutoff scheme classic
SimpleFixedNodeBranch::checkParameters 
  Average Energy of a population  = -28.2374
  Energy Variance = 0.360679

  Using Non-local T-moves v0, M. Casula, PRB 74, 161102(R) (2006)
===== Memory Usage after the buffer registration =====
Available memory on node 0, free + buffers : 82856 MB
Memory footprint by rank 0 on node 0       : 139 MB
==================================================

=========================================================
  Start DMC
  File Root K.log.s023 append = no 
=========================================================
Using existing walkers 
  Resetting Properties of the walkers 1 x 13
  EstimatorManagerBase::add replace LocalEnergy estimator.
  Cannot make clones again. Use existing 1 clones
SimpleFixedNodeBranch::checkParameters 
  Average Energy of a population  = -28.2663
  Energy Variance = 0.898072

  Fluctuating population
  Persistent walkers are killed after 1 MC sweeps
  BranchInterval = 1
  Steps per block = 100
  Number of blocks = 90

  DMC Engine Initialization = 3.8599967957e-04 secs

 Warmup is completed after 100

  TauEff     = 9.9361724794e-03
 TauEff/Tau = 9.9361724794e-01
  Etrial     = -2.8268306284e+01
 Running average of energy = -2.8235762604e+01
                  Variance = 3.1740086014e-01
branch cutoff = 1.0000000000e+01 1.5000000000e+01
====================================================
  SimpleFixedNodeBranch::finalize after a DMC block
    QMC counter                   = 23
    time step                     = 0.01
    effective time step           = 0.00993545
    trial energy                  = -28.2318
    reference energy              = -28.2399
    reference variance            = 0.317401
    target walkers                = 4096
    branch cutoff                 = 10 15
    Max and minimum walkers per node= 9 1
    Feedback                      = 1
    QMC Status (BranchMode)       = 0000001111
====================================================
  QMC Execution time = 4.8570e+01 secs
  Reusing DMC
BRANCH resetRun
 SimpleFixedNodeBranch::resetRun detected changes in <parameter>'s 
 BranchMode : 0000001111 0000001111
  WalkerControlBase parameters 
    maxCopy = 2
    Max Walkers per MPI rank 9
    Min Walkers per MPI rank 1
    Using non-blocking send/recv
 iParam (old):                  0                 1                23              4096                 9                 1                 1                 0
 iParam (new):                200                 1                23              4096                 9                 1                 1                 0
 vParam (old):   1.0000000000e-02  9.9354536008e-03 -2.8231838624e+01 -2.8239927895e+01 -2.8248470894e+01  1.5000000000e+01  1.0000000000e+01  2.0000000000e-01  3.1740086014e-01 -2.5136360673e+05  8.9010000000e+03  1.0000000000e+00  1.0000000000e+01  1.0000000000e+00  1.0000000000e+00  1.0000000000e+00  1.0000000000e+00
 vParam (new):   5.0000000000e-03  9.9354536008e-03 -2.8231838624e+01 -2.8239927895e+01 -2.8248470894e+01  1.5000000000e+01  1.0000000000e+01  2.0000000000e-01  3.1740086014e-01 -2.5136360673e+05  8.9010000000e+03  1.0000000000e+00  1.0000000000e+01  1.0000000000e+00  1.0000000000e+00  1.0000000000e+00  1.0000000000e+00

 Using branching cutoff scheme classic
SimpleFixedNodeBranch::checkParameters 
  Average Energy of a population  = -28.2483
  Energy Variance = 0.280291

  Using Non-local T-moves v0, M. Casula, PRB 74, 161102(R) (2006)
===== Memory Usage after the buffer registration =====
Available memory on node 0, free + buffers : 82853 MB
Memory footprint by rank 0 on node 0       : 141 MB
==================================================

=========================================================
  Start DMC
  File Root K.log.s024 append = no 
=========================================================
Using existing walkers 
  Resetting Properties of the walkers 1 x 13
  EstimatorManagerBase::add replace LocalEnergy estimator.
  Cannot make clones again. Use existing 1 clones
SimpleFixedNodeBranch::checkParameters 
  Average Energy of a population  = -28.2793
  Energy Variance = 0.693984

  Fluctuating population
  Persistent walkers are killed after 1 MC sweeps
  BranchInterval = 1
  Steps per block = 200
  Number of blocks = 110

  DMC Engine Initialization = 2.9397010803e-04 secs

 Warmup is completed after 200

  TauEff     = 4.9881504918e-03
 TauEff/Tau = 9.9763009836e-01
  Etrial     = -2.8352026370e+01
 Running average of energy = -2.8237744557e+01
                  Variance = 3.1152000416e-01
branch cutoff = 1.0000000000e+01 1.5000000000e+01
====================================================
  SimpleFixedNodeBranch::finalize after a DMC block
    QMC counter                   = 24
    time step                     = 0.005
    effective time step           = 0.00498791
    trial energy                  = -28.2372
    reference energy              = -28.2394
    reference variance            = 0.31152
    target walkers                = 4096
    branch cutoff                 = 10 15
    Max and minimum walkers per node= 9 1
    Feedback                      = 1
    QMC Status (BranchMode)       = 0000001111
====================================================
  QMC Execution time = 1.3631e+02 secs
  Reusing DMC
BRANCH resetRun
 SimpleFixedNodeBranch::resetRun detected changes in <parameter>'s 
 BranchMode : 0000001111 0000001111
  WalkerControlBase parameters 
    maxCopy = 2
    Max Walkers per MPI rank 9
    Min Walkers per MPI rank 1
    Using non-blocking send/recv
 iParam (old):                  0                 1                24              4096                 9                 1                 1                 0
 iParam (new):                400                 1                24              4096                 9                 1                 1                 0
 vParam (old):   5.0000000000e-03  4.9879138859e-03 -2.8237171172e+01 -2.8239370856e+01 -2.8226156990e+01  1.5000000000e+01  1.0000000000e+01  2.0000000000e-01  3.1152000416e-01 -6.1564651081e+05  2.1801000000e+04  1.0000000000e+00  1.0000000000e+01  1.0000000000e+00  1.0000000000e+00  1.0000000000e+00  1.0000000000e+00
 vParam (new):   2.5000000000e-03  4.9879138859e-03 -2.8237171172e+01 -2.8239370856e+01 -2.8226156990e+01  1.5000000000e+01  1.0000000000e+01  2.0000000000e-01  3.1152000416e-01 -6.1564651081e+05  2.1801000000e+04  1.0000000000e+00  1.0000000000e+01  1.0000000000e+00  1.0000000000e+00  1.0000000000e+00  1.0000000000e+00

 Using branching cutoff scheme classic
SimpleFixedNodeBranch::checkParameters 
  Average Energy of a population  = -28.2261
  Energy Variance = 0.263897

  Using Non-local T-moves v0, M. Casula, PRB 74, 161102(R) (2006)
===== Memory Usage after the buffer registration =====
Available memory on node 0, free + buffers : 82836 MB
Memory footprint by rank 0 on node 0       : 144 MB
==================================================

=========================================================
  Start DMC
  File Root K.log.s025 append = no 
=========================================================
Using existing walkers 
  Resetting Properties of the walkers 1 x 13
  EstimatorManagerBase::add replace LocalEnergy estimator.
  Cannot make clones again. Use existing 1 clones
SimpleFixedNodeBranch::checkParameters 
  Average Energy of a population  = -28.2602
  Energy Variance = 0.906841

  Fluctuating population
  Persistent walkers are killed after 1 MC sweeps
  BranchInterval = 1
  Steps per block = 400
  Number of blocks = 130

  DMC Engine Initialization = 2.9301643372e-04 secs

 Warmup is completed after 400

  TauEff     = 2.4977711266e-03
 TauEff/Tau = 9.9910845064e-01
  Etrial     = -2.8147568093e+01
 Running average of energy = -2.8236346305e+01
                  Variance = 3.0721401490e-01
branch cutoff = 1.0000000000e+01 1.5000000000e+01
====================================================
  SimpleFixedNodeBranch::finalize after a DMC block
    QMC counter                   = 25
    time step                     = 0.0025
    effective time step           = 0.00249776
    trial energy                  = -28.2352
    reference energy              = -28.2393
    reference variance            = 0.307214
    target walkers                = 4096
    branch cutoff                 = 10 15
    Max and minimum walkers per node= 9 1
    Feedback                      = 1
    QMC Status (BranchMode)       = 0000001111
====================================================
  QMC Execution time = 2.8106e+02 secs
  Total Execution time = 5.7621e+02 secs

=========================================================
  A new xml input file : K.log.s025.cont.xml
TACC:  Shutdown complete. Exiting. 
