TACC:  Starting up job 3912564 
TACC:  Starting parallel tasks... 
  Input file(s): Kr.log.qmc.in-wfj.xml 

=====================================================
                    QMCPACK 3.7.9

       (c) Copyright 2003-  QMCPACK developers

                    Please cite:
 J. Kim et al. J. Phys. Cond. Mat. 30 195901 (2018)
      https://doi.org/10.1088/1361-648X/aab9c3

  Git branch: develop
  Last git commit: 9a049a3fb3e0d7110d61a924a52203fd8296522a
  Last git commit date: Mon Jul 1 13:42:43 2019 -0500
  Last git commit subject: Merge pull request #1686 from ye-luo/rename-to-LCAOHDFParser
=====================================================
  Global options 

  Total number of MPI ranks = 1024
  Number of MPI groups      = 1
  MPI group ID              = 0
  Number of ranks in group  = 1024
  MPI ranks per node        = 64
  OMP 1st level threads     = 1
  OMP nested threading disabled or only 1 thread on the 2nd level

  Precision used in this calculation, see definitions in the manual:
  Base precision      = double
  Full precision      = double

  Structure-of-arrays (SoA) optimization enabled

  Input XML = Kr.log.qmc.in-wfj.xml

  Project = Kr.log
  date    = 2019-07-01 20:41:54 CDT
  host    = c402-124.stampede2.tacc.utexas.edu

 Random Number
 -------------
  Offset for the random number seeds based on time: 610

  Range of prime numbers to use as seeds over processors and threads = 4513-13841


 Particle Set 
 ------------
  Name: ion0
  All the species have the same mass 1
  Particle set size: 1

 Particle Set 
 ------------
  Name: e
  All the species have the same mass 1
  Particle set size: 8

 Wavefunction setup: 
 ------------------- 
  Name: psi0
  LCAO: SoaAtomicBasisSet<MultiQuintic,1>
Reading BasisSet from HDF5 file:Kr.log.h5
<input node="atomicBasisSet" name="gaussian" expandYlm="pyscf" angular="spherical" elementType="Kr" normalized="no" type="Numerical" expM="0" />
  AO BasisSet for Kr
   Spherical Harmonics contain (-1)^m factor
   Angular momentum m expanded as -l, ... ,l, with the exception of L=1 (1,-1,0)
   Grid is created by the input paremters in h5
    Using log grid ri = 1e-06 rf = 100 npts = 1001
   R(n,l,m,s) 0 0 0 0
   R(n,l,m,s) 1 0 0 0
   R(n,l,m,s) 2 0 0 0
   R(n,l,m,s) 3 0 0 0
   R(n,l,m,s) 4 1 0 0
   R(n,l,m,s) 5 1 0 0
   R(n,l,m,s) 6 1 0 0
   R(n,l,m,s) 7 1 0 0
   R(n,l,m,s) 8 2 0 0
   R(n,l,m,s) 9 2 0 0
   R(n,l,m,s) 10 2 0 0
   R(n,l,m,s) 11 3 0 0
   R(n,l,m,s) 12 3 0 0
   R(n,l,m,s) 13 4 0 0
Expanding Ylm as L=1 as (1,-1,0) and L>1 as -l,-l+1,...,l-1,l
   Adding 1 spherical orbitals
   Adding 1 spherical orbitals
   Adding 1 spherical orbitals
   Adding 1 spherical orbitals
   Adding 3 spherical orbitals
   Adding 3 spherical orbitals
   Adding 3 spherical orbitals
   Adding 3 spherical orbitals
   Adding 5 spherical orbitals
   Adding 5 spherical orbitals
   Adding 5 spherical orbitals
   Adding 7 spherical orbitals
   Adding 7 spherical orbitals
   Adding 9 spherical orbitals
  Setting cutoff radius 10.9648

   Maximum Angular Momentum  = 4
   Number of Radial functors = 14
   Basis size                = 54

  Created SPOSet builder named 'LCAOBSet' of type molecularorbital
Reuse SPOSetBuilder "LCAOBSet" type MolecularOrbital
  Building SPOSet '' with '' basis set.
Reuse SPOSetBuilder "LCAOBSet" type MolecularOrbital
  Building SPOSet '' with '' basis set.
  Creating a determinant updet group=0 sposet=updet
  Reusing a SPO set updet
Using DiracDeterminant with DelayedUpdate engine
Using rank-1 Sherman-Morrison Fahy update

  Creating a determinant downdet group=1 sposet=downdet
  Reusing a SPO set downdet
Using DiracDeterminant with DelayedUpdate engine
Using rank-1 Sherman-Morrison Fahy update

  FermionWF = SlaterDet

   Jastrow
   -------
    Name: J2   Type: Two-Body   Function: Bspline

    Radial function for species: u - u
     Number of parameters: 10
     Cusp: -0.25
     Cutoff radius: 10

     Name                        Value Type Recompute Use Index
     ---- ---------------------------- ---- --------- --- -----
     uu_0                 0.000000e+00    1         1  ON     0
     uu_1                 0.000000e+00    1         1  ON     1
     uu_2                 0.000000e+00    1         1  ON     2
     uu_3                 0.000000e+00    1         1  ON     3
     uu_4                 0.000000e+00    1         1  ON     4
     uu_5                 0.000000e+00    1         1  ON     5
     uu_6                 0.000000e+00    1         1  ON     6
     uu_7                 0.000000e+00    1         1  ON     7
     uu_8                 0.000000e+00    1         1  ON     8
     uu_9                 0.000000e+00    1         1  ON     9

    Radial function for species: u - d
     Number of parameters: 10
     Cusp: -0.5
     Cutoff radius: 10

     Name                        Value Type Recompute Use Index
     ---- ---------------------------- ---- --------- --- -----
     ud_0                 0.000000e+00    1         1  ON     0
     ud_1                 0.000000e+00    1         1  ON     1
     ud_2                 0.000000e+00    1         1  ON     2
     ud_3                 0.000000e+00    1         1  ON     3
     ud_4                 0.000000e+00    1         1  ON     4
     ud_5                 0.000000e+00    1         1  ON     5
     ud_6                 0.000000e+00    1         1  ON     6
     ud_7                 0.000000e+00    1         1  ON     7
     ud_8                 0.000000e+00    1         1  ON     8
     ud_9                 0.000000e+00    1         1  ON     9


   Jastrow
   -------
    Name: J1   Type: One-Body   Function: Bspline

    Radial function for element: Kr
     Number of parameters: 10
     Cusp: 0
     Cutoff radius: 10

      Name                        Value Type Recompute Use Index
     ----- ---------------------------- ---- --------- --- -----
     eKr_0                 0.000000e+00    1         1  ON     0
     eKr_1                 0.000000e+00    1         1  ON     1
     eKr_2                 0.000000e+00    1         1  ON     2
     eKr_3                 0.000000e+00    1         1  ON     3
     eKr_4                 0.000000e+00    1         1  ON     4
     eKr_5                 0.000000e+00    1         1  ON     5
     eKr_6                 0.000000e+00    1         1  ON     6
     eKr_7                 0.000000e+00    1         1  ON     7
     eKr_8                 0.000000e+00    1         1  ON     8
     eKr_9                 0.000000e+00    1         1  ON     9


   Jastrow
   -------
    Name: J3   Type: eeI   Function: polynomial

     Ion: Kr   electron-electron: u - u
      Number of parameters for e-e: 3, for e-I: 3
      Cutoff radius: 10

Expected 26 parameters, but found 0 in PolynomialFunctor3D.
     Ion: Kr   electron-electron: u - d
      Number of parameters for e-e: 3, for e-I: 3
      Cutoff radius: 10

Expected 26 parameters, but found 0 in PolynomialFunctor3D.
  QMCHamiltonian::addOperator Kinetic to H, physical Hamiltonian 
  QMCHamiltonian::addOperator ElecElec to H, physical Hamiltonian 
QMCHamiltonian::addOperatorType added type coulomb named ElecElec
  CoulombAA for ion0 is not created.  Number of particles == 1 and nonPeriodic

  ECPotential builder for pseudopotential 

  Adding pseudopotential for Kr
   Linear grid  ri=0 rf=10 npts = 10001
    ECPComponentBuilder::buildSemiLocalAndLocal 
    Assuming Hartree unit
   Number of angular momentum channels 4
   Maximum angular momentum channel 3
   Creating a Linear Grid Rmax=2.895
  Using global grid with delta = 0.001
   Making L=3 a local potential with a radial cutoff of 9.999
    Non-local pseudopotential parameters
    Maximum angular mementum = 2
    Number of non-local channels = 3
       l(0)=0
       l(1)=1
       l(2)=2
    Cutoff radius = 2.895
    Spherical grids and weights: 
                        1                 0                 0       0.08333333333
                       -1   1.224646799e-16                 0       0.08333333333
             0.4472135955       0.894427191                 0       0.08333333333
            -0.4472135955      0.7236067977      0.5257311121       0.08333333333
             0.4472135955      0.2763932023      0.8506508084       0.08333333333
            -0.4472135955     -0.2763932023      0.8506508084       0.08333333333
             0.4472135955     -0.7236067977      0.5257311121       0.08333333333
            -0.4472135955      -0.894427191   1.095357397e-16       0.08333333333
             0.4472135955     -0.7236067977     -0.5257311121       0.08333333333
            -0.4472135955     -0.2763932023     -0.8506508084       0.08333333333
             0.4472135955      0.2763932023     -0.8506508084       0.08333333333
            -0.4472135955      0.7236067977     -0.5257311121       0.08333333333
    Maximum cutoff radius 2.895
  QMCHamiltonian::addOperator LocalECP to H, physical Hamiltonian 

  Using NonLocalECP potential 
    Maximum grid on a sphere for NonLocalECPotential: 12
  QMCHamiltonian::addOperator NonLocalECP to H, physical Hamiltonian 
QMCHamiltonian::addOperatorType added type pseudo named PseudoPot

  QMCHamiltonian::add2WalkerProperty added
    4 to P::PropertyList 
    0 to P::Collectables 
    starting Index of the observables in P::PropertyList = 9
ParticleSetPool::randomize 
<init source="ion0" target="e">
</init>
  Initialization Execution time = 0.734 secs
=========================================================
 Summary of QMC systems 
=========================================================
ParticleSetPool has: 

  ParticleSet 'e' contains 8 particles :  u(4) d(4)

    u -1.3769959896e+00  1.5760741627e+00 -1.6945805624e+00
    u  4.2982324109e-01 -1.4476676138e+00  3.6066284760e-01
    u -1.5208639114e+00 -4.4073402717e-01 -2.4114897774e+00
    u -8.9822584204e-01 -6.2314926182e-02 -2.5945673945e+00
    d  2.3399755996e+00 -8.9879938521e-01 -3.2367029091e-01
    d  7.4707220879e-01 -1.0046757698e+00  5.6574569930e-02
    d -1.0377018468e+00 -4.7842953532e-01  3.5009047724e-01
    d  1.6068995451e+00 -6.6958317299e-01 -2.0522899768e+00

  Distance table for dissimilar particles (A-B):
    source: ion0  target: e
    Using structure-of-arrays (SoA) data layout
    Distance computations use open boundary conditions in 3D.

  Distance table for similar particles (A-A):
    source/target: e
    Using structure-of-arrays (SoA) data layout
    Distance computations use open boundary conditions in 3D.


  ParticleSet 'ion0' contains 1 particles :  Kr(1)

    Kr  0.0000000000e+00  0.0000000000e+00  0.0000000000e+00


  Hamiltonian h0
  Kinetic         Kinetic energy
  ElecElec        CoulombAB source=e

  LocalECP        LocalECPotential: ion0
  NonLocalECP     NonLocalECPotential: ion0


=========================================================
  Start VMC
  File Root Kr.log.s000 append = no 
=========================================================
  Adding 1 walkers to 0 existing sets
  Total number of walkers: 1.0240000000e+03
  Total weight: 1.0240000000e+03
  Resetting Properties of the walkers 1 x 13

<vmc function="put">
  qmc_counter=0  my_counter=0
  time step      = 1.5000000000e-01
  blocks         = 200
  steps          = 1
  substeps       = 5
  current        = 0
  target samples = 1.0240000000e+03
  walkers/mpi    = 1

  stepsbetweensamples = 200
<parameter name="blocks" condition="int">200</parameter>
<parameter name="blocks_between_recompute" condition="int">0</parameter>
<parameter name="check_properties" condition="int">100</parameter>
<parameter name="checkproperties" condition="int">100</parameter>
<parameter name="current" condition="int">0</parameter>
<parameter name="dmcwalkersperthread" condition="real">1.0000000000e+00</parameter>
<parameter name="maxcpusecs" condition="real">3.6000000000e+05</parameter>
<parameter name="record_configs" condition="int">0</parameter>
<parameter name="record_walkers" condition="int">200</parameter>
<parameter name="recordconfigs" condition="int">0</parameter>
<parameter name="recordwalkers" condition="int">200</parameter>
<parameter name="rewind" condition="int">0</parameter>
<parameter name="samples" condition="real">1.0240000000e+03</parameter>
<parameter name="samplesperthread" condition="real">1.0000000000e+00</parameter>
<parameter name="steps" condition="int">1</parameter>
<parameter name="stepsbetweensamples" condition="int">200</parameter>
<parameter name="store_configs" condition="int">0</parameter>
<parameter name="storeconfigs" condition="int">0</parameter>
<parameter name="sub_steps" condition="int">5</parameter>
<parameter name="substeps" condition="int">5</parameter>
<parameter name="tau" condition="au">1.5000000000e-01</parameter>
<parameter name="time_step" condition="au">1.5000000000e-01</parameter>
<parameter name="timestep" condition="au">1.5000000000e-01</parameter>
<parameter name="use_drift" condition="string">no</parameter>
<parameter name="usedrift" condition="string">no</parameter>
<parameter name="walkers" condition="int">1</parameter>
<parameter name="warmup_steps" condition="int">100</parameter>
<parameter name="warmupsteps" condition="int">100</parameter>
  DumpConfig==false Nothing (configurations, state) will be saved.
  Walker Samples are dumped every 200 steps.
</vmc>
  Set drift_modifier UNR parameter a = 1.0000000000e+00
  Initial partition of walkers 0 1 

  Using Particle by Particle moves
  Walker moves without drift
  Total Sample Size   =1024
  Walker distribution on root = 0 1 
  Using Locality Approximation
===== Memory Usage after the buffer registration =====
Available memory on node 0, free + buffers : 52637 MB
Memory footprint by rank 0 on node 0       : 571 MB
==================================================
  Anonymous Buffer size per walker : 2912 Bytes.
MEMORY increase 0 MB VMC::resetRun
====================================================
  SimpleFixedNodeBranch::finalize after a VMC block
    QMC counter        = 0
    time step          = 0.15
    reference energy   = -18.2359
    reference variance = 0.904581
====================================================
  QMC Execution time = 1.6811e+00 secs
Loop execution max-interations = 5

=========================================================
  Start QMCFixedSampleLinearOptimize
  File Root Kr.log.s001 append = no 
=========================================================
  Skip QMCDriver::putQMCInfo 
  Resetting Properties of the walkers 1 x 13

=========================================================
  Start VMC
  File Root Kr.log.s001 append = no 
=========================================================
  Using the current 1 walkers.
  Total number of walkers: 1.0240e+03
  Total weight: 1.0240e+03
  Resetting Properties of the walkers 1 x 13

<vmc function="put">
  qmc_counter=0  my_counter=0
  time step      = 1.5000e-01
  blocks         = 400
  steps          = 1
  substeps       = 5
  current        = 0
  target samples = 2.5600e+05
  walkers/mpi    = 1

  stepsbetweensamples = 1
<parameter name="blocks" condition="int">400</parameter>
<parameter name="blocks_between_recompute" condition="int">0</parameter>
<parameter name="check_properties" condition="int">100</parameter>
<parameter name="checkproperties" condition="int">100</parameter>
<parameter name="current" condition="int">0</parameter>
<parameter name="dmcwalkersperthread" condition="real">2.5000e+02</parameter>
<parameter name="maxcpusecs" condition="real">3.6000e+05</parameter>
<parameter name="record_configs" condition="int">0</parameter>
<parameter name="record_walkers" condition="int">1</parameter>
<parameter name="recordconfigs" condition="int">0</parameter>
<parameter name="recordwalkers" condition="int">1</parameter>
<parameter name="rewind" condition="int">0</parameter>
<parameter name="samples" condition="real">2.5600e+05</parameter>
<parameter name="samplesperthread" condition="real">2.5000e+02</parameter>
<parameter name="steps" condition="int">1</parameter>
<parameter name="stepsbetweensamples" condition="int">1</parameter>
<parameter name="store_configs" condition="int">0</parameter>
<parameter name="storeconfigs" condition="int">0</parameter>
<parameter name="sub_steps" condition="int">5</parameter>
<parameter name="substeps" condition="int">5</parameter>
<parameter name="tau" condition="au">1.5000e-01</parameter>
<parameter name="time_step" condition="au">1.5000e-01</parameter>
<parameter name="timestep" condition="au">1.5000e-01</parameter>
<parameter name="use_drift" condition="string">no</parameter>
<parameter name="usedrift" condition="string">no</parameter>
<parameter name="walkers" condition="int">1</parameter>
<parameter name="warmup_steps" condition="int">0</parameter>
<parameter name="warmupsteps" condition="int">0</parameter>
  DumpConfig==false Nothing (configurations, state) will be saved.
  Walker Samples are dumped every 1 steps.
</vmc>
    Restarting, cummulative properties:
      energy     = -1.8236e+01
      variance   = 0.0000e+00
      r2accepted = 1.0000e-10
      r2proposed = 1.0000e-10
  Set drift_modifier UNR parameter a = 1.0000e+00
 Using QMCCostFunction::QMCCostFunction
  Set drift_modifier UNR parameter a = 1.0000e+00
  EstimatorManagerBase::add replace LocalEnergy estimator.
<optimization-report>
<vmc stage="main" blocks="400">
  Cannot make clones again. Use existing 1 clones
  Initial partition of walkers 0 1 

  Using Particle by Particle moves
  Walker moves without drift
  Total Sample Size   =256000
  Walker distribution on root = 0 1 
  Using Locality Approximation
===== Memory Usage after the buffer registration =====
Available memory on node 0, free + buffers : 52627 MB
Memory footprint by rank 0 on node 0       : 572 MB
==================================================
  Anonymous Buffer size per walker : 2912 Bytes.
MEMORY increase 0 MB VMC::resetRun
====================================================
  SimpleFixedNodeBranch::finalize after a VMC block
    QMC counter        = 1
    time step          = 0.15
    reference energy   = -18.2594
    reference variance = 0.819492
====================================================
  Execution time = 1.9457e+00
</vmc>
<opt stage="setup">
  <log>
   Reading configurations from h5FileRoot Kr.log.s001
  QMCCostFunction is created with 1 threads.
  Using Nonlocal PP in Opt: NonLocalECP
   Number of samples loaded to each thread : 250 
  VMC Eavg = -1.8247e+01
  VMC Evar = 9.1509e-01
  Total weights = 2.5600e+05
  Execution time = 1.9421e-01
  </log>
</opt>
<opt stage="main" walkers="256000">
  <log>

*****************************************
Building overlap and Hamiltonian matrices
*****************************************

Among totally 30 optimized parameters, largest LM parameter change : 3.8732e-01 at parameter 20

******************************************************************************
Init Cost =   9.1509e-01    New Cost =   2.0164e-01  Delta Cost =  -7.1344e-01
******************************************************************************

The new set of parameters is valid. Updating the trial wave function!

*****************************************************************************
Applying the update for shift_i =   1.0000e-02     and shift_s =   2.5000e-01
*****************************************************************************
  Execution time = 2.6339e+00
  </log>
  <optVariables href="Kr.log.s001.opt.xml">
 uu_0                 1.962902e-01 1 1  ON 0
 uu_1                 8.362412e-02 1 1  ON 1
 uu_2                 3.879342e-03 1 1  ON 2
 uu_3                -3.787982e-02 1 1  ON 3
 uu_4                -6.112268e-02 1 1  ON 4
 uu_5                -6.728675e-02 1 1  ON 5
 uu_6                -6.064389e-02 1 1  ON 6
 uu_7                -3.947735e-02 1 1  ON 7
 uu_8                -1.514260e-02 1 1  ON 8
 uu_9                -1.272982e-03 1 1  ON 9
 ud_0                 3.610338e-01 1 1  ON 10
 ud_1                 1.137326e-01 1 1  ON 11
 ud_2                -4.841700e-03 1 1  ON 12
 ud_3                -5.152808e-02 1 1  ON 13
 ud_4                -8.117646e-02 1 1  ON 14
 ud_5                -9.480996e-02 1 1  ON 15
 ud_6                -9.481701e-02 1 1  ON 16
 ud_7                -7.679532e-02 1 1  ON 17
 ud_8                -4.559946e-02 1 1  ON 18
 ud_9                -1.825111e-02 1 1  ON 19
eKr_0                -3.873237e-01 1 1  ON 20
eKr_1                -3.286607e-01 1 1  ON 21
eKr_2                -9.753411e-02 1 1  ON 22
eKr_3                 1.137582e-01 1 1  ON 23
eKr_4                 2.341365e-01 1 1  ON 24
eKr_5                 2.598451e-01 1 1  ON 25
eKr_6                 1.708272e-01 1 1  ON 26
eKr_7                 4.200654e-02 1 1  ON 27
eKr_8                -3.472004e-03 1 1  ON 28
eKr_9                -3.040703e-03 1 1  ON 29
  </optVariables>
   Restore the number of walkers to 1, removing 0 walkers.
</opt>
</optimization-report>
  QMC Execution time = 2.643 secs
  Reusing QMCFixedSampleLinearOptimize
 Using QMCCostFunction::QMCCostFunction

=========================================================
  Start QMCFixedSampleLinearOptimize
  File Root Kr.log.s002 append = no 
=========================================================
  Skip QMCDriver::putQMCInfo 
  Resetting Properties of the walkers 1 x 13

=========================================================
  Start VMC
  File Root Kr.log.s002 append = no 
=========================================================
Using existing walkers 
  Resetting Properties of the walkers 1 x 13

<vmc function="put">
  qmc_counter=1  my_counter=1
  time step      = 1.5000e-01
  blocks         = 400
  steps          = 1
  substeps       = 5
  current        = 0
  target samples = 2.5600e+05
  walkers/mpi    = 1

  stepsbetweensamples = 1
<parameter name="blocks" condition="int">400</parameter>
<parameter name="blocks_between_recompute" condition="int">0</parameter>
<parameter name="check_properties" condition="int">100</parameter>
<parameter name="checkproperties" condition="int">100</parameter>
<parameter name="current" condition="int">0</parameter>
<parameter name="dmcwalkersperthread" condition="real">2.5000e+02</parameter>
<parameter name="maxcpusecs" condition="real">3.6000e+05</parameter>
<parameter name="record_configs" condition="int">0</parameter>
<parameter name="record_walkers" condition="int">1</parameter>
<parameter name="recordconfigs" condition="int">0</parameter>
<parameter name="recordwalkers" condition="int">1</parameter>
<parameter name="rewind" condition="int">0</parameter>
<parameter name="samples" condition="real">2.5600e+05</parameter>
<parameter name="samplesperthread" condition="real">2.5000e+02</parameter>
<parameter name="steps" condition="int">1</parameter>
<parameter name="stepsbetweensamples" condition="int">1</parameter>
<parameter name="store_configs" condition="int">0</parameter>
<parameter name="storeconfigs" condition="int">0</parameter>
<parameter name="sub_steps" condition="int">5</parameter>
<parameter name="substeps" condition="int">5</parameter>
<parameter name="tau" condition="au">1.5000e-01</parameter>
<parameter name="time_step" condition="au">1.5000e-01</parameter>
<parameter name="timestep" condition="au">1.5000e-01</parameter>
<parameter name="use_drift" condition="string">no</parameter>
<parameter name="usedrift" condition="string">no</parameter>
<parameter name="walkers" condition="int">1</parameter>
<parameter name="warmup_steps" condition="int">0</parameter>
<parameter name="warmupsteps" condition="int">0</parameter>
  DumpConfig==false Nothing (configurations, state) will be saved.
  Walker Samples are dumped every 1 steps.
</vmc>
  Set drift_modifier UNR parameter a = 1.0000e+00
  EstimatorManagerBase::add replace LocalEnergy estimator.
  Set drift_modifier UNR parameter a = 1.0000e+00
  EstimatorManagerBase::add replace LocalEnergy estimator.
<optimization-report>
<vmc stage="main" blocks="400">
  Cannot make clones again. Use existing 1 clones
  Initial partition of walkers 0 1 
  Using Particle by Particle moves
  Walker moves without drift
  Total Sample Size   =256000
  Walker distribution on root = 0 1 
  Using Locality Approximation
===== Memory Usage after the buffer registration =====
Available memory on node 0, free + buffers : 52625 MB
Memory footprint by rank 0 on node 0       : 574 MB
==================================================
====================================================
  SimpleFixedNodeBranch::finalize after a VMC block
    QMC counter        = 2
    time step          = 0.15
    reference energy   = -18.4171
    reference variance = 0.147179
====================================================
  Execution time = 3.4393e+00
</vmc>
<opt stage="setup">
  <log>
   Reading configurations from h5FileRoot Kr.log.s002
  QMCCostFunction is created with 1 threads.
  Using Nonlocal PP in Opt: NonLocalECP
   Number of samples loaded to each thread : 250 
  VMC Eavg = -1.8426e+01
  VMC Evar = 1.5803e-01
  Total weights = 2.5600e+05
  Execution time = 4.3518e-01
  </log>
</opt>
<opt stage="main" walkers="256000">
  <log>

*****************************************
Building overlap and Hamiltonian matrices
*****************************************

Among totally 30 optimized parameters, largest LM parameter change : 2.9361e-01 at parameter 20

******************************************************************************
Init Cost =   1.5803e-01    New Cost =   1.3376e-01  Delta Cost =  -2.4272e-02
******************************************************************************

The new set of parameters is valid. Updating the trial wave function!

*****************************************************************************
Applying the update for shift_i =   1.0000e-02     and shift_s =   6.2500e-02
*****************************************************************************
  Execution time = 4.5306e+00
  </log>
  <optVariables href="Kr.log.s002.opt.xml">
 uu_0                 3.012480e-01 1 1  ON 0
 uu_1                 1.329452e-01 1 1  ON 1
 uu_2                 1.823364e-02 1 1  ON 2
 uu_3                -5.178634e-02 1 1  ON 3
 uu_4                -9.458479e-02 1 1  ON 4
 uu_5                -1.117789e-01 1 1  ON 5
 uu_6                -1.032532e-01 1 1  ON 6
 uu_7                -6.968047e-02 1 1  ON 7
 uu_8                -2.456854e-02 1 1  ON 8
 uu_9                 6.646740e-04 1 1  ON 9
 ud_0                 5.104376e-01 1 1  ON 10
 ud_1                 1.907823e-01 1 1  ON 11
 ud_2                 2.520380e-02 1 1  ON 12
 ud_3                -5.897093e-02 1 1  ON 13
 ud_4                -1.141128e-01 1 1  ON 14
 ud_5                -1.458248e-01 1 1  ON 15
 ud_6                -1.533337e-01 1 1  ON 16
 ud_7                -1.296950e-01 1 1  ON 17
 ud_8                -8.084522e-02 1 1  ON 18
 ud_9                -3.213345e-02 1 1  ON 19
eKr_0                -6.809336e-01 1 1  ON 20
eKr_1                -5.566822e-01 1 1  ON 21
eKr_2                -1.956351e-01 1 1  ON 22
eKr_3                 1.613299e-01 1 1  ON 23
eKr_4                 3.926408e-01 1 1  ON 24
eKr_5                 4.685433e-01 1 1  ON 25
eKr_6                 3.336806e-01 1 1  ON 26
eKr_7                 9.150212e-02 1 1  ON 27
eKr_8                -6.534278e-03 1 1  ON 28
eKr_9                -7.137330e-03 1 1  ON 29
  </optVariables>
   Restore the number of walkers to 1, removing 0 walkers.
</opt>
</optimization-report>
  QMC Execution time = 4.539 secs
  Reusing QMCFixedSampleLinearOptimize
 Using QMCCostFunction::QMCCostFunction

=========================================================
  Start QMCFixedSampleLinearOptimize
  File Root Kr.log.s003 append = no 
=========================================================
  Skip QMCDriver::putQMCInfo 
  Resetting Properties of the walkers 1 x 13

=========================================================
  Start VMC
  File Root Kr.log.s003 append = no 
=========================================================
Using existing walkers 
  Resetting Properties of the walkers 1 x 13

<vmc function="put">
  qmc_counter=2  my_counter=2
  time step      = 1.5000e-01
  blocks         = 400
  steps          = 1
  substeps       = 5
  current        = 0
  target samples = 2.5600e+05
  walkers/mpi    = 1

  stepsbetweensamples = 1
<parameter name="blocks" condition="int">400</parameter>
<parameter name="blocks_between_recompute" condition="int">0</parameter>
<parameter name="check_properties" condition="int">100</parameter>
<parameter name="checkproperties" condition="int">100</parameter>
<parameter name="current" condition="int">0</parameter>
<parameter name="dmcwalkersperthread" condition="real">2.5000e+02</parameter>
<parameter name="maxcpusecs" condition="real">3.6000e+05</parameter>
<parameter name="record_configs" condition="int">0</parameter>
<parameter name="record_walkers" condition="int">1</parameter>
<parameter name="recordconfigs" condition="int">0</parameter>
<parameter name="recordwalkers" condition="int">1</parameter>
<parameter name="rewind" condition="int">0</parameter>
<parameter name="samples" condition="real">2.5600e+05</parameter>
<parameter name="samplesperthread" condition="real">2.5000e+02</parameter>
<parameter name="steps" condition="int">1</parameter>
<parameter name="stepsbetweensamples" condition="int">1</parameter>
<parameter name="store_configs" condition="int">0</parameter>
<parameter name="storeconfigs" condition="int">0</parameter>
<parameter name="sub_steps" condition="int">5</parameter>
<parameter name="substeps" condition="int">5</parameter>
<parameter name="tau" condition="au">1.5000e-01</parameter>
<parameter name="time_step" condition="au">1.5000e-01</parameter>
<parameter name="timestep" condition="au">1.5000e-01</parameter>
<parameter name="use_drift" condition="string">no</parameter>
<parameter name="usedrift" condition="string">no</parameter>
<parameter name="walkers" condition="int">1</parameter>
<parameter name="warmup_steps" condition="int">0</parameter>
<parameter name="warmupsteps" condition="int">0</parameter>
  DumpConfig==false Nothing (configurations, state) will be saved.
  Walker Samples are dumped every 1 steps.
</vmc>
  Set drift_modifier UNR parameter a = 1.0000e+00
  EstimatorManagerBase::add replace LocalEnergy estimator.
  Set drift_modifier UNR parameter a = 1.0000e+00
  EstimatorManagerBase::add replace LocalEnergy estimator.
<optimization-report>
<vmc stage="main" blocks="400">
  Cannot make clones again. Use existing 1 clones
  Initial partition of walkers 0 1 
  Using Particle by Particle moves
  Walker moves without drift
  Total Sample Size   =256000
  Walker distribution on root = 0 1 
  Using Locality Approximation
===== Memory Usage after the buffer registration =====
Available memory on node 0, free + buffers : 52622 MB
Memory footprint by rank 0 on node 0       : 576 MB
==================================================
====================================================
  SimpleFixedNodeBranch::finalize after a VMC block
    QMC counter        = 3
    time step          = 0.15
    reference energy   = -18.4575
    reference variance = 0.122668
====================================================
  Execution time = 3.6655e+00
</vmc>
<opt stage="setup">
  <log>
   Reading configurations from h5FileRoot Kr.log.s003
  QMCCostFunction is created with 1 threads.
  Using Nonlocal PP in Opt: NonLocalECP
   Number of samples loaded to each thread : 250 
  VMC Eavg = -1.8450e+01
  VMC Evar = 1.2705e-01
  Total weights = 2.5600e+05
  Execution time = 6.4639e-01
  </log>
</opt>
<opt stage="main" walkers="256000">
  <log>

*****************************************
Building overlap and Hamiltonian matrices
*****************************************

Among totally 30 optimized parameters, largest LM parameter change : 1.4051e-01 at parameter 26

******************************************************************************
Init Cost =   1.2705e-01    New Cost =   1.3086e-01  Delta Cost =   3.8112e-03
******************************************************************************

The new set of parameters is valid. Updating the trial wave function!

*****************************************************************************
Applying the update for shift_i =   1.0000e-02     and shift_s =   1.5625e-02
*****************************************************************************
  Execution time = 5.0316e+00
  </log>
  <optVariables href="Kr.log.s003.opt.xml">
 uu_0                 3.368303e-01 1 1  ON 0
 uu_1                 1.520500e-01 1 1  ON 1
 uu_2                 3.052300e-02 1 1  ON 2
 uu_3                -4.824062e-02 1 1  ON 3
 uu_4                -9.898489e-02 1 1  ON 4
 uu_5                -1.253130e-01 1 1  ON 5
 uu_6                -1.248508e-01 1 1  ON 6
 uu_7                -9.376022e-02 1 1  ON 7
 uu_8                -3.516403e-02 1 1  ON 8
 uu_9                 3.273966e-03 1 1  ON 9
 ud_0                 5.511339e-01 1 1  ON 10
 ud_1                 2.212894e-01 1 1  ON 11
 ud_2                 4.742199e-02 1 1  ON 12
 ud_3                -4.677780e-02 1 1  ON 13
 ud_4                -1.120859e-01 1 1  ON 14
 ud_5                -1.551367e-01 1 1  ON 15
 ud_6                -1.740398e-01 1 1  ON 16
 ud_7                -1.576407e-01 1 1  ON 17
 ud_8                -1.091606e-01 1 1  ON 18
 ud_9                -4.632917e-02 1 1  ON 19
eKr_0                -8.189151e-01 1 1  ON 20
eKr_1                -6.672156e-01 1 1  ON 21
eKr_2                -2.703773e-01 1 1  ON 22
eKr_3                 1.393785e-01 1 1  ON 23
eKr_4                 4.291564e-01 1 1  ON 24
eKr_5                 5.673466e-01 1 1  ON 25
eKr_6                 4.741878e-01 1 1  ON 26
eKr_7                 1.611380e-01 1 1  ON 27
eKr_8                -3.119875e-03 1 1  ON 28
eKr_9                -1.011079e-02 1 1  ON 29
  </optVariables>
   Restore the number of walkers to 1, removing 0 walkers.
</opt>
</optimization-report>
  QMC Execution time = 5.04 secs
  Reusing QMCFixedSampleLinearOptimize
 Using QMCCostFunction::QMCCostFunction

=========================================================
  Start QMCFixedSampleLinearOptimize
  File Root Kr.log.s004 append = no 
=========================================================
  Skip QMCDriver::putQMCInfo 
  Resetting Properties of the walkers 1 x 13

=========================================================
  Start VMC
  File Root Kr.log.s004 append = no 
=========================================================
Using existing walkers 
  Resetting Properties of the walkers 1 x 13

<vmc function="put">
  qmc_counter=3  my_counter=3
  time step      = 1.5000e-01
  blocks         = 400
  steps          = 1
  substeps       = 5
  current        = 0
  target samples = 2.5600e+05
  walkers/mpi    = 1

  stepsbetweensamples = 1
<parameter name="blocks" condition="int">400</parameter>
<parameter name="blocks_between_recompute" condition="int">0</parameter>
<parameter name="check_properties" condition="int">100</parameter>
<parameter name="checkproperties" condition="int">100</parameter>
<parameter name="current" condition="int">0</parameter>
<parameter name="dmcwalkersperthread" condition="real">2.5000e+02</parameter>
<parameter name="maxcpusecs" condition="real">3.6000e+05</parameter>
<parameter name="record_configs" condition="int">0</parameter>
<parameter name="record_walkers" condition="int">1</parameter>
<parameter name="recordconfigs" condition="int">0</parameter>
<parameter name="recordwalkers" condition="int">1</parameter>
<parameter name="rewind" condition="int">0</parameter>
<parameter name="samples" condition="real">2.5600e+05</parameter>
<parameter name="samplesperthread" condition="real">2.5000e+02</parameter>
<parameter name="steps" condition="int">1</parameter>
<parameter name="stepsbetweensamples" condition="int">1</parameter>
<parameter name="store_configs" condition="int">0</parameter>
<parameter name="storeconfigs" condition="int">0</parameter>
<parameter name="sub_steps" condition="int">5</parameter>
<parameter name="substeps" condition="int">5</parameter>
<parameter name="tau" condition="au">1.5000e-01</parameter>
<parameter name="time_step" condition="au">1.5000e-01</parameter>
<parameter name="timestep" condition="au">1.5000e-01</parameter>
<parameter name="use_drift" condition="string">no</parameter>
<parameter name="usedrift" condition="string">no</parameter>
<parameter name="walkers" condition="int">1</parameter>
<parameter name="warmup_steps" condition="int">0</parameter>
<parameter name="warmupsteps" condition="int">0</parameter>
  DumpConfig==false Nothing (configurations, state) will be saved.
  Walker Samples are dumped every 1 steps.
</vmc>
  Set drift_modifier UNR parameter a = 1.0000e+00
  EstimatorManagerBase::add replace LocalEnergy estimator.
  Set drift_modifier UNR parameter a = 1.0000e+00
  EstimatorManagerBase::add replace LocalEnergy estimator.
<optimization-report>
<vmc stage="main" blocks="400">
  Cannot make clones again. Use existing 1 clones
  Initial partition of walkers 0 1 
  Using Particle by Particle moves
  Walker moves without drift
  Total Sample Size   =256000
  Walker distribution on root = 0 1 
  Using Locality Approximation
===== Memory Usage after the buffer registration =====
Available memory on node 0, free + buffers : 52619 MB
Memory footprint by rank 0 on node 0       : 579 MB
==================================================
====================================================
  SimpleFixedNodeBranch::finalize after a VMC block
    QMC counter        = 4
    time step          = 0.15
    reference energy   = -18.4671
    reference variance = 0.148959
====================================================
  Execution time = 3.5787e+00
</vmc>
<opt stage="setup">
  <log>
   Reading configurations from h5FileRoot Kr.log.s004
  QMCCostFunction is created with 1 threads.
  Using Nonlocal PP in Opt: NonLocalECP
   Number of samples loaded to each thread : 250 
  VMC Eavg = -1.8450e+01
  VMC Evar = 1.5501e-01
  Total weights = 2.5600e+05
  Execution time = 7.0069e-01
  </log>
</opt>
<opt stage="main" walkers="256000">
  <log>

*****************************************
Building overlap and Hamiltonian matrices
*****************************************

Among totally 30 optimized parameters, largest LM parameter change : 1.0203e-01 at parameter 26

******************************************************************************
Init Cost =   1.5501e-01    New Cost =   1.5591e-01  Delta Cost =   8.9583e-04
******************************************************************************

The new set of parameters is valid. Updating the trial wave function!

*****************************************************************************
Applying the update for shift_i =   1.0000e-02     and shift_s =   3.9062e-03
*****************************************************************************
  Execution time = 4.9985e+00
  </log>
  <optVariables href="Kr.log.s004.opt.xml">
 uu_0                 3.514097e-01 1 1  ON 0
 uu_1                 1.605754e-01 1 1  ON 1
 uu_2                 3.781007e-02 1 1  ON 2
 uu_3                -4.348720e-02 1 1  ON 3
 uu_4                -9.804571e-02 1 1  ON 4
 uu_5                -1.288270e-01 1 1  ON 5
 uu_6                -1.331541e-01 1 1  ON 6
 uu_7                -1.072324e-01 1 1  ON 7
 uu_8                -4.776355e-02 1 1  ON 8
 uu_9                 1.704715e-03 1 1  ON 9
 ud_0                 5.653678e-01 1 1  ON 10
 ud_1                 2.326157e-01 1 1  ON 11
 ud_2                 5.758576e-02 1 1  ON 12
 ud_3                -3.968559e-02 1 1  ON 13
 ud_4                -1.081319e-01 1 1  ON 14
 ud_5                -1.552775e-01 1 1  ON 15
 ud_6                -1.813607e-01 1 1  ON 16
 ud_7                -1.731141e-01 1 1  ON 17
 ud_8                -1.259152e-01 1 1  ON 18
 ud_9                -5.559283e-02 1 1  ON 19
eKr_0                -8.946633e-01 1 1  ON 20
eKr_1                -7.346115e-01 1 1  ON 21
eKr_2                -3.257909e-01 1 1  ON 22
eKr_3                 1.038233e-01 1 1  ON 23
eKr_4                 4.256569e-01 1 1  ON 24
eKr_5                 6.070570e-01 1 1  ON 25
eKr_6                 5.762196e-01 1 1  ON 26
eKr_7                 2.461801e-01 1 1  ON 27
eKr_8                 9.307567e-03 1 1  ON 28
eKr_9                -1.161022e-02 1 1  ON 29
  </optVariables>
   Restore the number of walkers to 1, removing 0 walkers.
</opt>
</optimization-report>
  QMC Execution time = 5.007 secs
  Reusing QMCFixedSampleLinearOptimize
 Using QMCCostFunction::QMCCostFunction

=========================================================
  Start QMCFixedSampleLinearOptimize
  File Root Kr.log.s005 append = no 
=========================================================
  Skip QMCDriver::putQMCInfo 
  Resetting Properties of the walkers 1 x 13

=========================================================
  Start VMC
  File Root Kr.log.s005 append = no 
=========================================================
Using existing walkers 
  Resetting Properties of the walkers 1 x 13

<vmc function="put">
  qmc_counter=4  my_counter=4
  time step      = 1.5000e-01
  blocks         = 400
  steps          = 1
  substeps       = 5
  current        = 0
  target samples = 2.5600e+05
  walkers/mpi    = 1

  stepsbetweensamples = 1
<parameter name="blocks" condition="int">400</parameter>
<parameter name="blocks_between_recompute" condition="int">0</parameter>
<parameter name="check_properties" condition="int">100</parameter>
<parameter name="checkproperties" condition="int">100</parameter>
<parameter name="current" condition="int">0</parameter>
<parameter name="dmcwalkersperthread" condition="real">2.5000e+02</parameter>
<parameter name="maxcpusecs" condition="real">3.6000e+05</parameter>
<parameter name="record_configs" condition="int">0</parameter>
<parameter name="record_walkers" condition="int">1</parameter>
<parameter name="recordconfigs" condition="int">0</parameter>
<parameter name="recordwalkers" condition="int">1</parameter>
<parameter name="rewind" condition="int">0</parameter>
<parameter name="samples" condition="real">2.5600e+05</parameter>
<parameter name="samplesperthread" condition="real">2.5000e+02</parameter>
<parameter name="steps" condition="int">1</parameter>
<parameter name="stepsbetweensamples" condition="int">1</parameter>
<parameter name="store_configs" condition="int">0</parameter>
<parameter name="storeconfigs" condition="int">0</parameter>
<parameter name="sub_steps" condition="int">5</parameter>
<parameter name="substeps" condition="int">5</parameter>
<parameter name="tau" condition="au">1.5000e-01</parameter>
<parameter name="time_step" condition="au">1.5000e-01</parameter>
<parameter name="timestep" condition="au">1.5000e-01</parameter>
<parameter name="use_drift" condition="string">no</parameter>
<parameter name="usedrift" condition="string">no</parameter>
<parameter name="walkers" condition="int">1</parameter>
<parameter name="warmup_steps" condition="int">0</parameter>
<parameter name="warmupsteps" condition="int">0</parameter>
  DumpConfig==false Nothing (configurations, state) will be saved.
  Walker Samples are dumped every 1 steps.
</vmc>
  Set drift_modifier UNR parameter a = 1.0000e+00
  EstimatorManagerBase::add replace LocalEnergy estimator.
  Set drift_modifier UNR parameter a = 1.0000e+00
  EstimatorManagerBase::add replace LocalEnergy estimator.
<optimization-report>
<vmc stage="main" blocks="400">
  Cannot make clones again. Use existing 1 clones
  Initial partition of walkers 0 1 
  Using Particle by Particle moves
  Walker moves without drift
  Total Sample Size   =256000
  Walker distribution on root = 0 1 
  Using Locality Approximation
===== Memory Usage after the buffer registration =====
Available memory on node 0, free + buffers : 52614 MB
Memory footprint by rank 0 on node 0       : 582 MB
==================================================
====================================================
  SimpleFixedNodeBranch::finalize after a VMC block
    QMC counter        = 5
    time step          = 0.15
    reference energy   = -18.4602
    reference variance = 0.132168
====================================================
  Execution time = 3.5737e+00
</vmc>
<opt stage="setup">
  <log>
   Reading configurations from h5FileRoot Kr.log.s005
  QMCCostFunction is created with 1 threads.
  Using Nonlocal PP in Opt: NonLocalECP
   Number of samples loaded to each thread : 250 
  VMC Eavg = -1.8452e+01
  VMC Evar = 1.3790e-01
  Total weights = 2.5600e+05
  Execution time = 7.1512e-01
  </log>
</opt>
<opt stage="main" walkers="256000">
  <log>

*****************************************
Building overlap and Hamiltonian matrices
*****************************************

Among totally 30 optimized parameters, largest LM parameter change : 7.3215e-02 at parameter 27

******************************************************************************
Init Cost =   1.3790e-01    New Cost =   1.3819e-01  Delta Cost =   2.8404e-04
******************************************************************************

The new set of parameters is valid. Updating the trial wave function!

*****************************************************************************
Applying the update for shift_i =   1.0000e-02     and shift_s =   3.9062e-03
*****************************************************************************
  Execution time = 5.0141e+00
  </log>
  <optVariables href="Kr.log.s005.opt.xml">
 uu_0                 3.599028e-01 1 1  ON 0
 uu_1                 1.661676e-01 1 1  ON 1
 uu_2                 4.304593e-02 1 1  ON 2
 uu_3                -3.917086e-02 1 1  ON 3
 uu_4                -9.528667e-02 1 1  ON 4
 uu_5                -1.275572e-01 1 1  ON 5
 uu_6                -1.362792e-01 1 1  ON 6
 uu_7                -1.180528e-01 1 1  ON 7
 uu_8                -5.883290e-02 1 1  ON 8
 uu_9                -1.839643e-03 1 1  ON 9
 ud_0                 5.748455e-01 1 1  ON 10
 ud_1                 2.420330e-01 1 1  ON 11
 ud_2                 6.582285e-02 1 1  ON 12
 ud_3                -3.232985e-02 1 1  ON 13
 ud_4                -1.031721e-01 1 1  ON 14
 ud_5                -1.538807e-01 1 1  ON 15
 ud_6                -1.836511e-01 1 1  ON 16
 ud_7                -1.823357e-01 1 1  ON 17
 ud_8                -1.380664e-01 1 1  ON 18
 ud_9                -6.505499e-02 1 1  ON 19
eKr_0                -9.373518e-01 1 1  ON 20
eKr_1                -7.729183e-01 1 1  ON 21
eKr_2                -3.586108e-01 1 1  ON 22
eKr_3                 8.071263e-02 1 1  ON 23
eKr_4                 4.108420e-01 1 1  ON 24
eKr_5                 6.158217e-01 1 1  ON 25
eKr_6                 6.326741e-01 1 1  ON 26
eKr_7                 3.193955e-01 1 1  ON 27
eKr_8                 2.587392e-02 1 1  ON 28
eKr_9                -1.366008e-02 1 1  ON 29
  </optVariables>
   Restore the number of walkers to 1, removing 0 walkers.
</opt>
</optimization-report>
  QMC Execution time = 5.022 secs
Loop execution max-interations = 5
  Reusing QMCFixedSampleLinearOptimize
 Using QMCCostFunction::QMCCostFunction

=========================================================
  Start QMCFixedSampleLinearOptimize
  File Root Kr.log.s006 append = no 
=========================================================
  Skip QMCDriver::putQMCInfo 
  Resetting Properties of the walkers 1 x 13

=========================================================
  Start VMC
  File Root Kr.log.s006 append = no 
=========================================================
  Using the current 1 walkers.
  Total number of walkers: 1.0240e+03
  Total weight: 1.0240e+03
  Resetting Properties of the walkers 1 x 13

<vmc function="put">
  qmc_counter=0  my_counter=5
  time step      = 1.5000e-01
  blocks         = 400
  steps          = 1
  substeps       = 5
  current        = 0
  target samples = 2.5600e+05
  walkers/mpi    = 1

  stepsbetweensamples = 1
<parameter name="blocks" condition="int">400</parameter>
<parameter name="blocks_between_recompute" condition="int">0</parameter>
<parameter name="check_properties" condition="int">100</parameter>
<parameter name="checkproperties" condition="int">100</parameter>
<parameter name="current" condition="int">0</parameter>
<parameter name="dmcwalkersperthread" condition="real">2.5000e+02</parameter>
<parameter name="maxcpusecs" condition="real">3.6000e+05</parameter>
<parameter name="record_configs" condition="int">0</parameter>
<parameter name="record_walkers" condition="int">1</parameter>
<parameter name="recordconfigs" condition="int">0</parameter>
<parameter name="recordwalkers" condition="int">1</parameter>
<parameter name="rewind" condition="int">0</parameter>
<parameter name="samples" condition="real">2.5600e+05</parameter>
<parameter name="samplesperthread" condition="real">2.5000e+02</parameter>
<parameter name="steps" condition="int">1</parameter>
<parameter name="stepsbetweensamples" condition="int">1</parameter>
<parameter name="store_configs" condition="int">0</parameter>
<parameter name="storeconfigs" condition="int">0</parameter>
<parameter name="sub_steps" condition="int">5</parameter>
<parameter name="substeps" condition="int">5</parameter>
<parameter name="tau" condition="au">1.5000e-01</parameter>
<parameter name="time_step" condition="au">1.5000e-01</parameter>
<parameter name="timestep" condition="au">1.5000e-01</parameter>
<parameter name="use_drift" condition="string">no</parameter>
<parameter name="usedrift" condition="string">no</parameter>
<parameter name="walkers" condition="int">1</parameter>
<parameter name="warmup_steps" condition="int">0</parameter>
<parameter name="warmupsteps" condition="int">0</parameter>
  DumpConfig==false Nothing (configurations, state) will be saved.
  Walker Samples are dumped every 1 steps.
</vmc>
  Set drift_modifier UNR parameter a = 1.0000e+00
  EstimatorManagerBase::add replace LocalEnergy estimator.
  Set drift_modifier UNR parameter a = 1.0000e+00
  EstimatorManagerBase::add replace LocalEnergy estimator.
<optimization-report>
<vmc stage="main" blocks="400">
  Cannot make clones again. Use existing 1 clones
  Initial partition of walkers 0 1 
  Using Particle by Particle moves
  Walker moves without drift
  Total Sample Size   =256000
  Walker distribution on root = 0 1 
  Using Locality Approximation
===== Memory Usage after the buffer registration =====
Available memory on node 0, free + buffers : 52611 MB
Memory footprint by rank 0 on node 0       : 584 MB
==================================================
====================================================
  SimpleFixedNodeBranch::finalize after a VMC block
    QMC counter        = 6
    time step          = 0.15
    reference energy   = -18.4518
    reference variance = 0.147025
====================================================
  Execution time = 3.5835e+00
</vmc>
<opt stage="setup">
  <log>
   Reading configurations from h5FileRoot Kr.log.s006
  QMCCostFunction is created with 1 threads.
  Using Nonlocal PP in Opt: NonLocalECP
   Number of samples loaded to each thread : 250 
  VMC Eavg = -1.8453e+01
  VMC Evar = 1.3032e-01
  Total weights = 2.5600e+05
  Execution time = 7.1488e-01
  </log>
</opt>
<opt stage="main" walkers="256000">
  <log>

*****************************************
Building overlap and Hamiltonian matrices
*****************************************

Among totally 30 optimized parameters, largest LM parameter change : 6.3605e-02 at parameter 27

******************************************************************************
Init Cost =   1.3032e-01    New Cost =   1.3079e-01  Delta Cost =   4.6443e-04
******************************************************************************

The new set of parameters is valid. Updating the trial wave function!

*****************************************************************************
Applying the update for shift_i =   1.0000e-02     and shift_s =   3.9062e-03
*****************************************************************************
  Execution time = 5.0373e+00
  </log>
  <optVariables href="Kr.log.s006.opt.xml">
 uu_0                 3.654465e-01 1 1  ON 0
 uu_1                 1.714151e-01 1 1  ON 1
 uu_2                 4.770815e-02 1 1  ON 2
 uu_3                -3.555704e-02 1 1  ON 3
 uu_4                -9.212867e-02 1 1  ON 4
 uu_5                -1.267893e-01 1 1  ON 5
 uu_6                -1.393641e-01 1 1  ON 6
 uu_7                -1.252659e-01 1 1  ON 7
 uu_8                -7.331619e-02 1 1  ON 8
 uu_9                -7.304619e-03 1 1  ON 9
 ud_0                 5.826306e-01 1 1  ON 10
 ud_1                 2.492591e-01 1 1  ON 11
 ud_2                 7.212102e-02 1 1  ON 12
 ud_3                -2.752404e-02 1 1  ON 13
 ud_4                -9.912200e-02 1 1  ON 14
 ud_5                -1.516376e-01 1 1  ON 15
 ud_6                -1.833002e-01 1 1  ON 16
 ud_7                -1.876303e-01 1 1  ON 17
 ud_8                -1.505174e-01 1 1  ON 18
 ud_9                -7.702772e-02 1 1  ON 19
eKr_0                -9.749213e-01 1 1  ON 20
eKr_1                -8.066011e-01 1 1  ON 21
eKr_2                -3.879494e-01 1 1  ON 22
eKr_3                 5.839358e-02 1 1  ON 23
eKr_4                 4.030409e-01 1 1  ON 24
eKr_5                 6.231548e-01 1 1  ON 25
eKr_6                 6.733844e-01 1 1  ON 26
eKr_7                 3.830006e-01 1 1  ON 27
eKr_8                 4.493500e-02 1 1  ON 28
eKr_9                -1.342455e-02 1 1  ON 29
  </optVariables>
   Restore the number of walkers to 1, removing 0 walkers.
</opt>
</optimization-report>
  QMC Execution time = 5.046 secs
  Reusing QMCFixedSampleLinearOptimize
 Using QMCCostFunction::QMCCostFunction

=========================================================
  Start QMCFixedSampleLinearOptimize
  File Root Kr.log.s007 append = no 
=========================================================
  Skip QMCDriver::putQMCInfo 
  Resetting Properties of the walkers 1 x 13

=========================================================
  Start VMC
  File Root Kr.log.s007 append = no 
=========================================================
Using existing walkers 
  Resetting Properties of the walkers 1 x 13

<vmc function="put">
  qmc_counter=1  my_counter=6
  time step      = 1.5000e-01
  blocks         = 400
  steps          = 1
  substeps       = 5
  current        = 0
  target samples = 2.5600e+05
  walkers/mpi    = 1

  stepsbetweensamples = 1
<parameter name="blocks" condition="int">400</parameter>
<parameter name="blocks_between_recompute" condition="int">0</parameter>
<parameter name="check_properties" condition="int">100</parameter>
<parameter name="checkproperties" condition="int">100</parameter>
<parameter name="current" condition="int">0</parameter>
<parameter name="dmcwalkersperthread" condition="real">2.5000e+02</parameter>
<parameter name="maxcpusecs" condition="real">3.6000e+05</parameter>
<parameter name="record_configs" condition="int">0</parameter>
<parameter name="record_walkers" condition="int">1</parameter>
<parameter name="recordconfigs" condition="int">0</parameter>
<parameter name="recordwalkers" condition="int">1</parameter>
<parameter name="rewind" condition="int">0</parameter>
<parameter name="samples" condition="real">2.5600e+05</parameter>
<parameter name="samplesperthread" condition="real">2.5000e+02</parameter>
<parameter name="steps" condition="int">1</parameter>
<parameter name="stepsbetweensamples" condition="int">1</parameter>
<parameter name="store_configs" condition="int">0</parameter>
<parameter name="storeconfigs" condition="int">0</parameter>
<parameter name="sub_steps" condition="int">5</parameter>
<parameter name="substeps" condition="int">5</parameter>
<parameter name="tau" condition="au">1.5000e-01</parameter>
<parameter name="time_step" condition="au">1.5000e-01</parameter>
<parameter name="timestep" condition="au">1.5000e-01</parameter>
<parameter name="use_drift" condition="string">no</parameter>
<parameter name="usedrift" condition="string">no</parameter>
<parameter name="walkers" condition="int">1</parameter>
<parameter name="warmup_steps" condition="int">0</parameter>
<parameter name="warmupsteps" condition="int">0</parameter>
  DumpConfig==false Nothing (configurations, state) will be saved.
  Walker Samples are dumped every 1 steps.
</vmc>
  Set drift_modifier UNR parameter a = 1.0000e+00
  EstimatorManagerBase::add replace LocalEnergy estimator.
  Set drift_modifier UNR parameter a = 1.0000e+00
  EstimatorManagerBase::add replace LocalEnergy estimator.
<optimization-report>
<vmc stage="main" blocks="400">
  Cannot make clones again. Use existing 1 clones
  Initial partition of walkers 0 1 
  Using Particle by Particle moves
  Walker moves without drift
  Total Sample Size   =256000
  Walker distribution on root = 0 1 
  Using Locality Approximation
===== Memory Usage after the buffer registration =====
Available memory on node 0, free + buffers : 52608 MB
Memory footprint by rank 0 on node 0       : 587 MB
==================================================
====================================================
  SimpleFixedNodeBranch::finalize after a VMC block
    QMC counter        = 7
    time step          = 0.15
    reference energy   = -18.4272
    reference variance = 0.111791
====================================================
  Execution time = 3.5747e+00
</vmc>
<opt stage="setup">
  <log>
   Reading configurations from h5FileRoot Kr.log.s007
  QMCCostFunction is created with 1 threads.
  Using Nonlocal PP in Opt: NonLocalECP
   Number of samples loaded to each thread : 250 
  VMC Eavg = -1.8454e+01
  VMC Evar = 1.3287e-01
  Total weights = 2.5600e+05
  Execution time = 7.2429e-01
  </log>
</opt>
<opt stage="main" walkers="256000">
  <log>

*****************************************
Building overlap and Hamiltonian matrices
*****************************************

Among totally 30 optimized parameters, largest LM parameter change : 6.3226e-02 at parameter 27

******************************************************************************
Init Cost =   1.3287e-01    New Cost =   1.3367e-01  Delta Cost =   7.9687e-04
******************************************************************************

The new set of parameters is valid. Updating the trial wave function!

*****************************************************************************
Applying the update for shift_i =   1.0000e-02     and shift_s =   3.9062e-03
*****************************************************************************
  Execution time = 5.0254e+00
  </log>
  <optVariables href="Kr.log.s007.opt.xml">
 uu_0                 3.702804e-01 1 1  ON 0
 uu_1                 1.757124e-01 1 1  ON 1
 uu_2                 5.188484e-02 1 1  ON 2
 uu_3                -3.239525e-02 1 1  ON 3
 uu_4                -9.015338e-02 1 1  ON 4
 uu_5                -1.258736e-01 1 1  ON 5
 uu_6                -1.403306e-01 1 1  ON 6
 uu_7                -1.307627e-01 1 1  ON 7
 uu_8                -7.644363e-02 1 1  ON 8
 uu_9                -1.422559e-02 1 1  ON 9
 ud_0                 5.878724e-01 1 1  ON 10
 ud_1                 2.549605e-01 1 1  ON 11
 ud_2                 7.796401e-02 1 1  ON 12
 ud_3                -2.237037e-02 1 1  ON 13
 ud_4                -9.531203e-02 1 1  ON 14
 ud_5                -1.489700e-01 1 1  ON 15
 ud_6                -1.830221e-01 1 1  ON 16
 ud_7                -1.898453e-01 1 1  ON 17
 ud_8                -1.566828e-01 1 1  ON 18
 ud_9                -8.706314e-02 1 1  ON 19
eKr_0                -1.004919e+00 1 1  ON 20
eKr_1                -8.342766e-01 1 1  ON 21
eKr_2                -4.123207e-01 1 1  ON 22
eKr_3                 4.122761e-02 1 1  ON 23
eKr_4                 3.931900e-01 1 1  ON 24
eKr_5                 6.245016e-01 1 1  ON 25
eKr_6                 6.988799e-01 1 1  ON 26
eKr_7                 4.462267e-01 1 1  ON 27
eKr_8                 6.754497e-02 1 1  ON 28
eKr_9                -1.514666e-02 1 1  ON 29
  </optVariables>
   Restore the number of walkers to 1, removing 0 walkers.
</opt>
</optimization-report>
  QMC Execution time = 5.034 secs
  Reusing QMCFixedSampleLinearOptimize
 Using QMCCostFunction::QMCCostFunction

=========================================================
  Start QMCFixedSampleLinearOptimize
  File Root Kr.log.s008 append = no 
=========================================================
  Skip QMCDriver::putQMCInfo 
  Resetting Properties of the walkers 1 x 13

=========================================================
  Start VMC
  File Root Kr.log.s008 append = no 
=========================================================
Using existing walkers 
  Resetting Properties of the walkers 1 x 13

<vmc function="put">
  qmc_counter=2  my_counter=7
  time step      = 1.5000e-01
  blocks         = 400
  steps          = 1
  substeps       = 5
  current        = 0
  target samples = 2.5600e+05
  walkers/mpi    = 1

  stepsbetweensamples = 1
<parameter name="blocks" condition="int">400</parameter>
<parameter name="blocks_between_recompute" condition="int">0</parameter>
<parameter name="check_properties" condition="int">100</parameter>
<parameter name="checkproperties" condition="int">100</parameter>
<parameter name="current" condition="int">0</parameter>
<parameter name="dmcwalkersperthread" condition="real">2.5000e+02</parameter>
<parameter name="maxcpusecs" condition="real">3.6000e+05</parameter>
<parameter name="record_configs" condition="int">0</parameter>
<parameter name="record_walkers" condition="int">1</parameter>
<parameter name="recordconfigs" condition="int">0</parameter>
<parameter name="recordwalkers" condition="int">1</parameter>
<parameter name="rewind" condition="int">0</parameter>
<parameter name="samples" condition="real">2.5600e+05</parameter>
<parameter name="samplesperthread" condition="real">2.5000e+02</parameter>
<parameter name="steps" condition="int">1</parameter>
<parameter name="stepsbetweensamples" condition="int">1</parameter>
<parameter name="store_configs" condition="int">0</parameter>
<parameter name="storeconfigs" condition="int">0</parameter>
<parameter name="sub_steps" condition="int">5</parameter>
<parameter name="substeps" condition="int">5</parameter>
<parameter name="tau" condition="au">1.5000e-01</parameter>
<parameter name="time_step" condition="au">1.5000e-01</parameter>
<parameter name="timestep" condition="au">1.5000e-01</parameter>
<parameter name="use_drift" condition="string">no</parameter>
<parameter name="usedrift" condition="string">no</parameter>
<parameter name="walkers" condition="int">1</parameter>
<parameter name="warmup_steps" condition="int">0</parameter>
<parameter name="warmupsteps" condition="int">0</parameter>
  DumpConfig==false Nothing (configurations, state) will be saved.
  Walker Samples are dumped every 1 steps.
</vmc>
  Set drift_modifier UNR parameter a = 1.0000e+00
  EstimatorManagerBase::add replace LocalEnergy estimator.
  Set drift_modifier UNR parameter a = 1.0000e+00
  EstimatorManagerBase::add replace LocalEnergy estimator.
<optimization-report>
<vmc stage="main" blocks="400">
  Cannot make clones again. Use existing 1 clones
  Initial partition of walkers 0 1 
  Using Particle by Particle moves
  Walker moves without drift
  Total Sample Size   =256000
  Walker distribution on root = 0 1 
  Using Locality Approximation
===== Memory Usage after the buffer registration =====
Available memory on node 0, free + buffers : 52605 MB
Memory footprint by rank 0 on node 0       : 590 MB
==================================================
====================================================
  SimpleFixedNodeBranch::finalize after a VMC block
    QMC counter        = 8
    time step          = 0.15
    reference energy   = -18.4511
    reference variance = 0.116894
====================================================
  Execution time = 3.5989e+00
</vmc>
<opt stage="setup">
  <log>
   Reading configurations from h5FileRoot Kr.log.s008
  QMCCostFunction is created with 1 threads.
  Using Nonlocal PP in Opt: NonLocalECP
   Number of samples loaded to each thread : 250 
  VMC Eavg = -1.8454e+01
  VMC Evar = 1.2912e-01
  Total weights = 2.5600e+05
  Execution time = 7.4527e-01
  </log>
</opt>
<opt stage="main" walkers="256000">
  <log>

*****************************************
Building overlap and Hamiltonian matrices
*****************************************

Among totally 30 optimized parameters, largest LM parameter change : 4.7924e-02 at parameter 27

******************************************************************************
Init Cost =   1.2912e-01    New Cost =   1.2939e-01  Delta Cost =   2.6522e-04
******************************************************************************

The new set of parameters is valid. Updating the trial wave function!

*****************************************************************************
Applying the update for shift_i =   1.0000e-02     and shift_s =   3.9062e-03
*****************************************************************************
  Execution time = 5.0905e+00
  </log>
  <optVariables href="Kr.log.s008.opt.xml">
 uu_0                 3.714477e-01 1 1  ON 0
 uu_1                 1.782033e-01 1 1  ON 1
 uu_2                 5.346171e-02 1 1  ON 2
 uu_3                -3.112481e-02 1 1  ON 3
 uu_4                -8.958872e-02 1 1  ON 4
 uu_5                -1.266960e-01 1 1  ON 5
 uu_6                -1.423127e-01 1 1  ON 6
 uu_7                -1.329919e-01 1 1  ON 7
 uu_8                -8.206292e-02 1 1  ON 8
 uu_9                -1.647235e-02 1 1  ON 9
 ud_0                 5.911272e-01 1 1  ON 10
 ud_1                 2.577491e-01 1 1  ON 11
 ud_2                 8.047562e-02 1 1  ON 12
 ud_3                -1.942373e-02 1 1  ON 13
 ud_4                -9.185903e-02 1 1  ON 14
 ud_5                -1.459672e-01 1 1  ON 15
 ud_6                -1.815099e-01 1 1  ON 16
 ud_7                -1.924047e-01 1 1  ON 17
 ud_8                -1.635573e-01 1 1  ON 18
 ud_9                -9.318607e-02 1 1  ON 19
eKr_0                -1.023791e+00 1 1  ON 20
eKr_1                -8.523625e-01 1 1  ON 21
eKr_2                -4.286445e-01 1 1  ON 22
eKr_3                 2.389807e-02 1 1  ON 23
eKr_4                 3.799801e-01 1 1  ON 24
eKr_5                 6.256114e-01 1 1  ON 25
eKr_6                 7.112768e-01 1 1  ON 26
eKr_7                 4.941511e-01 1 1  ON 27
eKr_8                 8.933788e-02 1 1  ON 28
eKr_9                -1.436556e-02 1 1  ON 29
  </optVariables>
   Restore the number of walkers to 1, removing 0 walkers.
</opt>
</optimization-report>
  QMC Execution time = 5.099 secs
  Reusing QMCFixedSampleLinearOptimize
 Using QMCCostFunction::QMCCostFunction

=========================================================
  Start QMCFixedSampleLinearOptimize
  File Root Kr.log.s009 append = no 
=========================================================
  Skip QMCDriver::putQMCInfo 
  Resetting Properties of the walkers 1 x 13

=========================================================
  Start VMC
  File Root Kr.log.s009 append = no 
=========================================================
Using existing walkers 
  Resetting Properties of the walkers 1 x 13

<vmc function="put">
  qmc_counter=3  my_counter=8
  time step      = 1.5000e-01
  blocks         = 400
  steps          = 1
  substeps       = 5
  current        = 0
  target samples = 2.5600e+05
  walkers/mpi    = 1

  stepsbetweensamples = 1
<parameter name="blocks" condition="int">400</parameter>
<parameter name="blocks_between_recompute" condition="int">0</parameter>
<parameter name="check_properties" condition="int">100</parameter>
<parameter name="checkproperties" condition="int">100</parameter>
<parameter name="current" condition="int">0</parameter>
<parameter name="dmcwalkersperthread" condition="real">2.5000e+02</parameter>
<parameter name="maxcpusecs" condition="real">3.6000e+05</parameter>
<parameter name="record_configs" condition="int">0</parameter>
<parameter name="record_walkers" condition="int">1</parameter>
<parameter name="recordconfigs" condition="int">0</parameter>
<parameter name="recordwalkers" condition="int">1</parameter>
<parameter name="rewind" condition="int">0</parameter>
<parameter name="samples" condition="real">2.5600e+05</parameter>
<parameter name="samplesperthread" condition="real">2.5000e+02</parameter>
<parameter name="steps" condition="int">1</parameter>
<parameter name="stepsbetweensamples" condition="int">1</parameter>
<parameter name="store_configs" condition="int">0</parameter>
<parameter name="storeconfigs" condition="int">0</parameter>
<parameter name="sub_steps" condition="int">5</parameter>
<parameter name="substeps" condition="int">5</parameter>
<parameter name="tau" condition="au">1.5000e-01</parameter>
<parameter name="time_step" condition="au">1.5000e-01</parameter>
<parameter name="timestep" condition="au">1.5000e-01</parameter>
<parameter name="use_drift" condition="string">no</parameter>
<parameter name="usedrift" condition="string">no</parameter>
<parameter name="walkers" condition="int">1</parameter>
<parameter name="warmup_steps" condition="int">0</parameter>
<parameter name="warmupsteps" condition="int">0</parameter>
  DumpConfig==false Nothing (configurations, state) will be saved.
  Walker Samples are dumped every 1 steps.
</vmc>
  Set drift_modifier UNR parameter a = 1.0000e+00
  EstimatorManagerBase::add replace LocalEnergy estimator.
  Set drift_modifier UNR parameter a = 1.0000e+00
  EstimatorManagerBase::add replace LocalEnergy estimator.
<optimization-report>
<vmc stage="main" blocks="400">
  Cannot make clones again. Use existing 1 clones
  Initial partition of walkers 0 1 
  Using Particle by Particle moves
  Walker moves without drift
  Total Sample Size   =256000
  Walker distribution on root = 0 1 
  Using Locality Approximation
===== Memory Usage after the buffer registration =====
Available memory on node 0, free + buffers : 52603 MB
Memory footprint by rank 0 on node 0       : 592 MB
==================================================
====================================================
  SimpleFixedNodeBranch::finalize after a VMC block
    QMC counter        = 9
    time step          = 0.15
    reference energy   = -18.4639
    reference variance = 0.160583
====================================================
  Execution time = 3.5761e+00
</vmc>
<opt stage="setup">
  <log>
   Reading configurations from h5FileRoot Kr.log.s009
  QMCCostFunction is created with 1 threads.
  Using Nonlocal PP in Opt: NonLocalECP
   Number of samples loaded to each thread : 250 
  VMC Eavg = -1.8455e+01
  VMC Evar = 1.2957e-01
  Total weights = 2.5600e+05
  Execution time = 7.2123e-01
  </log>
</opt>
<opt stage="main" walkers="256000">
  <log>

*****************************************
Building overlap and Hamiltonian matrices
*****************************************

Among totally 30 optimized parameters, largest LM parameter change : 3.8430e-02 at parameter 27

******************************************************************************
Init Cost =   1.2957e-01    New Cost =   1.2931e-01  Delta Cost =  -2.5575e-04
******************************************************************************

The new set of parameters is valid. Updating the trial wave function!

*****************************************************************************
Applying the update for shift_i =   1.0000e-02     and shift_s =   3.9062e-03
*****************************************************************************
  Execution time = 5.0246e+00
  </log>
  <optVariables href="Kr.log.s009.opt.xml">
 uu_0                 3.764311e-01 1 1  ON 0
 uu_1                 1.812739e-01 1 1  ON 1
 uu_2                 5.727681e-02 1 1  ON 2
 uu_3                -2.726260e-02 1 1  ON 3
 uu_4                -8.589927e-02 1 1  ON 4
 uu_5                -1.237436e-01 1 1  ON 5
 uu_6                -1.416841e-01 1 1  ON 6
 uu_7                -1.362601e-01 1 1  ON 7
 uu_8                -9.463049e-02 1 1  ON 8
 uu_9                -2.426357e-02 1 1  ON 9
 ud_0                 5.955560e-01 1 1  ON 10
 ud_1                 2.624148e-01 1 1  ON 11
 ud_2                 8.515341e-02 1 1  ON 12
 ud_3                -1.548980e-02 1 1  ON 13
 ud_4                -8.880712e-02 1 1  ON 14
 ud_5                -1.433541e-01 1 1  ON 15
 ud_6                -1.801598e-01 1 1  ON 16
 ud_7                -1.952569e-01 1 1  ON 17
 ud_8                -1.689838e-01 1 1  ON 18
 ud_9                -1.030776e-01 1 1  ON 19
eKr_0                -1.041689e+00 1 1  ON 20
eKr_1                -8.710109e-01 1 1  ON 21
eKr_2                -4.459005e-01 1 1  ON 22
eKr_3                 1.049947e-02 1 1  ON 23
eKr_4                 3.716640e-01 1 1  ON 24
eKr_5                 6.276079e-01 1 1  ON 25
eKr_6                 7.282785e-01 1 1  ON 26
eKr_7                 5.325810e-01 1 1  ON 27
eKr_8                 1.087728e-01 1 1  ON 28
eKr_9                -1.485494e-02 1 1  ON 29
  </optVariables>
   Restore the number of walkers to 1, removing 0 walkers.
</opt>
</optimization-report>
  QMC Execution time = 5.033 secs
  Reusing QMCFixedSampleLinearOptimize
 Using QMCCostFunction::QMCCostFunction

=========================================================
  Start QMCFixedSampleLinearOptimize
  File Root Kr.log.s010 append = no 
=========================================================
  Skip QMCDriver::putQMCInfo 
  Resetting Properties of the walkers 1 x 13

=========================================================
  Start VMC
  File Root Kr.log.s010 append = no 
=========================================================
Using existing walkers 
  Resetting Properties of the walkers 1 x 13

<vmc function="put">
  qmc_counter=4  my_counter=9
  time step      = 1.5000e-01
  blocks         = 400
  steps          = 1
  substeps       = 5
  current        = 0
  target samples = 2.5600e+05
  walkers/mpi    = 1

  stepsbetweensamples = 1
<parameter name="blocks" condition="int">400</parameter>
<parameter name="blocks_between_recompute" condition="int">0</parameter>
<parameter name="check_properties" condition="int">100</parameter>
<parameter name="checkproperties" condition="int">100</parameter>
<parameter name="current" condition="int">0</parameter>
<parameter name="dmcwalkersperthread" condition="real">2.5000e+02</parameter>
<parameter name="maxcpusecs" condition="real">3.6000e+05</parameter>
<parameter name="record_configs" condition="int">0</parameter>
<parameter name="record_walkers" condition="int">1</parameter>
<parameter name="recordconfigs" condition="int">0</parameter>
<parameter name="recordwalkers" condition="int">1</parameter>
<parameter name="rewind" condition="int">0</parameter>
<parameter name="samples" condition="real">2.5600e+05</parameter>
<parameter name="samplesperthread" condition="real">2.5000e+02</parameter>
<parameter name="steps" condition="int">1</parameter>
<parameter name="stepsbetweensamples" condition="int">1</parameter>
<parameter name="store_configs" condition="int">0</parameter>
<parameter name="storeconfigs" condition="int">0</parameter>
<parameter name="sub_steps" condition="int">5</parameter>
<parameter name="substeps" condition="int">5</parameter>
<parameter name="tau" condition="au">1.5000e-01</parameter>
<parameter name="time_step" condition="au">1.5000e-01</parameter>
<parameter name="timestep" condition="au">1.5000e-01</parameter>
<parameter name="use_drift" condition="string">no</parameter>
<parameter name="usedrift" condition="string">no</parameter>
<parameter name="walkers" condition="int">1</parameter>
<parameter name="warmup_steps" condition="int">0</parameter>
<parameter name="warmupsteps" condition="int">0</parameter>
  DumpConfig==false Nothing (configurations, state) will be saved.
  Walker Samples are dumped every 1 steps.
</vmc>
  Set drift_modifier UNR parameter a = 1.0000e+00
  EstimatorManagerBase::add replace LocalEnergy estimator.
  Set drift_modifier UNR parameter a = 1.0000e+00
  EstimatorManagerBase::add replace LocalEnergy estimator.
<optimization-report>
<vmc stage="main" blocks="400">
  Cannot make clones again. Use existing 1 clones
  Initial partition of walkers 0 1 
  Using Particle by Particle moves
  Walker moves without drift
  Total Sample Size   =256000
  Walker distribution on root = 0 1 
  Using Locality Approximation
===== Memory Usage after the buffer registration =====
Available memory on node 0, free + buffers : 52600 MB
Memory footprint by rank 0 on node 0       : 595 MB
==================================================
====================================================
  SimpleFixedNodeBranch::finalize after a VMC block
    QMC counter        = 10
    time step          = 0.15
    reference energy   = -18.4426
    reference variance = 0.103636
====================================================
  Execution time = 3.5708e+00
</vmc>
<opt stage="setup">
  <log>
   Reading configurations from h5FileRoot Kr.log.s010
  QMCCostFunction is created with 1 threads.
  Using Nonlocal PP in Opt: NonLocalECP
   Number of samples loaded to each thread : 250 
  VMC Eavg = -1.8455e+01
  VMC Evar = 1.3099e-01
  Total weights = 2.5600e+05
  Execution time = 7.4841e-01
  </log>
</opt>
<opt stage="main" walkers="256000">
  <log>

*****************************************
Building overlap and Hamiltonian matrices
*****************************************

Among totally 30 optimized parameters, largest LM parameter change : 3.5243e-02 at parameter 27

******************************************************************************
Init Cost =   1.3099e-01    New Cost =   1.3095e-01  Delta Cost =  -4.5301e-05
******************************************************************************

The new set of parameters is valid. Updating the trial wave function!

*****************************************************************************
Applying the update for shift_i =   1.0000e-02     and shift_s =   3.9062e-03
*****************************************************************************
  Execution time = 5.0663e+00
  </log>
  <optVariables href="Kr.log.s010.opt.xml">
 uu_0                 3.764974e-01 1 1  ON 0
 uu_1                 1.821203e-01 1 1  ON 1
 uu_2                 5.737843e-02 1 1  ON 2
 uu_3                -2.678227e-02 1 1  ON 3
 uu_4                -8.523028e-02 1 1  ON 4
 uu_5                -1.225903e-01 1 1  ON 5
 uu_6                -1.410611e-01 1 1  ON 6
 uu_7                -1.343902e-01 1 1  ON 7
 uu_8                -9.634977e-02 1 1  ON 8
 uu_9                -2.906202e-02 1 1  ON 9
 ud_0                 6.000697e-01 1 1  ON 10
 ud_1                 2.674989e-01 1 1  ON 11
 ud_2                 8.973020e-02 1 1  ON 12
 ud_3                -1.123120e-02 1 1  ON 13
 ud_4                -8.504557e-02 1 1  ON 14
 ud_5                -1.406340e-01 1 1  ON 15
 ud_6                -1.793004e-01 1 1  ON 16
 ud_7                -1.953505e-01 1 1  ON 17
 ud_8                -1.774771e-01 1 1  ON 18
 ud_9                -1.116074e-01 1 1  ON 19
eKr_0                -1.056728e+00 1 1  ON 20
eKr_1                -8.823370e-01 1 1  ON 21
eKr_2                -4.579414e-01 1 1  ON 22
eKr_3                -5.770692e-04 1 1  ON 23
eKr_4                 3.621670e-01 1 1  ON 24
eKr_5                 6.198549e-01 1 1  ON 25
eKr_6                 7.377863e-01 1 1  ON 26
eKr_7                 5.678244e-01 1 1  ON 27
eKr_8                 1.304755e-01 1 1  ON 28
eKr_9                -1.406642e-02 1 1  ON 29
  </optVariables>
   Restore the number of walkers to 1, removing 0 walkers.
</opt>
</optimization-report>
  QMC Execution time = 5.074 secs
Loop execution max-interations = 10
  Reusing QMCFixedSampleLinearOptimize
 Using QMCCostFunction::QMCCostFunction

=========================================================
  Start QMCFixedSampleLinearOptimize
  File Root Kr.log.s011 append = no 
=========================================================
  Skip QMCDriver::putQMCInfo 
  Resetting Properties of the walkers 1 x 13

[...]
eKr_7                 7.169986e-01 1 1  ON 27
eKr_8                 2.779426e-01 1 1  ON 28
eKr_9                 2.265078e-03 1 1  ON 29
  </optVariables>
   Restore the number of walkers to 1, removing 0 walkers.
</opt>
</optimization-report>
  QMC Execution time = 7.969 secs
  Reusing QMCFixedSampleLinearOptimize
 Using QMCCostFunction::QMCCostFunction

=========================================================
  Start QMCFixedSampleLinearOptimize
  File Root Kr.log.s018 append = no 
=========================================================
  Skip QMCDriver::putQMCInfo 
  Resetting Properties of the walkers 1 x 13

=========================================================
  Start VMC
  File Root Kr.log.s018 append = no 
=========================================================
Using existing walkers 
  Resetting Properties of the walkers 1 x 13

<vmc function="put">
  qmc_counter=7  my_counter=17
  time step      = 1.5000e-01
  blocks         = 400
  steps          = 2
  substeps       = 5
  current        = 0
  target samples = 5.1200e+05
  walkers/mpi    = 1

  stepsbetweensamples = 1
<parameter name="blocks" condition="int">400</parameter>
<parameter name="blocks_between_recompute" condition="int">0</parameter>
<parameter name="check_properties" condition="int">100</parameter>
<parameter name="checkproperties" condition="int">100</parameter>
<parameter name="current" condition="int">0</parameter>
<parameter name="dmcwalkersperthread" condition="real">5.0000e+02</parameter>
<parameter name="maxcpusecs" condition="real">3.6000e+05</parameter>
<parameter name="record_configs" condition="int">0</parameter>
<parameter name="record_walkers" condition="int">1</parameter>
<parameter name="recordconfigs" condition="int">0</parameter>
<parameter name="recordwalkers" condition="int">1</parameter>
<parameter name="rewind" condition="int">0</parameter>
<parameter name="samples" condition="real">5.1200e+05</parameter>
<parameter name="samplesperthread" condition="real">5.0000e+02</parameter>
<parameter name="steps" condition="int">2</parameter>
<parameter name="stepsbetweensamples" condition="int">1</parameter>
<parameter name="store_configs" condition="int">0</parameter>
<parameter name="storeconfigs" condition="int">0</parameter>
<parameter name="sub_steps" condition="int">5</parameter>
<parameter name="substeps" condition="int">5</parameter>
<parameter name="tau" condition="au">1.5000e-01</parameter>
<parameter name="time_step" condition="au">1.5000e-01</parameter>
<parameter name="timestep" condition="au">1.5000e-01</parameter>
<parameter name="use_drift" condition="string">no</parameter>
<parameter name="usedrift" condition="string">no</parameter>
<parameter name="walkers" condition="int">1</parameter>
<parameter name="warmup_steps" condition="int">0</parameter>
<parameter name="warmupsteps" condition="int">0</parameter>
  DumpConfig==false Nothing (configurations, state) will be saved.
  Walker Samples are dumped every 1 steps.
</vmc>
  Set drift_modifier UNR parameter a = 1.0000e+00
  EstimatorManagerBase::add replace LocalEnergy estimator.
  Set drift_modifier UNR parameter a = 1.0000e+00
  EstimatorManagerBase::add replace LocalEnergy estimator.
<optimization-report>
<vmc stage="main" blocks="400">
  Cannot make clones again. Use existing 1 clones
  Initial partition of walkers 0 1 
  Using Particle by Particle moves
  Walker moves without drift
  Total Sample Size   =512000
  Walker distribution on root = 0 1 
  Using Locality Approximation
===== Memory Usage after the buffer registration =====
Available memory on node 0, free + buffers : 52572 MB
Memory footprint by rank 0 on node 0       : 617 MB
==================================================
====================================================
  SimpleFixedNodeBranch::finalize after a VMC block
    QMC counter        = 18
    time step          = 0.15
    reference energy   = -18.454
    reference variance = 0.10161
====================================================
  Execution time = 5.0258e+00
</vmc>
<opt stage="setup">
  <log>
   Reading configurations from h5FileRoot Kr.log.s018
  QMCCostFunction is created with 1 threads.
  Using Nonlocal PP in Opt: NonLocalECP
   Number of samples loaded to each thread : 500 
  VMC Eavg = -1.8456e+01
  VMC Evar = 1.2777e-01
  Total weights = 5.1200e+05
  Execution time = 1.4614e+00
  </log>
</opt>
<opt stage="main" walkers="512000">
  <log>

*****************************************
Building overlap and Hamiltonian matrices
*****************************************

Among totally 30 optimized parameters, largest LM parameter change : 2.0609e-02 at parameter 28

******************************************************************************
Init Cost =  -1.7527e+01    New Cost =  -1.7527e+01  Delta Cost =  -5.8401e-06
******************************************************************************

The new set of parameters is valid. Updating the trial wave function!

*****************************************************************************
Applying the update for shift_i =   1.0000e-02     and shift_s =   3.9062e-03
*****************************************************************************
  Execution time = 7.9614e+00
  </log>
  <optVariables href="Kr.log.s018.opt.xml">
 uu_0                 3.861767e-01 1 1  ON 0
 uu_1                 1.920890e-01 1 1  ON 1
 uu_2                 6.671762e-02 1 1  ON 2
 uu_3                -1.912324e-02 1 1  ON 3
 uu_4                -7.982714e-02 1 1  ON 4
 uu_5                -1.198456e-01 1 1  ON 5
 uu_6                -1.422075e-01 1 1  ON 6
 uu_7                -1.449289e-01 1 1  ON 7
 uu_8                -1.171051e-01 1 1  ON 8
 uu_9                -5.016954e-02 1 1  ON 9
 ud_0                 6.153353e-01 1 1  ON 10
 ud_1                 2.823346e-01 1 1  ON 11
 ud_2                 1.043877e-01 1 1  ON 12
 ud_3                 2.835586e-03 1 1  ON 13
 ud_4                -7.206043e-02 1 1  ON 14
 ud_5                -1.294021e-01 1 1  ON 15
 ud_6                -1.712199e-01 1 1  ON 16
 ud_7                -1.935158e-01 1 1  ON 17
 ud_8                -1.846182e-01 1 1  ON 18
 ud_9                -1.370301e-01 1 1  ON 19
eKr_0                -1.135895e+00 1 1  ON 20
eKr_1                -9.594064e-01 1 1  ON 21
eKr_2                -5.291295e-01 1 1  ON 22
eKr_3                -6.217601e-02 1 1  ON 23
eKr_4                 3.146678e-01 1 1  ON 24
eKr_5                 5.990734e-01 1 1  ON 25
eKr_6                 7.547157e-01 1 1  ON 26
eKr_7                 7.272999e-01 1 1  ON 27
eKr_8                 2.985520e-01 1 1  ON 28
eKr_9                 5.543861e-03 1 1  ON 29
  </optVariables>
   Restore the number of walkers to 1, removing 0 walkers.
</opt>
</optimization-report>
  QMC Execution time = 7.97 secs
  Reusing QMCFixedSampleLinearOptimize
 Using QMCCostFunction::QMCCostFunction

=========================================================
  Start QMCFixedSampleLinearOptimize
  File Root Kr.log.s019 append = no 
=========================================================
  Skip QMCDriver::putQMCInfo 
  Resetting Properties of the walkers 1 x 13

=========================================================
  Start VMC
  File Root Kr.log.s019 append = no 
=========================================================
Using existing walkers 
  Resetting Properties of the walkers 1 x 13

<vmc function="put">
  qmc_counter=8  my_counter=18
  time step      = 1.5000e-01
  blocks         = 400
  steps          = 2
  substeps       = 5
  current        = 0
  target samples = 5.1200e+05
  walkers/mpi    = 1

  stepsbetweensamples = 1
<parameter name="blocks" condition="int">400</parameter>
<parameter name="blocks_between_recompute" condition="int">0</parameter>
<parameter name="check_properties" condition="int">100</parameter>
<parameter name="checkproperties" condition="int">100</parameter>
<parameter name="current" condition="int">0</parameter>
<parameter name="dmcwalkersperthread" condition="real">5.0000e+02</parameter>
<parameter name="maxcpusecs" condition="real">3.6000e+05</parameter>
<parameter name="record_configs" condition="int">0</parameter>
<parameter name="record_walkers" condition="int">1</parameter>
<parameter name="recordconfigs" condition="int">0</parameter>
<parameter name="recordwalkers" condition="int">1</parameter>
<parameter name="rewind" condition="int">0</parameter>
<parameter name="samples" condition="real">5.1200e+05</parameter>
<parameter name="samplesperthread" condition="real">5.0000e+02</parameter>
<parameter name="steps" condition="int">2</parameter>
<parameter name="stepsbetweensamples" condition="int">1</parameter>
<parameter name="store_configs" condition="int">0</parameter>
<parameter name="storeconfigs" condition="int">0</parameter>
<parameter name="sub_steps" condition="int">5</parameter>
<parameter name="substeps" condition="int">5</parameter>
<parameter name="tau" condition="au">1.5000e-01</parameter>
<parameter name="time_step" condition="au">1.5000e-01</parameter>
<parameter name="timestep" condition="au">1.5000e-01</parameter>
<parameter name="use_drift" condition="string">no</parameter>
<parameter name="usedrift" condition="string">no</parameter>
<parameter name="walkers" condition="int">1</parameter>
<parameter name="warmup_steps" condition="int">0</parameter>
<parameter name="warmupsteps" condition="int">0</parameter>
  DumpConfig==false Nothing (configurations, state) will be saved.
  Walker Samples are dumped every 1 steps.
</vmc>
  Set drift_modifier UNR parameter a = 1.0000e+00
  EstimatorManagerBase::add replace LocalEnergy estimator.
  Set drift_modifier UNR parameter a = 1.0000e+00
  EstimatorManagerBase::add replace LocalEnergy estimator.
<optimization-report>
<vmc stage="main" blocks="400">
  Cannot make clones again. Use existing 1 clones
  Initial partition of walkers 0 1 
  Using Particle by Particle moves
  Walker moves without drift
  Total Sample Size   =512000
  Walker distribution on root = 0 1 
  Using Locality Approximation
===== Memory Usage after the buffer registration =====
Available memory on node 0, free + buffers : 52569 MB
Memory footprint by rank 0 on node 0       : 619 MB
==================================================
====================================================
  SimpleFixedNodeBranch::finalize after a VMC block
    QMC counter        = 19
    time step          = 0.15
    reference energy   = -18.4582
    reference variance = 0.0979172
====================================================
  Execution time = 5.0315e+00
</vmc>
<opt stage="setup">
  <log>
   Reading configurations from h5FileRoot Kr.log.s019
  QMCCostFunction is created with 1 threads.
  Using Nonlocal PP in Opt: NonLocalECP
   Number of samples loaded to each thread : 500 
  VMC Eavg = -1.8454e+01
  VMC Evar = 1.2691e-01
  Total weights = 5.1200e+05
  Execution time = 1.4645e+00
  </log>
</opt>
<opt stage="main" walkers="512000">
  <log>

*****************************************
Building overlap and Hamiltonian matrices
*****************************************

Among totally 30 optimized parameters, largest LM parameter change : 4.4007e+02 at parameter 29

******************************************************************************
Init Cost =  -1.7525e+01    New Cost =  -4.6105e+02  Delta Cost =  -4.4353e+02
******************************************************************************

The new set of parameters is not valid. Revert to the old set!

*****************************************************************************
Applying the update for shift_i =   1.0000e-02     and shift_s =   1.5625e-02
*****************************************************************************
  Execution time = 6.8476e+00
  </log>
  <optVariables href="Kr.log.s019.opt.xml">
 uu_0                 3.861767e-01 1 1  ON 0
 uu_1                 1.920890e-01 1 1  ON 1
 uu_2                 6.671762e-02 1 1  ON 2
 uu_3                -1.912324e-02 1 1  ON 3
 uu_4                -7.982714e-02 1 1  ON 4
 uu_5                -1.198456e-01 1 1  ON 5
 uu_6                -1.422075e-01 1 1  ON 6
 uu_7                -1.449289e-01 1 1  ON 7
 uu_8                -1.171051e-01 1 1  ON 8
 uu_9                -5.016954e-02 1 1  ON 9
 ud_0                 6.153353e-01 1 1  ON 10
 ud_1                 2.823346e-01 1 1  ON 11
 ud_2                 1.043877e-01 1 1  ON 12
 ud_3                 2.835586e-03 1 1  ON 13
 ud_4                -7.206043e-02 1 1  ON 14
 ud_5                -1.294021e-01 1 1  ON 15
 ud_6                -1.712199e-01 1 1  ON 16
 ud_7                -1.935158e-01 1 1  ON 17
 ud_8                -1.846182e-01 1 1  ON 18
 ud_9                -1.370301e-01 1 1  ON 19
eKr_0                -1.135895e+00 1 1  ON 20
eKr_1                -9.594064e-01 1 1  ON 21
eKr_2                -5.291295e-01 1 1  ON 22
eKr_3                -6.217601e-02 1 1  ON 23
eKr_4                 3.146678e-01 1 1  ON 24
eKr_5                 5.990734e-01 1 1  ON 25
eKr_6                 7.547157e-01 1 1  ON 26
eKr_7                 7.272999e-01 1 1  ON 27
eKr_8                 2.985520e-01 1 1  ON 28
eKr_9                 5.543861e-03 1 1  ON 29
  </optVariables>
   Restore the number of walkers to 1, removing 0 walkers.
</opt>
</optimization-report>
  QMC Execution time = 6.856 secs
  Reusing QMCFixedSampleLinearOptimize
 Using QMCCostFunction::QMCCostFunction

=========================================================
  Start QMCFixedSampleLinearOptimize
  File Root Kr.log.s020 append = no 
=========================================================
  Skip QMCDriver::putQMCInfo 
  Resetting Properties of the walkers 1 x 13

=========================================================
  Start VMC
  File Root Kr.log.s020 append = no 
=========================================================
Using existing walkers 
  Resetting Properties of the walkers 1 x 13

<vmc function="put">
  qmc_counter=9  my_counter=19
  time step      = 1.5000e-01
  blocks         = 400
  steps          = 2
  substeps       = 5
  current        = 0
  target samples = 5.1200e+05
  walkers/mpi    = 1

  stepsbetweensamples = 1
<parameter name="blocks" condition="int">400</parameter>
<parameter name="blocks_between_recompute" condition="int">0</parameter>
<parameter name="check_properties" condition="int">100</parameter>
<parameter name="checkproperties" condition="int">100</parameter>
<parameter name="current" condition="int">0</parameter>
<parameter name="dmcwalkersperthread" condition="real">5.0000e+02</parameter>
<parameter name="maxcpusecs" condition="real">3.6000e+05</parameter>
<parameter name="record_configs" condition="int">0</parameter>
<parameter name="record_walkers" condition="int">1</parameter>
<parameter name="recordconfigs" condition="int">0</parameter>
<parameter name="recordwalkers" condition="int">1</parameter>
<parameter name="rewind" condition="int">0</parameter>
<parameter name="samples" condition="real">5.1200e+05</parameter>
<parameter name="samplesperthread" condition="real">5.0000e+02</parameter>
<parameter name="steps" condition="int">2</parameter>
<parameter name="stepsbetweensamples" condition="int">1</parameter>
<parameter name="store_configs" condition="int">0</parameter>
<parameter name="storeconfigs" condition="int">0</parameter>
<parameter name="sub_steps" condition="int">5</parameter>
<parameter name="substeps" condition="int">5</parameter>
<parameter name="tau" condition="au">1.5000e-01</parameter>
<parameter name="time_step" condition="au">1.5000e-01</parameter>
<parameter name="timestep" condition="au">1.5000e-01</parameter>
<parameter name="use_drift" condition="string">no</parameter>
<parameter name="usedrift" condition="string">no</parameter>
<parameter name="walkers" condition="int">1</parameter>
<parameter name="warmup_steps" condition="int">0</parameter>
<parameter name="warmupsteps" condition="int">0</parameter>
  DumpConfig==false Nothing (configurations, state) will be saved.
  Walker Samples are dumped every 1 steps.
</vmc>
  Set drift_modifier UNR parameter a = 1.0000e+00
  EstimatorManagerBase::add replace LocalEnergy estimator.
  Set drift_modifier UNR parameter a = 1.0000e+00
  EstimatorManagerBase::add replace LocalEnergy estimator.
<optimization-report>
<vmc stage="main" blocks="400">
  Cannot make clones again. Use existing 1 clones
  Initial partition of walkers 0 1 
  Using Particle by Particle moves
  Walker moves without drift
  Total Sample Size   =512000
  Walker distribution on root = 0 1 
  Using Locality Approximation
===== Memory Usage after the buffer registration =====
Available memory on node 0, free + buffers : 52566 MB
Memory footprint by rank 0 on node 0       : 622 MB
==================================================
====================================================
  SimpleFixedNodeBranch::finalize after a VMC block
    QMC counter        = 20
    time step          = 0.15
    reference energy   = -18.4524
    reference variance = 0.133527
====================================================
  Execution time = 5.0458e+00
</vmc>
<opt stage="setup">
  <log>
   Reading configurations from h5FileRoot Kr.log.s020
  QMCCostFunction is created with 1 threads.
  Using Nonlocal PP in Opt: NonLocalECP
   Number of samples loaded to each thread : 500 
  VMC Eavg = -1.8455e+01
  VMC Evar = 1.2544e-01
  Total weights = 5.1200e+05
  Execution time = 1.4503e+00
  </log>
</opt>
<opt stage="main" walkers="512000">
  <log>

*****************************************
Building overlap and Hamiltonian matrices
*****************************************

Among totally 30 optimized parameters, largest LM parameter change : 1.6344e-02 at parameter 28

******************************************************************************
Init Cost =  -1.7526e+01    New Cost =  -1.7526e+01  Delta Cost =  -2.6936e-05
******************************************************************************

The new set of parameters is valid. Updating the trial wave function!

*****************************************************************************
Applying the update for shift_i =   1.0000e-02     and shift_s =   3.9062e-03
*****************************************************************************
  Execution time = 7.9487e+00
  </log>
  <optVariables href="Kr.log.s020.opt.xml">
 uu_0                 3.885587e-01 1 1  ON 0
 uu_1                 1.922716e-01 1 1  ON 1
 uu_2                 6.705134e-02 1 1  ON 2
 uu_3                -1.857200e-02 1 1  ON 3
 uu_4                -7.885791e-02 1 1  ON 4
 uu_5                -1.183891e-01 1 1  ON 5
 uu_6                -1.406120e-01 1 1  ON 6
 uu_7                -1.434551e-01 1 1  ON 7
 uu_8                -1.202764e-01 1 1  ON 8
 uu_9                -5.520345e-02 1 1  ON 9
 ud_0                 6.192759e-01 1 1  ON 10
 ud_1                 2.862310e-01 1 1  ON 11
 ud_2                 1.081797e-01 1 1  ON 12
 ud_3                 6.361247e-03 1 1  ON 13
 ud_4                -6.947200e-02 1 1  ON 14
 ud_5                -1.283716e-01 1 1  ON 15
 ud_6                -1.710419e-01 1 1  ON 16
 ud_7                -1.939668e-01 1 1  ON 17
 ud_8                -1.881645e-01 1 1  ON 18
 ud_9                -1.404252e-01 1 1  ON 19
eKr_0                -1.142932e+00 1 1  ON 20
eKr_1                -9.667268e-01 1 1  ON 21
eKr_2                -5.357639e-01 1 1  ON 22
eKr_3                -6.762281e-02 1 1  ON 23
eKr_4                 3.123923e-01 1 1  ON 24
eKr_5                 6.001503e-01 1 1  ON 25
eKr_6                 7.567035e-01 1 1  ON 26
eKr_7                 7.353867e-01 1 1  ON 27
eKr_8                 3.148961e-01 1 1  ON 28
eKr_9                 8.076762e-03 1 1  ON 29
  </optVariables>
   Restore the number of walkers to 1, removing 0 walkers.
</opt>
</optimization-report>
  QMC Execution time = 7.957 secs
  Total Execution time = 127.9 secs

=========================================================
  A new xml input file : Kr.log.s020.cont.xml
TACC:  Shutdown complete. Exiting. 
