TACC:  Starting up job 2692927 
TACC:  Starting parallel tasks... 
  Input file(s): O.log.qmc.in-wfj.xml 

=====================================================
                    QMCPACK 3.5.0 

       (c) Copyright 2003-  QMCPACK developers

                    Please cite:
 J. Kim et al. J. Phys. Cond. Mat. 30 195901 (2018)
      https://doi.org/10.1088/1361-648X/aab9c3

  Git branch: develop
  Last git commit: ca320f40410f5ef17c38db08d5c54848ef64bfe1
  Last git commit date: Tue Dec 18 15:37:17 2018 +0800
  Last git commit subject: Merge pull request #764 from Paul-St-Young/dat-h5
=====================================================
  Global options 

  MPI Nodes             = 1024
  MPI Nodes per group   = 1024
  MPI Group ID          = 0
  OMP 1st level threads = 1
  OMP nested threading disabled or only 1 thread on the 2nd level

  Precision used in this calculation, see definitions in the manual:
  Base precision      = double
  Full precision      = double

  Structure-of-arrays (SoA) optimization enabled

  Input XML = O.log.qmc.in-wfj.xml

  Project = O.log
  date    = 2018-12-26 16:56:07 CST
  host    = c421-083.stampede2.tacc.utexas.edu

 Random Number
 -------------
  Offset for the random number seeds based on time: 775

  Range of prime numbers to use as seeds over processors and threads = 5903-15413


 Particle Set 
 ------------
  Name: ion0
  All the species have the same mass 1
  Particle set size: 1

 Particle Set 
 ------------
  Name: e
  All the species have the same mass 1
  Particle set size: 6

 Wavefunction setup: 
 ------------------- 
  Name: psi0
  LCAO: SoaAtomicBasisSet<MultiQuintic,0>

  Distance table for similar particles (A-A):
    source/target: e
    Using structure-of-arrays (SoA) data layout
    Distance computations use open boundary conditions in 3D.


  Distance table for dissimilar particles (A-B):
    source: ion0  target: e
    Using structure-of-arrays (SoA) data layout
    Distance computations use open boundary conditions in 3D.

Reading BasisSet from HDF5 file:O.log.orbs.h5
<input node="atomicBasisSet" name="Gaussian" expandYlm="gaussian" angular="cartesian" elementType="O" normalized="no" type="Numerical" expM="0" />
  AO BasisSet for O
   Angular momentum expanded in cartesian functions x^lx y^ly z^lz according to Gamess
   Grid is created by the input paremters in h5
    Using log grid ri = 1e-06 rf = 100 npts = 1001
   R(n,l,m,s) 0 0 0 0
   R(n,l,m,s) 1 0 0 0
   R(n,l,m,s) 2 0 0 0
   R(n,l,m,s) 3 1 0 0
   R(n,l,m,s) 4 1 0 0
   R(n,l,m,s) 5 1 0 0
   R(n,l,m,s) 6 2 0 0
   R(n,l,m,s) 7 2 0 0
   R(n,l,m,s) 8 3 0 0
Expanding Ylm (angular function) according to Gamess using cartesian gaussians
Adding 1 cartesian gaussian orbitals for l= 0
Adding 1 cartesian gaussian orbitals for l= 0
Adding 1 cartesian gaussian orbitals for l= 0
Adding 3 cartesian gaussian orbitals for l= 1
Adding 3 cartesian gaussian orbitals for l= 1
Adding 3 cartesian gaussian orbitals for l= 1
Adding 6 cartesian gaussian orbitals for l= 2
Adding 6 cartesian gaussian orbitals for l= 2
Adding 10 cartesian gaussian orbitals for l= 3
   Maximum Angular Momentum  = 3
   Number of Radial functors = 9
   Basis size                = 34

  Created SPOSet builder named 'LCAOBSet' of type molecularorbital
Reuse SPOSetBuilder "LCAOBSet" type MolecularOrbital
  Building SPOSet '' with '' basis set.
Reuse SPOSetBuilder "LCAOBSet" type MolecularOrbital
  Building SPOSet '' with '' basis set.
  Creating a determinant updet group=0 sposet=updet
  Reusing a SPO set updet
Using DiracDeterminant 
Using rank-1 Sherman-Morrison Fahy update

  Creating a determinant downdet group=1 sposet=downdet
  Reusing a SPO set downdet
Using DiracDeterminant 
Using rank-1 Sherman-Morrison Fahy update

  FermionWF = SlaterDet
  RadialJastrowBuilder adds a functor with cusp = -0.25
 size = 10 parameters 
 cusp = -0.25
 rcut = 6.5
Parameter     Name      Value
uu_0 0 1 1  ON 0
uu_1 0 1 1  ON 1
uu_2 0 1 1  ON 2
uu_3 0 1 1  ON 3
uu_4 0 1 1  ON 4
uu_5 0 1 1  ON 5
uu_6 0 1 1  ON 6
uu_7 0 1 1  ON 7
uu_8 0 1 1  ON 8
uu_9 0 1 1  ON 9
  RadialJastrowBuilder adds a functor with cusp = -0.5
 size = 10 parameters 
 cusp = -0.5
 rcut = 6.5
Parameter     Name      Value
ud_0 0 1 1  ON 0
ud_1 0 1 1  ON 1
ud_2 0 1 1  ON 2
ud_3 0 1 1  ON 3
ud_4 0 1 1  ON 4
ud_5 0 1 1  ON 5
ud_6 0 1 1  ON 6
ud_7 0 1 1  ON 7
ud_8 0 1 1  ON 8
ud_9 0 1 1  ON 9
 size = 10 parameters 
 cusp = 0
 rcut = 6.5
Parameter     Name      Value
eO_0 0 1 1  ON 0
eO_1 0 1 1  ON 1
eO_2 0 1 1  ON 2
eO_3 0 1 1  ON 3
eO_4 0 1 1  ON 4
eO_5 0 1 1  ON 5
eO_6 0 1 1  ON 6
eO_7 0 1 1  ON 7
eO_8 0 1 1  ON 8
eO_9 0 1 1  ON 9
Expected 26 parameters, but found 0 in PolynomialFunctor3D.
Expected 26 parameters, but found 0 in PolynomialFunctor3D.
  QMCHamiltonian::addOperator Kinetic to H, physical Hamiltonian 
  QMCHamiltonian::addOperator ElecElec to H, physical Hamiltonian 
QMCHamiltonian::addOperatorType added type coulomb named ElecElec
  CoulombAA for ion0 is not created.  Number of particles == 1 and nonPeriodic

  ECPotential builder for pseudopotential 

  Adding pseudopotential for O
   Linear grid  ri=0 rf=10 npts = 10001
    ECPComponentBuilder::buildSemiLocalAndLocal 
    Assuming Hartree unit
   Number of angular momentum channels 2
   Maximum angular momentum channel 1
   Creating a Linear Grid Rmax=1.075
  Using global grid with delta = 0.001
   Making L=1 a local potential with a radial cutoff of 9.999
    Non-local pseudopotential parameters
    Maximum angular mementum = 0
    Number of non-local channels = 1
       l(0)=0
    Cutoff radius = 1.075
    Spherical grids and weights: 
                        1                 0                 0       0.08333333333
                       -1   1.224646799e-16                 0       0.08333333333
             0.4472135955       0.894427191                 0       0.08333333333
            -0.4472135955      0.7236067977      0.5257311121       0.08333333333
             0.4472135955      0.2763932023      0.8506508084       0.08333333333
            -0.4472135955     -0.2763932023      0.8506508084       0.08333333333
             0.4472135955     -0.7236067977      0.5257311121       0.08333333333
            -0.4472135955      -0.894427191   1.095357397e-16       0.08333333333
             0.4472135955     -0.7236067977     -0.5257311121       0.08333333333
            -0.4472135955     -0.2763932023     -0.8506508084       0.08333333333
             0.4472135955      0.2763932023     -0.8506508084       0.08333333333
            -0.4472135955      0.7236067977     -0.5257311121       0.08333333333
    Maximum cutoff radius 1.075
  QMCHamiltonian::addOperator LocalECP to H, physical Hamiltonian 

  Using NonLocalECP potential 
    Maximum grid on a sphere for NonLocalECPotential: 12
  QMCHamiltonian::addOperator NonLocalECP to H, physical Hamiltonian 
QMCHamiltonian::addOperatorType added type pseudo named PseudoPot

  QMCHamiltonian::add2WalkerProperty added
    4 to P::PropertyList 
    0 to P::Collectables 
    starting Index of the observables in P::PropertyList = 9
ParticleSetPool::randomize 
<init source="ion0" target="e">
</init>
  Initialization Execution time = 0.7712 secs
=========================================================
 Summary of QMC systems 
=========================================================
ParticleSetPool has: 

  ParticleSet e : 0 4 6 

    6

    u  8.5863660141e-01 -9.5533636013e-02 -2.1373382602e+00
    u  7.7640008480e-02  3.7665398406e-01 -7.7864593781e-02
    u -1.2490025099e+00  4.0199622362e-01 -3.1489839420e+00
    u  1.9509777027e+00 -9.0346775910e-02  7.9220892801e-01
    d  3.0944409366e+00  1.1894094575e-01  3.6296248672e+00
    d  6.3500042004e-01 -1.9680064255e+00 -1.5526355387e+00

  ParticleSet ion0 : 0 1 

    1

    O  0.0000000000e+00  0.0000000000e+00  0.0000000000e+00

  Hamiltonian h0
  Kinetic         Kinetic energy
  ElecElec        CoulombAA source/target e

  LocalECP        LocalECPotential: ion0
  NonLocalECP     NonLocalECPotential: ion0

=========================================================
  Start VMC
  File Root O.log.s000 append = no 
=========================================================
  Adding 1 walkers to 0 existing sets
  Total number of walkers: 1.0240000000e+03
  Total weight: 1.0240000000e+03
  Resetting Properties of the walkers 1 x 13

<vmc function="put">
  qmc_counter=0  my_counter=0
  time step      = 1.5000000000e-01
  blocks         = 200
  steps          = 1
  substeps       = 5
  current        = 0
  target samples = 1.0240000000e+03
  walkers/mpi    = 1

  stepsbetweensamples = 200
<parameter name="blocks" condition="int">200</parameter>
<parameter name="blocks_between_recompute" condition="int">0</parameter>
<parameter name="check_properties" condition="int">100</parameter>
<parameter name="checkproperties" condition="int">100</parameter>
<parameter name="current" condition="int">0</parameter>
<parameter name="dmcwalkersperthread" condition="real">1.0000000000e+00</parameter>
<parameter name="maxcpusecs" condition="real">3.6000000000e+05</parameter>
<parameter name="record_configs" condition="int">0</parameter>
<parameter name="record_walkers" condition="int">200</parameter>
<parameter name="recordconfigs" condition="int">0</parameter>
<parameter name="recordwalkers" condition="int">200</parameter>
<parameter name="rewind" condition="int">0</parameter>
<parameter name="samples" condition="real">1.0240000000e+03</parameter>
<parameter name="samplesperthread" condition="real">1.0000000000e+00</parameter>
<parameter name="steps" condition="int">1</parameter>
<parameter name="stepsbetweensamples" condition="int">200</parameter>
<parameter name="store_configs" condition="int">0</parameter>
<parameter name="storeconfigs" condition="int">0</parameter>
<parameter name="sub_steps" condition="int">5</parameter>
<parameter name="substeps" condition="int">5</parameter>
<parameter name="tau" condition="au">1.5000000000e-01</parameter>
<parameter name="time_step" condition="au">1.5000000000e-01</parameter>
<parameter name="timestep" condition="au">1.5000000000e-01</parameter>
<parameter name="use_drift" condition="string">no</parameter>
<parameter name="usedrift" condition="string">no</parameter>
<parameter name="walkers" condition="int">1</parameter>
<parameter name="warmup_steps" condition="int">100</parameter>
<parameter name="warmupsteps" condition="int">100</parameter>
  DumpConfig==false Nothing (configurations, state) will be saved.
  Walker Samples are dumped every 200 steps.
</vmc>
  Initial partition of walkers 0 1 

  Using Particle by Particle moves
  Walker moves without drift
  Total Sample Size   =1024
  Walker distribution on root = 0 1 
  Using Locality Approximation
===== Memory Usage after the buffer registration =====
Available memory on node 0, free + buffers : 84597 MB
Memory footprint by rank 0 on node 0       : 72 MB
==================================================
  Anonymous Buffer size per walker : 2336 Bytes.
MEMORY increase 0 MB VMC::resetRun
====================================================
  SimpleFixedNodeBranch::finalize after a VMC block
    QMC counter        = 0
    time step          = 0.15
    reference energy   = -15.6403
    reference variance = 1.45781
====================================================
  QMC Execution time = 7.6094e-01 secs 
Loop execution max-interations = 5

=========================================================
  Start QMCFixedSampleLinearOptimize
  File Root O.log.s001 append = no 
=========================================================
  Skip QMCDriver::putQMCInfo 
  Resetting Properties of the walkers 1 x 13

=========================================================
  Start VMC
  File Root O.log.s001 append = no 
=========================================================
  Using the current 1 walkers.
  Total number of walkers: 1.0240e+03
  Total weight: 1.0240e+03
  Resetting Properties of the walkers 1 x 13

<vmc function="put">
  qmc_counter=0  my_counter=0
  time step      = 1.5000e-01
  blocks         = 200
  steps          = 2
  substeps       = 5
  current        = 0
  target samples = 2.5600e+05
  walkers/mpi    = 1

  stepsbetweensamples = 1
<parameter name="blocks" condition="int">200</parameter>
<parameter name="blocks_between_recompute" condition="int">0</parameter>
<parameter name="check_properties" condition="int">100</parameter>
<parameter name="checkproperties" condition="int">100</parameter>
<parameter name="current" condition="int">0</parameter>
<parameter name="dmcwalkersperthread" condition="real">2.5000e+02</parameter>
<parameter name="maxcpusecs" condition="real">3.6000e+05</parameter>
<parameter name="record_configs" condition="int">0</parameter>
<parameter name="record_walkers" condition="int">1</parameter>
<parameter name="recordconfigs" condition="int">0</parameter>
<parameter name="recordwalkers" condition="int">1</parameter>
<parameter name="rewind" condition="int">0</parameter>
<parameter name="samples" condition="real">2.5600e+05</parameter>
<parameter name="samplesperthread" condition="real">2.5000e+02</parameter>
<parameter name="steps" condition="int">2</parameter>
<parameter name="stepsbetweensamples" condition="int">1</parameter>
<parameter name="store_configs" condition="int">0</parameter>
<parameter name="storeconfigs" condition="int">0</parameter>
<parameter name="sub_steps" condition="int">5</parameter>
<parameter name="substeps" condition="int">5</parameter>
<parameter name="tau" condition="au">1.5000e-01</parameter>
<parameter name="time_step" condition="au">1.5000e-01</parameter>
<parameter name="timestep" condition="au">1.5000e-01</parameter>
<parameter name="use_drift" condition="string">no</parameter>
<parameter name="usedrift" condition="string">no</parameter>
<parameter name="walkers" condition="int">1</parameter>
<parameter name="warmup_steps" condition="int">0</parameter>
<parameter name="warmupsteps" condition="int">0</parameter>
  DumpConfig==false Nothing (configurations, state) will be saved.
  Walker Samples are dumped every 1 steps.
</vmc>
    Restarting, cummulative properties:
      energy     = -1.5640e+01
      variance   = 0.0000e+00
      r2accepted = 1.0000e-10
      r2proposed = 1.0000e-10
 Using QMCCostFunction::QMCCostFunction
  EstimatorManagerBase::add replace LocalEnergy estimator.
<optimization-report>
<vmc stage="main" blocks="200">
  Cannot make clones again. Use existing 1 clones
  Initial partition of walkers 0 1 

  Using Particle by Particle moves
  Walker moves without drift
  Total Sample Size   =256000
  Walker distribution on root = 0 1 
  Using Locality Approximation
===== Memory Usage after the buffer registration =====
Available memory on node 0, free + buffers : 84558 MB
Memory footprint by rank 0 on node 0       : 73 MB
==================================================
  Anonymous Buffer size per walker : 2336 Bytes.
MEMORY increase 0 MB VMC::resetRun
====================================================
  SimpleFixedNodeBranch::finalize after a VMC block
    QMC counter        = 1
    time step          = 0.15
    reference energy   = -15.7095
    reference variance = 1.42117
====================================================
  Execution time = 1.0796e+00
</vmc>
<opt stage="setup">
  <log>
   Reading configurations from h5FileRoot O.log.s001
  QMCCostFunction is created with 1 threads.
  Using Nonlocal PP in Opt: NonLocalECP
   Number of samples loaded to each thread : 250 
  VMC Eavg = -1.5706e+01
  VMC Evar = 1.3254e+00
  Total weights = 2.5600e+05
  Execution time = 1.0865e-01
  </log>
</opt>
<opt stage="main" walkers="256000">
  <log>

*****************************************
Building overlap and Hamiltonian matrices
*****************************************

Among totally 30 optimized parameters, largest LM parameter change : 3.4661e-01 at parameter 20

******************************************************************************
Init Cost =   1.3254e+00    New Cost =   2.9692e-01  Delta Cost =  -1.0285e+00
******************************************************************************

The new set of parameters is valid. Updating the trial wave function!

*****************************************************************************
Applying the update for shift_i =   1.0000e-02     and shift_s =   2.5000e-01
*****************************************************************************
  Execution time = 1.4592e+00
  </log>
  <optVariables href="O.log.s001.opt.xml">
uu_0 1.7992e-01 1 1  ON 0
uu_1 8.2730e-02 1 1  ON 1
uu_2 1.1609e-02 1 1  ON 2
uu_3 -3.1035e-02 1 1  ON 3
uu_4 -5.5544e-02 1 1  ON 4
uu_5 -6.4093e-02 1 1  ON 5
uu_6 -6.0466e-02 1 1  ON 6
uu_7 -4.5987e-02 1 1  ON 7
uu_8 -2.5756e-02 1 1  ON 8
uu_9 -6.7826e-03 1 1  ON 9
ud_0 2.9449e-01 1 1  ON 10
ud_1 1.1901e-01 1 1  ON 11
ud_2 1.5973e-02 1 1  ON 12
ud_3 -4.0348e-02 1 1  ON 13
ud_4 -7.1275e-02 1 1  ON 14
ud_5 -8.3100e-02 1 1  ON 15
ud_6 -8.1272e-02 1 1  ON 16
ud_7 -6.7087e-02 1 1  ON 17
ud_8 -4.5273e-02 1 1  ON 18
ud_9 -2.3081e-02 1 1  ON 19
eO_0 -3.4661e-01 1 1  ON 20
eO_1 -2.4827e-01 1 1  ON 21
eO_2 -6.7294e-02 1 1  ON 22
eO_3 7.7450e-02 1 1  ON 23
eO_4 1.5835e-01 1 1  ON 24
eO_5 1.7781e-01 1 1  ON 25
eO_6 1.4662e-01 1 1  ON 26
eO_7 8.6169e-02 1 1  ON 27
eO_8 2.9555e-02 1 1  ON 28
eO_9 -3.2959e-03 1 1  ON 29
  </optVariables>
   Restore the number of walkers to 1, removing 0 walkers.
</opt>
</optimization-report>
  QMC Execution time = 1.4702e+00 secs 
  Reusing QMCFixedSampleLinearOptimize
 Using QMCCostFunction::QMCCostFunction

=========================================================
  Start QMCFixedSampleLinearOptimize
  File Root O.log.s002 append = no 
=========================================================
  Skip QMCDriver::putQMCInfo 
  Resetting Properties of the walkers 1 x 13

=========================================================
  Start VMC
  File Root O.log.s002 append = no 
=========================================================
Using existing walkers 
  Resetting Properties of the walkers 1 x 13

<vmc function="put">
  qmc_counter=1  my_counter=1
  time step      = 1.5000e-01
  blocks         = 200
  steps          = 2
  substeps       = 5
  current        = 0
  target samples = 2.5600e+05
  walkers/mpi    = 1

  stepsbetweensamples = 1
<parameter name="blocks" condition="int">200</parameter>
<parameter name="blocks_between_recompute" condition="int">0</parameter>
<parameter name="check_properties" condition="int">100</parameter>
<parameter name="checkproperties" condition="int">100</parameter>
<parameter name="current" condition="int">0</parameter>
<parameter name="dmcwalkersperthread" condition="real">2.5000e+02</parameter>
<parameter name="maxcpusecs" condition="real">3.6000e+05</parameter>
<parameter name="record_configs" condition="int">0</parameter>
<parameter name="record_walkers" condition="int">1</parameter>
<parameter name="recordconfigs" condition="int">0</parameter>
<parameter name="recordwalkers" condition="int">1</parameter>
<parameter name="rewind" condition="int">0</parameter>
<parameter name="samples" condition="real">2.5600e+05</parameter>
<parameter name="samplesperthread" condition="real">2.5000e+02</parameter>
<parameter name="steps" condition="int">2</parameter>
<parameter name="stepsbetweensamples" condition="int">1</parameter>
<parameter name="store_configs" condition="int">0</parameter>
<parameter name="storeconfigs" condition="int">0</parameter>
<parameter name="sub_steps" condition="int">5</parameter>
<parameter name="substeps" condition="int">5</parameter>
<parameter name="tau" condition="au">1.5000e-01</parameter>
<parameter name="time_step" condition="au">1.5000e-01</parameter>
<parameter name="timestep" condition="au">1.5000e-01</parameter>
<parameter name="use_drift" condition="string">no</parameter>
<parameter name="usedrift" condition="string">no</parameter>
<parameter name="walkers" condition="int">1</parameter>
<parameter name="warmup_steps" condition="int">0</parameter>
<parameter name="warmupsteps" condition="int">0</parameter>
  DumpConfig==false Nothing (configurations, state) will be saved.
  Walker Samples are dumped every 1 steps.
</vmc>
  EstimatorManagerBase::add replace LocalEnergy estimator.
  EstimatorManagerBase::add replace LocalEnergy estimator.
<optimization-report>
<vmc stage="main" blocks="200">
  Cannot make clones again. Use existing 1 clones
  Initial partition of walkers 0 1 
  Using Particle by Particle moves
  Walker moves without drift
  Total Sample Size   =256000
  Walker distribution on root = 0 1 
  Using Locality Approximation
===== Memory Usage after the buffer registration =====
Available memory on node 0, free + buffers : 84555 MB
Memory footprint by rank 0 on node 0       : 75 MB
==================================================
====================================================
  SimpleFixedNodeBranch::finalize after a VMC block
    QMC counter        = 2
    time step          = 0.15
    reference energy   = -15.8583
    reference variance = 0.21811
====================================================
  Execution time = 1.6951e+00
</vmc>
<opt stage="setup">
  <log>
   Reading configurations from h5FileRoot O.log.s002
  QMCCostFunction is created with 1 threads.
  Using Nonlocal PP in Opt: NonLocalECP
   Number of samples loaded to each thread : 250 
  VMC Eavg = -1.5843e+01
  VMC Evar = 2.2562e-01
  Total weights = 2.5600e+05
  Execution time = 2.0185e-01
  </log>
</opt>
<opt stage="main" walkers="256000">
  <log>

*****************************************
Building overlap and Hamiltonian matrices
*****************************************

Among totally 30 optimized parameters, largest LM parameter change : 1.5260e-01 at parameter 20

******************************************************************************
Init Cost =   2.2562e-01    New Cost =   2.5639e-01  Delta Cost =   3.0762e-02
******************************************************************************

The new set of parameters is valid. Updating the trial wave function!

*****************************************************************************
Applying the update for shift_i =   1.0000e-02     and shift_s =   6.2500e-02
*****************************************************************************
  Execution time = 2.2580e+00
  </log>
  <optVariables href="O.log.s002.opt.xml">
uu_0 2.2418e-01 1 1  ON 0
uu_1 1.0696e-01 1 1  ON 1
uu_2 1.8341e-02 1 1  ON 2
uu_3 -4.0475e-02 1 1  ON 3
uu_4 -7.5986e-02 1 1  ON 4
uu_5 -9.1349e-02 1 1  ON 5
uu_6 -8.8988e-02 1 1  ON 6
uu_7 -7.0002e-02 1 1  ON 7
uu_8 -4.0473e-02 1 1  ON 8
uu_9 -9.1064e-03 1 1  ON 9
ud_0 3.8373e-01 1 1  ON 10
ud_1 1.7160e-01 1 1  ON 11
ud_2 4.3776e-02 1 1  ON 12
ud_3 -3.6561e-02 1 1  ON 13
ud_4 -8.6206e-02 1 1  ON 14
ud_5 -1.1293e-01 1 1  ON 15
ud_6 -1.1974e-01 1 1  ON 16
ud_7 -1.0781e-01 1 1  ON 17
ud_8 -8.0759e-02 1 1  ON 18
ud_9 -4.5009e-02 1 1  ON 19
eO_0 -4.9921e-01 1 1  ON 20
eO_1 -3.7030e-01 1 1  ON 21
eO_2 -1.3032e-01 1 1  ON 22
eO_3 7.7385e-02 1 1  ON 23
eO_4 2.0780e-01 1 1  ON 24
eO_5 2.5915e-01 1 1  ON 25
eO_6 2.3839e-01 1 1  ON 26
eO_7 1.5812e-01 1 1  ON 27
eO_8 6.6363e-02 1 1  ON 28
eO_9 3.4959e-03 1 1  ON 29
  </optVariables>
   Restore the number of walkers to 1, removing 0 walkers.
</opt>
</optimization-report>
  QMC Execution time = 2.2695e+00 secs 
  Reusing QMCFixedSampleLinearOptimize
 Using QMCCostFunction::QMCCostFunction

=========================================================
  Start QMCFixedSampleLinearOptimize
  File Root O.log.s003 append = no 
=========================================================
  Skip QMCDriver::putQMCInfo 
  Resetting Properties of the walkers 1 x 13

=========================================================
  Start VMC
  File Root O.log.s003 append = no 
=========================================================
Using existing walkers 
  Resetting Properties of the walkers 1 x 13

<vmc function="put">
  qmc_counter=2  my_counter=2
  time step      = 1.5000e-01
  blocks         = 200
  steps          = 2
  substeps       = 5
  current        = 0
  target samples = 2.5600e+05
  walkers/mpi    = 1

  stepsbetweensamples = 1
<parameter name="blocks" condition="int">200</parameter>
<parameter name="blocks_between_recompute" condition="int">0</parameter>
<parameter name="check_properties" condition="int">100</parameter>
<parameter name="checkproperties" condition="int">100</parameter>
<parameter name="current" condition="int">0</parameter>
<parameter name="dmcwalkersperthread" condition="real">2.5000e+02</parameter>
<parameter name="maxcpusecs" condition="real">3.6000e+05</parameter>
<parameter name="record_configs" condition="int">0</parameter>
<parameter name="record_walkers" condition="int">1</parameter>
<parameter name="recordconfigs" condition="int">0</parameter>
<parameter name="recordwalkers" condition="int">1</parameter>
<parameter name="rewind" condition="int">0</parameter>
<parameter name="samples" condition="real">2.5600e+05</parameter>
<parameter name="samplesperthread" condition="real">2.5000e+02</parameter>
<parameter name="steps" condition="int">2</parameter>
<parameter name="stepsbetweensamples" condition="int">1</parameter>
<parameter name="store_configs" condition="int">0</parameter>
<parameter name="storeconfigs" condition="int">0</parameter>
<parameter name="sub_steps" condition="int">5</parameter>
<parameter name="substeps" condition="int">5</parameter>
<parameter name="tau" condition="au">1.5000e-01</parameter>
<parameter name="time_step" condition="au">1.5000e-01</parameter>
<parameter name="timestep" condition="au">1.5000e-01</parameter>
<parameter name="use_drift" condition="string">no</parameter>
<parameter name="usedrift" condition="string">no</parameter>
<parameter name="walkers" condition="int">1</parameter>
<parameter name="warmup_steps" condition="int">0</parameter>
<parameter name="warmupsteps" condition="int">0</parameter>
  DumpConfig==false Nothing (configurations, state) will be saved.
  Walker Samples are dumped every 1 steps.
</vmc>
  EstimatorManagerBase::add replace LocalEnergy estimator.
  EstimatorManagerBase::add replace LocalEnergy estimator.
<optimization-report>
<vmc stage="main" blocks="200">
  Cannot make clones again. Use existing 1 clones
  Initial partition of walkers 0 1 
  Using Particle by Particle moves
  Walker moves without drift
  Total Sample Size   =256000
  Walker distribution on root = 0 1 
  Using Locality Approximation
===== Memory Usage after the buffer registration =====
Available memory on node 0, free + buffers : 84543 MB
Memory footprint by rank 0 on node 0       : 76 MB
==================================================
====================================================
  SimpleFixedNodeBranch::finalize after a VMC block
    QMC counter        = 3
    time step          = 0.15
    reference energy   = -15.852
    reference variance = 0.214543
====================================================
  Execution time = 1.8536e+00
</vmc>
<opt stage="setup">
  <log>
   Reading configurations from h5FileRoot O.log.s003
  QMCCostFunction is created with 1 threads.
  Using Nonlocal PP in Opt: NonLocalECP
   Number of samples loaded to each thread : 250 
  VMC Eavg = -1.5850e+01
  VMC Evar = 2.3954e-01
  Total weights = 2.5600e+05
  Execution time = 3.3283e-01
  </log>
</opt>
<opt stage="main" walkers="256000">
  <log>

*****************************************
Building overlap and Hamiltonian matrices
*****************************************

Among totally 30 optimized parameters, largest LM parameter change : 5.5762e-02 at parameter 27

******************************************************************************
Init Cost =   2.3954e-01    New Cost =   2.4999e-01  Delta Cost =   1.0454e-02
******************************************************************************

The new set of parameters is valid. Updating the trial wave function!

*****************************************************************************
Applying the update for shift_i =   1.0000e-02     and shift_s =   1.5625e-02
*****************************************************************************
  Execution time = 2.5761e+00
  </log>
  <optVariables href="O.log.s003.opt.xml">
uu_0 2.3305e-01 1 1  ON 0
uu_1 1.1168e-01 1 1  ON 1
uu_2 2.1785e-02 1 1  ON 2
uu_3 -4.0414e-02 1 1  ON 3
uu_4 -7.8971e-02 1 1  ON 4
uu_5 -9.8132e-02 1 1  ON 5
uu_6 -9.9597e-02 1 1  ON 6
uu_7 -8.3784e-02 1 1  ON 7
uu_8 -5.2592e-02 1 1  ON 8
uu_9 -1.2225e-02 1 1  ON 9
ud_0 4.0869e-01 1 1  ON 10
ud_1 1.9209e-01 1 1  ON 11
ud_2 6.1204e-02 1 1  ON 12
ud_3 -2.3273e-02 1 1  ON 13
ud_4 -7.8072e-02 1 1  ON 14
ud_5 -1.1064e-01 1 1  ON 15
ud_6 -1.2399e-01 1 1  ON 16
ud_7 -1.1945e-01 1 1  ON 17
ud_8 -9.5887e-02 1 1  ON 18
ud_9 -6.2142e-02 1 1  ON 19
eO_0 -5.5241e-01 1 1  ON 20
eO_1 -4.1737e-01 1 1  ON 21
eO_2 -1.6671e-01 1 1  ON 22
eO_3 5.6164e-02 1 1  ON 23
eO_4 2.0542e-01 1 1  ON 24
eO_5 2.8039e-01 1 1  ON 25
eO_6 2.7819e-01 1 1  ON 26
eO_7 2.1388e-01 1 1  ON 27
eO_8 1.0654e-01 1 1  ON 28
eO_9 1.3020e-02 1 1  ON 29
  </optVariables>
   Restore the number of walkers to 1, removing 0 walkers.
</opt>
</optimization-report>
  QMC Execution time = 2.5870e+00 secs 
  Reusing QMCFixedSampleLinearOptimize
 Using QMCCostFunction::QMCCostFunction

=========================================================
  Start QMCFixedSampleLinearOptimize
  File Root O.log.s004 append = no 
=========================================================
  Skip QMCDriver::putQMCInfo 
  Resetting Properties of the walkers 1 x 13

=========================================================
  Start VMC
  File Root O.log.s004 append = no 
=========================================================
Using existing walkers 
  Resetting Properties of the walkers 1 x 13

<vmc function="put">
  qmc_counter=3  my_counter=3
  time step      = 1.5000e-01
  blocks         = 200
  steps          = 2
  substeps       = 5
  current        = 0
  target samples = 2.5600e+05
  walkers/mpi    = 1

  stepsbetweensamples = 1
<parameter name="blocks" condition="int">200</parameter>
<parameter name="blocks_between_recompute" condition="int">0</parameter>
<parameter name="check_properties" condition="int">100</parameter>
<parameter name="checkproperties" condition="int">100</parameter>
<parameter name="current" condition="int">0</parameter>
<parameter name="dmcwalkersperthread" condition="real">2.5000e+02</parameter>
<parameter name="maxcpusecs" condition="real">3.6000e+05</parameter>
<parameter name="record_configs" condition="int">0</parameter>
<parameter name="record_walkers" condition="int">1</parameter>
<parameter name="recordconfigs" condition="int">0</parameter>
<parameter name="recordwalkers" condition="int">1</parameter>
<parameter name="rewind" condition="int">0</parameter>
<parameter name="samples" condition="real">2.5600e+05</parameter>
<parameter name="samplesperthread" condition="real">2.5000e+02</parameter>
<parameter name="steps" condition="int">2</parameter>
<parameter name="stepsbetweensamples" condition="int">1</parameter>
<parameter name="store_configs" condition="int">0</parameter>
<parameter name="storeconfigs" condition="int">0</parameter>
<parameter name="sub_steps" condition="int">5</parameter>
<parameter name="substeps" condition="int">5</parameter>
<parameter name="tau" condition="au">1.5000e-01</parameter>
<parameter name="time_step" condition="au">1.5000e-01</parameter>
<parameter name="timestep" condition="au">1.5000e-01</parameter>
<parameter name="use_drift" condition="string">no</parameter>
<parameter name="usedrift" condition="string">no</parameter>
<parameter name="walkers" condition="int">1</parameter>
<parameter name="warmup_steps" condition="int">0</parameter>
<parameter name="warmupsteps" condition="int">0</parameter>
  DumpConfig==false Nothing (configurations, state) will be saved.
  Walker Samples are dumped every 1 steps.
</vmc>
  EstimatorManagerBase::add replace LocalEnergy estimator.
  EstimatorManagerBase::add replace LocalEnergy estimator.
<optimization-report>
<vmc stage="main" blocks="200">
  Cannot make clones again. Use existing 1 clones
  Initial partition of walkers 0 1 
  Using Particle by Particle moves
  Walker moves without drift
  Total Sample Size   =256000
  Walker distribution on root = 0 1 
  Using Locality Approximation
===== Memory Usage after the buffer registration =====
Available memory on node 0, free + buffers : 84542 MB
Memory footprint by rank 0 on node 0       : 78 MB
==================================================
====================================================
  SimpleFixedNodeBranch::finalize after a VMC block
    QMC counter        = 4
    time step          = 0.15
    reference energy   = -15.8677
    reference variance = 0.252777
====================================================
  Execution time = 1.9009e+00
</vmc>
<opt stage="setup">
  <log>
   Reading configurations from h5FileRoot O.log.s004
  QMCCostFunction is created with 1 threads.
  Using Nonlocal PP in Opt: NonLocalECP
   Number of samples loaded to each thread : 250 
  VMC Eavg = -1.5852e+01
  VMC Evar = 2.5343e-01
  Total weights = 2.5600e+05
  Execution time = 3.7432e-01
  </log>
</opt>
<opt stage="main" walkers="256000">
  <log>

*****************************************
Building overlap and Hamiltonian matrices
*****************************************

Among totally 30 optimized parameters, largest LM parameter change : 3.3327e-02 at parameter 27

******************************************************************************
Init Cost =   2.5343e-01    New Cost =   2.5484e-01  Delta Cost =   1.4097e-03
******************************************************************************

The new set of parameters is valid. Updating the trial wave function!

*****************************************************************************
Applying the update for shift_i =   1.0000e-02     and shift_s =   3.9062e-03
*****************************************************************************
  Execution time = 2.6707e+00
  </log>
  <optVariables href="O.log.s004.opt.xml">
uu_0 2.3287e-01 1 1  ON 0
uu_1 1.1313e-01 1 1  ON 1
uu_2 2.2254e-02 1 1  ON 2
uu_3 -4.0908e-02 1 1  ON 3
uu_4 -8.0792e-02 1 1  ON 4
uu_5 -1.0167e-01 1 1  ON 5
uu_6 -1.0447e-01 1 1  ON 6
uu_7 -9.1803e-02 1 1  ON 7
uu_8 -6.1671e-02 1 1  ON 8
uu_9 -2.3155e-02 1 1  ON 9
ud_0 4.1946e-01 1 1  ON 10
ud_1 2.0341e-01 1 1  ON 11
ud_2 7.2343e-02 1 1  ON 12
ud_3 -1.3822e-02 1 1  ON 13
ud_4 -7.0497e-02 1 1  ON 14
ud_5 -1.0507e-01 1 1  ON 15
ud_6 -1.2088e-01 1 1  ON 16
ud_7 -1.1951e-01 1 1  ON 17
ud_8 -1.0100e-01 1 1  ON 18
ud_9 -7.1715e-02 1 1  ON 19
eO_0 -5.7935e-01 1 1  ON 20
eO_1 -4.4265e-01 1 1  ON 21
eO_2 -1.8806e-01 1 1  ON 22
eO_3 4.1302e-02 1 1  ON 23
eO_4 1.9799e-01 1 1  ON 24
eO_5 2.8388e-01 1 1  ON 25
eO_6 2.9606e-01 1 1  ON 26
eO_7 2.4721e-01 1 1  ON 27
eO_8 1.3814e-01 1 1  ON 28
eO_9 2.3877e-02 1 1  ON 29
  </optVariables>
   Restore the number of walkers to 1, removing 0 walkers.
</opt>
</optimization-report>
  QMC Execution time = 2.6818e+00 secs 
  Reusing QMCFixedSampleLinearOptimize
 Using QMCCostFunction::QMCCostFunction

=========================================================
  Start QMCFixedSampleLinearOptimize
  File Root O.log.s005 append = no 
=========================================================
  Skip QMCDriver::putQMCInfo 
  Resetting Properties of the walkers 1 x 13

=========================================================
  Start VMC
  File Root O.log.s005 append = no 
=========================================================
Using existing walkers 
  Resetting Properties of the walkers 1 x 13

<vmc function="put">
  qmc_counter=4  my_counter=4
  time step      = 1.5000e-01
  blocks         = 200
  steps          = 2
  substeps       = 5
  current        = 0
  target samples = 2.5600e+05
  walkers/mpi    = 1

  stepsbetweensamples = 1
<parameter name="blocks" condition="int">200</parameter>
<parameter name="blocks_between_recompute" condition="int">0</parameter>
<parameter name="check_properties" condition="int">100</parameter>
<parameter name="checkproperties" condition="int">100</parameter>
<parameter name="current" condition="int">0</parameter>
<parameter name="dmcwalkersperthread" condition="real">2.5000e+02</parameter>
<parameter name="maxcpusecs" condition="real">3.6000e+05</parameter>
<parameter name="record_configs" condition="int">0</parameter>
<parameter name="record_walkers" condition="int">1</parameter>
<parameter name="recordconfigs" condition="int">0</parameter>
<parameter name="recordwalkers" condition="int">1</parameter>
<parameter name="rewind" condition="int">0</parameter>
<parameter name="samples" condition="real">2.5600e+05</parameter>
<parameter name="samplesperthread" condition="real">2.5000e+02</parameter>
<parameter name="steps" condition="int">2</parameter>
<parameter name="stepsbetweensamples" condition="int">1</parameter>
<parameter name="store_configs" condition="int">0</parameter>
<parameter name="storeconfigs" condition="int">0</parameter>
<parameter name="sub_steps" condition="int">5</parameter>
<parameter name="substeps" condition="int">5</parameter>
<parameter name="tau" condition="au">1.5000e-01</parameter>
<parameter name="time_step" condition="au">1.5000e-01</parameter>
<parameter name="timestep" condition="au">1.5000e-01</parameter>
<parameter name="use_drift" condition="string">no</parameter>
<parameter name="usedrift" condition="string">no</parameter>
<parameter name="walkers" condition="int">1</parameter>
<parameter name="warmup_steps" condition="int">0</parameter>
<parameter name="warmupsteps" condition="int">0</parameter>
  DumpConfig==false Nothing (configurations, state) will be saved.
  Walker Samples are dumped every 1 steps.
</vmc>
  EstimatorManagerBase::add replace LocalEnergy estimator.
  EstimatorManagerBase::add replace LocalEnergy estimator.
<optimization-report>
<vmc stage="main" blocks="200">
  Cannot make clones again. Use existing 1 clones
  Initial partition of walkers 0 1 
  Using Particle by Particle moves
  Walker moves without drift
  Total Sample Size   =256000
  Walker distribution on root = 0 1 
  Using Locality Approximation
===== Memory Usage after the buffer registration =====
Available memory on node 0, free + buffers : 84539 MB
Memory footprint by rank 0 on node 0       : 80 MB
==================================================
====================================================
  SimpleFixedNodeBranch::finalize after a VMC block
    QMC counter        = 5
    time step          = 0.15
    reference energy   = -15.886
    reference variance = 0.379272
====================================================
  Execution time = 1.9130e+00
</vmc>
<opt stage="setup">
  <log>
   Reading configurations from h5FileRoot O.log.s005
  QMCCostFunction is created with 1 threads.
  Using Nonlocal PP in Opt: NonLocalECP
   Number of samples loaded to each thread : 250 
  VMC Eavg = -1.5852e+01
  VMC Evar = 2.7724e-01
  Total weights = 2.5600e+05
  Execution time = 3.9597e-01
  </log>
</opt>
<opt stage="main" walkers="256000">
  <log>

*****************************************
Building overlap and Hamiltonian matrices
*****************************************

Among totally 30 optimized parameters, largest LM parameter change : 3.6395e-02 at parameter 28

******************************************************************************
Init Cost =   2.7724e-01    New Cost =   2.7892e-01  Delta Cost =   1.6816e-03
******************************************************************************

The new set of parameters is valid. Updating the trial wave function!

*****************************************************************************
Applying the update for shift_i =   1.0000e-02     and shift_s =   3.9062e-03
*****************************************************************************
  Execution time = 2.7180e+00
  </log>
  <optVariables href="O.log.s005.opt.xml">
uu_0 2.3649e-01 1 1  ON 0
uu_1 1.1495e-01 1 1  ON 1
uu_2 2.3694e-02 1 1  ON 2
uu_3 -3.9927e-02 1 1  ON 3
uu_4 -8.1188e-02 1 1  ON 4
uu_5 -1.0381e-01 1 1  ON 5
uu_6 -1.0839e-01 1 1  ON 6
uu_7 -9.7845e-02 1 1  ON 7
uu_8 -6.9590e-02 1 1  ON 8
uu_9 -2.9942e-02 1 1  ON 9
ud_0 4.2261e-01 1 1  ON 10
ud_1 2.0523e-01 1 1  ON 11
ud_2 7.3946e-02 1 1  ON 12
ud_3 -1.1870e-02 1 1  ON 13
ud_4 -6.8315e-02 1 1  ON 14
ud_5 -1.0251e-01 1 1  ON 15
ud_6 -1.1811e-01 1 1  ON 16
ud_7 -1.1848e-01 1 1  ON 17
ud_8 -1.0010e-01 1 1  ON 18
ud_9 -6.9127e-02 1 1  ON 19
eO_0 -5.9862e-01 1 1  ON 20
eO_1 -4.6131e-01 1 1  ON 21
eO_2 -2.0515e-01 1 1  ON 22
eO_3 2.7114e-02 1 1  ON 23
eO_4 1.8790e-01 1 1  ON 24
eO_5 2.7995e-01 1 1  ON 25
eO_6 3.0398e-01 1 1  ON 26
eO_7 2.7357e-01 1 1  ON 27
eO_8 1.7454e-01 1 1  ON 28
eO_9 3.8021e-02 1 1  ON 29
  </optVariables>
   Restore the number of walkers to 1, removing 0 walkers.
</opt>
</optimization-report>
  QMC Execution time = 2.7285e+00 secs 
Loop execution max-interations = 5
  Reusing QMCFixedSampleLinearOptimize
 Using QMCCostFunction::QMCCostFunction

=========================================================
  Start QMCFixedSampleLinearOptimize
  File Root O.log.s006 append = no 
=========================================================
  Skip QMCDriver::putQMCInfo 
  Resetting Properties of the walkers 1 x 13

=========================================================
  Start VMC
  File Root O.log.s006 append = no 
=========================================================
  Using the current 1 walkers.
  Total number of walkers: 1.0240e+03
  Total weight: 1.0240e+03
  Resetting Properties of the walkers 1 x 13

<vmc function="put">
  qmc_counter=0  my_counter=5
  time step      = 1.5000e-01
  blocks         = 200
  steps          = 2
  substeps       = 5
  current        = 0
  target samples = 2.5600e+05
  walkers/mpi    = 1

  stepsbetweensamples = 1
<parameter name="blocks" condition="int">200</parameter>
<parameter name="blocks_between_recompute" condition="int">0</parameter>
<parameter name="check_properties" condition="int">100</parameter>
<parameter name="checkproperties" condition="int">100</parameter>
<parameter name="current" condition="int">0</parameter>
<parameter name="dmcwalkersperthread" condition="real">2.5000e+02</parameter>
<parameter name="maxcpusecs" condition="real">3.6000e+05</parameter>
<parameter name="record_configs" condition="int">0</parameter>
<parameter name="record_walkers" condition="int">1</parameter>
<parameter name="recordconfigs" condition="int">0</parameter>
<parameter name="recordwalkers" condition="int">1</parameter>
<parameter name="rewind" condition="int">0</parameter>
<parameter name="samples" condition="real">2.5600e+05</parameter>
<parameter name="samplesperthread" condition="real">2.5000e+02</parameter>
<parameter name="steps" condition="int">2</parameter>
<parameter name="stepsbetweensamples" condition="int">1</parameter>
<parameter name="store_configs" condition="int">0</parameter>
<parameter name="storeconfigs" condition="int">0</parameter>
<parameter name="sub_steps" condition="int">5</parameter>
<parameter name="substeps" condition="int">5</parameter>
<parameter name="tau" condition="au">1.5000e-01</parameter>
<parameter name="time_step" condition="au">1.5000e-01</parameter>
<parameter name="timestep" condition="au">1.5000e-01</parameter>
<parameter name="use_drift" condition="string">no</parameter>
<parameter name="usedrift" condition="string">no</parameter>
<parameter name="walkers" condition="int">1</parameter>
<parameter name="warmup_steps" condition="int">0</parameter>
<parameter name="warmupsteps" condition="int">0</parameter>
  DumpConfig==false Nothing (configurations, state) will be saved.
  Walker Samples are dumped every 1 steps.
</vmc>
  EstimatorManagerBase::add replace LocalEnergy estimator.
  EstimatorManagerBase::add replace LocalEnergy estimator.
<optimization-report>
<vmc stage="main" blocks="200">
  Cannot make clones again. Use existing 1 clones
  Initial partition of walkers 0 1 
  Using Particle by Particle moves
  Walker moves without drift
  Total Sample Size   =256000
  Walker distribution on root = 0 1 
  Using Locality Approximation
===== Memory Usage after the buffer registration =====
Available memory on node 0, free + buffers : 84537 MB
Memory footprint by rank 0 on node 0       : 82 MB
==================================================
====================================================
  SimpleFixedNodeBranch::finalize after a VMC block
    QMC counter        = 6
    time step          = 0.15
    reference energy   = -15.8471
    reference variance = 0.238441
====================================================
  Execution time = 1.9259e+00
</vmc>
<opt stage="setup">
  <log>
   Reading configurations from h5FileRoot O.log.s006
  QMCCostFunction is created with 1 threads.
  Using Nonlocal PP in Opt: NonLocalECP
   Number of samples loaded to each thread : 250 
  VMC Eavg = -1.5852e+01
  VMC Evar = 2.7181e-01
  Total weights = 2.5600e+05
  Execution time = 3.9251e-01
  </log>
</opt>
<opt stage="main" walkers="256000">
  <log>

*****************************************
Building overlap and Hamiltonian matrices
*****************************************

Among totally 30 optimized parameters, largest LM parameter change : 7.5570e+01 at parameter 20

******************************************************************************
Init Cost =   2.7181e-01    New Cost =   6.2794e+03  Delta Cost =   6.2791e+03
******************************************************************************

The new set of parameters is not valid. Revert to the old set!

*****************************************************************************
Applying the update for shift_i =   1.0000e-02     and shift_s =   1.5625e-02
*****************************************************************************
  Execution time = 2.4261e+00
  </log>
  <optVariables href="O.log.s006.opt.xml">
uu_0 2.3649e-01 1 1  ON 0
uu_1 1.1495e-01 1 1  ON 1
uu_2 2.3694e-02 1 1  ON 2
uu_3 -3.9927e-02 1 1  ON 3
uu_4 -8.1188e-02 1 1  ON 4
uu_5 -1.0381e-01 1 1  ON 5
uu_6 -1.0839e-01 1 1  ON 6
uu_7 -9.7845e-02 1 1  ON 7
uu_8 -6.9590e-02 1 1  ON 8
uu_9 -2.9942e-02 1 1  ON 9
ud_0 4.2261e-01 1 1  ON 10
ud_1 2.0523e-01 1 1  ON 11
ud_2 7.3946e-02 1 1  ON 12
ud_3 -1.1870e-02 1 1  ON 13
ud_4 -6.8315e-02 1 1  ON 14
ud_5 -1.0251e-01 1 1  ON 15
ud_6 -1.1811e-01 1 1  ON 16
ud_7 -1.1848e-01 1 1  ON 17
ud_8 -1.0010e-01 1 1  ON 18
ud_9 -6.9127e-02 1 1  ON 19
eO_0 -5.9862e-01 1 1  ON 20
eO_1 -4.6131e-01 1 1  ON 21
eO_2 -2.0515e-01 1 1  ON 22
eO_3 2.7114e-02 1 1  ON 23
eO_4 1.8790e-01 1 1  ON 24
eO_5 2.7995e-01 1 1  ON 25
eO_6 3.0398e-01 1 1  ON 26
eO_7 2.7357e-01 1 1  ON 27
eO_8 1.7454e-01 1 1  ON 28
eO_9 3.8021e-02 1 1  ON 29
  </optVariables>
   Restore the number of walkers to 1, removing 0 walkers.
</opt>
</optimization-report>
  QMC Execution time = 2.4377e+00 secs 
  Reusing QMCFixedSampleLinearOptimize
 Using QMCCostFunction::QMCCostFunction

=========================================================
  Start QMCFixedSampleLinearOptimize
  File Root O.log.s007 append = no 
=========================================================
  Skip QMCDriver::putQMCInfo 
  Resetting Properties of the walkers 1 x 13

=========================================================
  Start VMC
  File Root O.log.s007 append = no 
=========================================================
Using existing walkers 
  Resetting Properties of the walkers 1 x 13

<vmc function="put">
  qmc_counter=1  my_counter=6
  time step      = 1.5000e-01
  blocks         = 200
  steps          = 2
  substeps       = 5
  current        = 0
  target samples = 2.5600e+05
  walkers/mpi    = 1

  stepsbetweensamples = 1
<parameter name="blocks" condition="int">200</parameter>
<parameter name="blocks_between_recompute" condition="int">0</parameter>
<parameter name="check_properties" condition="int">100</parameter>
<parameter name="checkproperties" condition="int">100</parameter>
<parameter name="current" condition="int">0</parameter>
<parameter name="dmcwalkersperthread" condition="real">2.5000e+02</parameter>
<parameter name="maxcpusecs" condition="real">3.6000e+05</parameter>
<parameter name="record_configs" condition="int">0</parameter>
<parameter name="record_walkers" condition="int">1</parameter>
<parameter name="recordconfigs" condition="int">0</parameter>
<parameter name="recordwalkers" condition="int">1</parameter>
<parameter name="rewind" condition="int">0</parameter>
<parameter name="samples" condition="real">2.5600e+05</parameter>
<parameter name="samplesperthread" condition="real">2.5000e+02</parameter>
<parameter name="steps" condition="int">2</parameter>
<parameter name="stepsbetweensamples" condition="int">1</parameter>
<parameter name="store_configs" condition="int">0</parameter>
<parameter name="storeconfigs" condition="int">0</parameter>
<parameter name="sub_steps" condition="int">5</parameter>
<parameter name="substeps" condition="int">5</parameter>
<parameter name="tau" condition="au">1.5000e-01</parameter>
<parameter name="time_step" condition="au">1.5000e-01</parameter>
<parameter name="timestep" condition="au">1.5000e-01</parameter>
<parameter name="use_drift" condition="string">no</parameter>
<parameter name="usedrift" condition="string">no</parameter>
<parameter name="walkers" condition="int">1</parameter>
<parameter name="warmup_steps" condition="int">0</parameter>
<parameter name="warmupsteps" condition="int">0</parameter>
  DumpConfig==false Nothing (configurations, state) will be saved.
  Walker Samples are dumped every 1 steps.
</vmc>
  EstimatorManagerBase::add replace LocalEnergy estimator.
  EstimatorManagerBase::add replace LocalEnergy estimator.
<optimization-report>
<vmc stage="main" blocks="200">
  Cannot make clones again. Use existing 1 clones
  Initial partition of walkers 0 1 
  Using Particle by Particle moves
  Walker moves without drift
  Total Sample Size   =256000
  Walker distribution on root = 0 1 
  Using Locality Approximation
===== Memory Usage after the buffer registration =====
Available memory on node 0, free + buffers : 84536 MB
Memory footprint by rank 0 on node 0       : 83 MB
==================================================
====================================================
  SimpleFixedNodeBranch::finalize after a VMC block
    QMC counter        = 7
    time step          = 0.15
    reference energy   = -15.8392
    reference variance = 0.349807
====================================================
  Execution time = 1.9020e+00
</vmc>
<opt stage="setup">
  <log>
   Reading configurations from h5FileRoot O.log.s007
  QMCCostFunction is created with 1 threads.
  Using Nonlocal PP in Opt: NonLocalECP
   Number of samples loaded to each thread : 250 
  VMC Eavg = -1.5853e+01
  VMC Evar = 2.6174e-01
  Total weights = 2.5600e+05
  Execution time = 3.9461e-01
  </log>
</opt>
<opt stage="main" walkers="256000">
  <log>

*****************************************
Building overlap and Hamiltonian matrices
*****************************************

Among totally 30 optimized parameters, largest LM parameter change : 2.1913e-02 at parameter 28

******************************************************************************
Init Cost =   2.6174e-01    New Cost =   2.6208e-01  Delta Cost =   3.4284e-04
******************************************************************************

The new set of parameters is valid. Updating the trial wave function!

*****************************************************************************
Applying the update for shift_i =   1.0000e-02     and shift_s =   3.9062e-03
*****************************************************************************
  Execution time = 2.7065e+00
  </log>
  <optVariables href="O.log.s007.opt.xml">
uu_0 2.3686e-01 1 1  ON 0
uu_1 1.1527e-01 1 1  ON 1
uu_2 2.3625e-02 1 1  ON 2
uu_3 -4.0486e-02 1 1  ON 3
uu_4 -8.2092e-02 1 1  ON 4
uu_5 -1.0471e-01 1 1  ON 5
uu_6 -1.1092e-01 1 1  ON 6
uu_7 -1.0137e-01 1 1  ON 7
uu_8 -7.8482e-02 1 1  ON 8
uu_9 -4.1264e-02 1 1  ON 9
ud_0 4.2742e-01 1 1  ON 10
ud_1 2.1108e-01 1 1  ON 11
ud_2 7.9465e-02 1 1  ON 12
ud_3 -6.7910e-03 1 1  ON 13
ud_4 -6.3824e-02 1 1  ON 14
ud_5 -9.9018e-02 1 1  ON 15
ud_6 -1.1545e-01 1 1  ON 16
ud_7 -1.1752e-01 1 1  ON 17
ud_8 -1.0141e-01 1 1  ON 18
ud_9 -7.1408e-02 1 1  ON 19
eO_0 -6.0904e-01 1 1  ON 20
eO_1 -4.7059e-01 1 1  ON 21
eO_2 -2.1338e-01 1 1  ON 22
eO_3 2.0126e-02 1 1  ON 23
eO_4 1.8226e-01 1 1  ON 24
eO_5 2.7474e-01 1 1  ON 25
eO_6 3.0289e-01 1 1  ON 26
eO_7 2.7930e-01 1 1  ON 27
eO_8 1.9645e-01 1 1  ON 28
eO_9 5.6096e-02 1 1  ON 29
  </optVariables>
   Restore the number of walkers to 1, removing 0 walkers.
</opt>
</optimization-report>
  QMC Execution time = 2.7172e+00 secs 
  Reusing QMCFixedSampleLinearOptimize
 Using QMCCostFunction::QMCCostFunction

=========================================================
  Start QMCFixedSampleLinearOptimize
  File Root O.log.s008 append = no 
=========================================================
  Skip QMCDriver::putQMCInfo 
  Resetting Properties of the walkers 1 x 13

=========================================================
  Start VMC
  File Root O.log.s008 append = no 
=========================================================
Using existing walkers 
  Resetting Properties of the walkers 1 x 13

<vmc function="put">
  qmc_counter=2  my_counter=7
  time step      = 1.5000e-01
  blocks         = 200
  steps          = 2
  substeps       = 5
  current        = 0
  target samples = 2.5600e+05
  walkers/mpi    = 1

  stepsbetweensamples = 1
<parameter name="blocks" condition="int">200</parameter>
<parameter name="blocks_between_recompute" condition="int">0</parameter>
<parameter name="check_properties" condition="int">100</parameter>
<parameter name="checkproperties" condition="int">100</parameter>
<parameter name="current" condition="int">0</parameter>
<parameter name="dmcwalkersperthread" condition="real">2.5000e+02</parameter>
<parameter name="maxcpusecs" condition="real">3.6000e+05</parameter>
<parameter name="record_configs" condition="int">0</parameter>
<parameter name="record_walkers" condition="int">1</parameter>
<parameter name="recordconfigs" condition="int">0</parameter>
<parameter name="recordwalkers" condition="int">1</parameter>
<parameter name="rewind" condition="int">0</parameter>
<parameter name="samples" condition="real">2.5600e+05</parameter>
<parameter name="samplesperthread" condition="real">2.5000e+02</parameter>
<parameter name="steps" condition="int">2</parameter>
<parameter name="stepsbetweensamples" condition="int">1</parameter>
<parameter name="store_configs" condition="int">0</parameter>
<parameter name="storeconfigs" condition="int">0</parameter>
<parameter name="sub_steps" condition="int">5</parameter>
<parameter name="substeps" condition="int">5</parameter>
<parameter name="tau" condition="au">1.5000e-01</parameter>
<parameter name="time_step" condition="au">1.5000e-01</parameter>
<parameter name="timestep" condition="au">1.5000e-01</parameter>
<parameter name="use_drift" condition="string">no</parameter>
<parameter name="usedrift" condition="string">no</parameter>
<parameter name="walkers" condition="int">1</parameter>
<parameter name="warmup_steps" condition="int">0</parameter>
<parameter name="warmupsteps" condition="int">0</parameter>
  DumpConfig==false Nothing (configurations, state) will be saved.
  Walker Samples are dumped every 1 steps.
</vmc>
  EstimatorManagerBase::add replace LocalEnergy estimator.
  EstimatorManagerBase::add replace LocalEnergy estimator.
<optimization-report>
<vmc stage="main" blocks="200">
  Cannot make clones again. Use existing 1 clones
  Initial partition of walkers 0 1 
  Using Particle by Particle moves
  Walker moves without drift
  Total Sample Size   =256000
  Walker distribution on root = 0 1 
  Using Locality Approximation
===== Memory Usage after the buffer registration =====
Available memory on node 0, free + buffers : 84534 MB
Memory footprint by rank 0 on node 0       : 85 MB
==================================================
====================================================
  SimpleFixedNodeBranch::finalize after a VMC block
    QMC counter        = 8
    time step          = 0.15
    reference energy   = -15.8207
    reference variance = 0.21109
====================================================
  Execution time = 1.9079e+00
</vmc>
<opt stage="setup">
  <log>
   Reading configurations from h5FileRoot O.log.s008
  QMCCostFunction is created with 1 threads.
  Using Nonlocal PP in Opt: NonLocalECP
   Number of samples loaded to each thread : 250 
  VMC Eavg = -1.5851e+01
  VMC Evar = 2.6718e-01
  Total weights = 2.5600e+05
  Execution time = 4.0779e-01
  </log>
</opt>
<opt stage="main" walkers="256000">
  <log>

*****************************************
Building overlap and Hamiltonian matrices
*****************************************

Among totally 30 optimized parameters, largest LM parameter change : 7.2706e+01 at parameter 20

******************************************************************************
Init Cost =   2.6718e-01    New Cost =   3.0850e+03  Delta Cost =   3.0847e+03
******************************************************************************

The new set of parameters is not valid. Revert to the old set!
Update shift_s_base to 2.0000e+00

*****************************************************************************
Applying the update for shift_i =   1.0000e-02     and shift_s =   1.5625e-02
*****************************************************************************
  Execution time = 2.4058e+00
  </log>
  <optVariables href="O.log.s008.opt.xml">
uu_0 2.3686e-01 1 1  ON 0
uu_1 1.1527e-01 1 1  ON 1
uu_2 2.3625e-02 1 1  ON 2
uu_3 -4.0486e-02 1 1  ON 3
uu_4 -8.2092e-02 1 1  ON 4
uu_5 -1.0471e-01 1 1  ON 5
uu_6 -1.1092e-01 1 1  ON 6
uu_7 -1.0137e-01 1 1  ON 7
uu_8 -7.8482e-02 1 1  ON 8
uu_9 -4.1264e-02 1 1  ON 9
ud_0 4.2742e-01 1 1  ON 10
ud_1 2.1108e-01 1 1  ON 11
ud_2 7.9465e-02 1 1  ON 12
ud_3 -6.7910e-03 1 1  ON 13
ud_4 -6.3824e-02 1 1  ON 14
ud_5 -9.9018e-02 1 1  ON 15
ud_6 -1.1545e-01 1 1  ON 16
ud_7 -1.1752e-01 1 1  ON 17
ud_8 -1.0141e-01 1 1  ON 18
ud_9 -7.1408e-02 1 1  ON 19
eO_0 -6.0904e-01 1 1  ON 20
eO_1 -4.7059e-01 1 1  ON 21
eO_2 -2.1338e-01 1 1  ON 22
eO_3 2.0126e-02 1 1  ON 23
eO_4 1.8226e-01 1 1  ON 24
eO_5 2.7474e-01 1 1  ON 25
eO_6 3.0289e-01 1 1  ON 26
eO_7 2.7930e-01 1 1  ON 27
eO_8 1.9645e-01 1 1  ON 28
eO_9 5.6096e-02 1 1  ON 29
  </optVariables>
   Restore the number of walkers to 1, removing 0 walkers.
</opt>
</optimization-report>
  QMC Execution time = 2.4161e+00 secs 
  Reusing QMCFixedSampleLinearOptimize
 Using QMCCostFunction::QMCCostFunction

=========================================================
  Start QMCFixedSampleLinearOptimize
  File Root O.log.s009 append = no 
=========================================================
  Skip QMCDriver::putQMCInfo 
  Resetting Properties of the walkers 1 x 13

=========================================================
  Start VMC
  File Root O.log.s009 append = no 
=========================================================
Using existing walkers 
  Resetting Properties of the walkers 1 x 13

<vmc function="put">
  qmc_counter=3  my_counter=8
  time step      = 1.5000e-01
  blocks         = 200
  steps          = 2
  substeps       = 5
  current        = 0
  target samples = 2.5600e+05
  walkers/mpi    = 1

  stepsbetweensamples = 1
<parameter name="blocks" condition="int">200</parameter>
<parameter name="blocks_between_recompute" condition="int">0</parameter>
<parameter name="check_properties" condition="int">100</parameter>
<parameter name="checkproperties" condition="int">100</parameter>
<parameter name="current" condition="int">0</parameter>
<parameter name="dmcwalkersperthread" condition="real">2.5000e+02</parameter>
<parameter name="maxcpusecs" condition="real">3.6000e+05</parameter>
<parameter name="record_configs" condition="int">0</parameter>
<parameter name="record_walkers" condition="int">1</parameter>
<parameter name="recordconfigs" condition="int">0</parameter>
<parameter name="recordwalkers" condition="int">1</parameter>
<parameter name="rewind" condition="int">0</parameter>
<parameter name="samples" condition="real">2.5600e+05</parameter>
<parameter name="samplesperthread" condition="real">2.5000e+02</parameter>
<parameter name="steps" condition="int">2</parameter>
<parameter name="stepsbetweensamples" condition="int">1</parameter>
<parameter name="store_configs" condition="int">0</parameter>
<parameter name="storeconfigs" condition="int">0</parameter>
<parameter name="sub_steps" condition="int">5</parameter>
<parameter name="substeps" condition="int">5</parameter>
<parameter name="tau" condition="au">1.5000e-01</parameter>
<parameter name="time_step" condition="au">1.5000e-01</parameter>
<parameter name="timestep" condition="au">1.5000e-01</parameter>
<parameter name="use_drift" condition="string">no</parameter>
<parameter name="usedrift" condition="string">no</parameter>
<parameter name="walkers" condition="int">1</parameter>
<parameter name="warmup_steps" condition="int">0</parameter>
<parameter name="warmupsteps" condition="int">0</parameter>
  DumpConfig==false Nothing (configurations, state) will be saved.
  Walker Samples are dumped every 1 steps.
</vmc>
  EstimatorManagerBase::add replace LocalEnergy estimator.
  EstimatorManagerBase::add replace LocalEnergy estimator.
<optimization-report>
<vmc stage="main" blocks="200">
  Cannot make clones again. Use existing 1 clones
  Initial partition of walkers 0 1 
  Using Particle by Particle moves
  Walker moves without drift
  Total Sample Size   =256000
  Walker distribution on root = 0 1 
  Using Locality Approximation
===== Memory Usage after the buffer registration =====
Available memory on node 0, free + buffers : 84533 MB
Memory footprint by rank 0 on node 0       : 87 MB
==================================================
====================================================
  SimpleFixedNodeBranch::finalize after a VMC block
    QMC counter        = 9
    time step          = 0.15
    reference energy   = -15.8508
    reference variance = 0.19219
====================================================
  Execution time = 1.9066e+00
</vmc>
<opt stage="setup">
  <log>
   Reading configurations from h5FileRoot O.log.s009
  QMCCostFunction is created with 1 threads.
  Using Nonlocal PP in Opt: NonLocalECP
   Number of samples loaded to each thread : 250 
  VMC Eavg = -1.5853e+01
  VMC Evar = 2.5544e-01
  Total weights = 2.5600e+05
  Execution time = 4.0970e-01
  </log>
</opt>
<opt stage="main" walkers="256000">
  <log>

*****************************************
Building overlap and Hamiltonian matrices
*****************************************

Among totally 30 optimized parameters, largest LM parameter change : 1.3287e-02 at parameter 28

******************************************************************************
Init Cost =   2.5544e-01    New Cost =   2.5547e-01  Delta Cost =   2.8261e-05
******************************************************************************

The new set of parameters is valid. Updating the trial wave function!

*****************************************************************************
Applying the update for shift_i =   1.0000e-02     and shift_s =   7.8125e-03
*****************************************************************************
  Execution time = 2.7206e+00
  </log>
  <optVariables href="O.log.s009.opt.xml">
uu_0 2.3619e-01 1 1  ON 0
uu_1 1.1510e-01 1 1  ON 1
uu_2 2.3276e-02 1 1  ON 2
uu_3 -4.0636e-02 1 1  ON 3
uu_4 -8.2101e-02 1 1  ON 4
uu_5 -1.0483e-01 1 1  ON 5
uu_6 -1.1189e-01 1 1  ON 6
uu_7 -1.0212e-01 1 1  ON 7
uu_8 -7.9574e-02 1 1  ON 8
uu_9 -4.4063e-02 1 1  ON 9
ud_0 4.3670e-01 1 1  ON 10
ud_1 2.2010e-01 1 1  ON 11
ud_2 8.8489e-02 1 1  ON 12
ud_3 2.1701e-03 1 1  ON 13
ud_4 -5.5463e-02 1 1  ON 14
ud_5 -9.1471e-02 1 1  ON 15
ud_6 -1.1011e-01 1 1  ON 16
ud_7 -1.1375e-01 1 1  ON 17
ud_8 -1.0111e-01 1 1  ON 18
ud_9 -7.5310e-02 1 1  ON 19
eO_0 -6.1832e-01 1 1  ON 20
eO_1 -4.8028e-01 1 1  ON 21
eO_2 -2.2270e-01 1 1  ON 22
eO_3 1.2521e-02 1 1  ON 23
eO_4 1.7736e-01 1 1  ON 24
eO_5 2.7658e-01 1 1  ON 25
eO_6 3.1006e-01 1 1  ON 26
eO_7 2.8866e-01 1 1  ON 27
eO_8 2.0974e-01 1 1  ON 28
eO_9 6.6795e-02 1 1  ON 29
  </optVariables>
   Restore the number of walkers to 1, removing 0 walkers.
</opt>
</optimization-report>
  QMC Execution time = 2.7314e+00 secs 
  Reusing QMCFixedSampleLinearOptimize
 Using QMCCostFunction::QMCCostFunction

=========================================================
  Start QMCFixedSampleLinearOptimize
  File Root O.log.s010 append = no 
=========================================================
  Skip QMCDriver::putQMCInfo 
  Resetting Properties of the walkers 1 x 13

=========================================================
  Start VMC
  File Root O.log.s010 append = no 
=========================================================
Using existing walkers 
  Resetting Properties of the walkers 1 x 13

<vmc function="put">
  qmc_counter=4  my_counter=9
  time step      = 1.5000e-01
  blocks         = 200
  steps          = 2
  substeps       = 5
  current        = 0
  target samples = 2.5600e+05
  walkers/mpi    = 1

  stepsbetweensamples = 1
<parameter name="blocks" condition="int">200</parameter>
<parameter name="blocks_between_recompute" condition="int">0</parameter>
<parameter name="check_properties" condition="int">100</parameter>
<parameter name="checkproperties" condition="int">100</parameter>
<parameter name="current" condition="int">0</parameter>
<parameter name="dmcwalkersperthread" condition="real">2.5000e+02</parameter>
<parameter name="maxcpusecs" condition="real">3.6000e+05</parameter>
<parameter name="record_configs" condition="int">0</parameter>
<parameter name="record_walkers" condition="int">1</parameter>
<parameter name="recordconfigs" condition="int">0</parameter>
<parameter name="recordwalkers" condition="int">1</parameter>
<parameter name="rewind" condition="int">0</parameter>
<parameter name="samples" condition="real">2.5600e+05</parameter>
<parameter name="samplesperthread" condition="real">2.5000e+02</parameter>
<parameter name="steps" condition="int">2</parameter>
<parameter name="stepsbetweensamples" condition="int">1</parameter>
<parameter name="store_configs" condition="int">0</parameter>
<parameter name="storeconfigs" condition="int">0</parameter>
<parameter name="sub_steps" condition="int">5</parameter>
<parameter name="substeps" condition="int">5</parameter>
<parameter name="tau" condition="au">1.5000e-01</parameter>
<parameter name="time_step" condition="au">1.5000e-01</parameter>
<parameter name="timestep" condition="au">1.5000e-01</parameter>
<parameter name="use_drift" condition="string">no</parameter>
<parameter name="usedrift" condition="string">no</parameter>
<parameter name="walkers" condition="int">1</parameter>
<parameter name="warmup_steps" condition="int">0</parameter>
<parameter name="warmupsteps" condition="int">0</parameter>
  DumpConfig==false Nothing (configurations, state) will be saved.
  Walker Samples are dumped every 1 steps.
</vmc>
  EstimatorManagerBase::add replace LocalEnergy estimator.
  EstimatorManagerBase::add replace LocalEnergy estimator.
<optimization-report>
<vmc stage="main" blocks="200">
  Cannot make clones again. Use existing 1 clones
  Initial partition of walkers 0 1 
  Using Particle by Particle moves
  Walker moves without drift
  Total Sample Size   =256000
  Walker distribution on root = 0 1 
  Using Locality Approximation
===== Memory Usage after the buffer registration =====
Available memory on node 0, free + buffers : 84530 MB
Memory footprint by rank 0 on node 0       : 89 MB
==================================================
====================================================
  SimpleFixedNodeBranch::finalize after a VMC block
    QMC counter        = 10
    time step          = 0.15
    reference energy   = -15.8542
    reference variance = 0.240589
====================================================
  Execution time = 1.8951e+00
</vmc>
<opt stage="setup">
  <log>
   Reading configurations from h5FileRoot O.log.s010
  QMCCostFunction is created with 1 threads.
  Using Nonlocal PP in Opt: NonLocalECP
   Number of samples loaded to each thread : 250 
  VMC Eavg = -1.5851e+01
  VMC Evar = 2.5168e-01
  Total weights = 2.5600e+05
  Execution time = 3.8967e-01
  </log>
</opt>
<opt stage="main" walkers="256000">
  <log>

*****************************************
Building overlap and Hamiltonian matrices
*****************************************

Among totally 30 optimized parameters, largest LM parameter change : 1.7853e-02 at parameter 28

******************************************************************************
Init Cost =   2.5168e-01    New Cost =   2.5383e-01  Delta Cost =   2.1467e-03
******************************************************************************

The new set of parameters is valid. Updating the trial wave function!

*****************************************************************************
Applying the update for shift_i =   1.0000e-02     and shift_s =   7.8125e-03
*****************************************************************************
  Execution time = 2.6838e+00
  </log>
  <optVariables href="O.log.s010.opt.xml">
uu_0 2.3794e-01 1 1  ON 0
uu_1 1.1761e-01 1 1  ON 1
uu_2 2.5539e-02 1 1  ON 2
uu_3 -3.8664e-02 1 1  ON 3
uu_4 -8.0873e-02 1 1  ON 4
uu_5 -1.0398e-01 1 1  ON 5
uu_6 -1.1100e-01 1 1  ON 6
uu_7 -1.0356e-01 1 1  ON 7
uu_8 -8.1020e-02 1 1  ON 8
uu_9 -5.0515e-02 1 1  ON 9
ud_0 4.4287e-01 1 1  ON 10
ud_1 2.2548e-01 1 1  ON 11
ud_2 9.3189e-02 1 1  ON 12
ud_3 5.7242e-03 1 1  ON 13
ud_4 -5.2178e-02 1 1  ON 14
ud_5 -8.9233e-02 1 1  ON 15
ud_6 -1.0845e-01 1 1  ON 16
ud_7 -1.1321e-01 1 1  ON 17
ud_8 -9.8291e-02 1 1  ON 18
ud_9 -7.0580e-02 1 1  ON 19
eO_0 -6.2801e-01 1 1  ON 20
eO_1 -4.9002e-01 1 1  ON 21
eO_2 -2.3027e-01 1 1  ON 22
eO_3 6.6897e-03 1 1  ON 23
eO_4 1.7393e-01 1 1  ON 24
eO_5 2.7422e-01 1 1  ON 25
eO_6 3.1108e-01 1 1  ON 26
eO_7 2.9647e-01 1 1  ON 27
eO_8 2.2759e-01 1 1  ON 28
eO_9 7.9457e-02 1 1  ON 29
  </optVariables>
   Restore the number of walkers to 1, removing 0 walkers.
</opt>
</optimization-report>
  QMC Execution time = 2.6939e+00 secs 
Loop execution max-interations = 10
  Reusing QMCFixedSampleLinearOptimize
 Using QMCCostFunction::QMCCostFunction

=========================================================
  Start QMCFixedSampleLinearOptimize
  File Root O.log.s011 append = no 
=========================================================
  Skip QMCDriver::putQMCInfo 
  Resetting Properties of the walkers 1 x 13

=========================================================
  Start VMC
  File Root O.log.s011 append = no 
=========================================================
  Using the current 1 walkers.
  Total number of walkers: 1.0240e+03
  Total weight: 1.0240e+03
  Resetting Properties of the walkers 1 x 13

<vmc function="put">
  qmc_counter=0  my_counter=10
  time step      = 1.5000e-01
  blocks         = 200
  steps          = 3
  substeps       = 5
  current        = 0
  target samples = 5.1200e+05
  walkers/mpi    = 1

  stepsbetweensamples = 1
<parameter name="blocks" condition="int">200</parameter>
<parameter name="blocks_between_recompute" condition="int">0</parameter>
<parameter name="check_properties" condition="int">100</parameter>
<parameter name="checkproperties" condition="int">100</parameter>
<parameter name="current" condition="int">0</parameter>
<parameter name="dmcwalkersperthread" condition="real">5.0000e+02</parameter>
<parameter name="maxcpusecs" condition="real">3.6000e+05</parameter>
<parameter name="record_configs" condition="int">0</parameter>
<parameter name="record_walkers" condition="int">1</parameter>
<parameter name="recordconfigs" condition="int">0</parameter>
<parameter name="recordwalkers" condition="int">1</parameter>
<parameter name="rewind" condition="int">0</parameter>
<parameter name="samples" condition="real">5.1200e+05</parameter>
<parameter name="samplesperthread" condition="real">5.0000e+02</parameter>
<parameter name="steps" condition="int">3</parameter>
<parameter name="stepsbetweensamples" condition="int">1</parameter>
<parameter name="store_configs" condition="int">0</parameter>
<parameter name="storeconfigs" condition="int">0</parameter>
<parameter name="sub_steps" condition="int">5</parameter>
<parameter name="substeps" condition="int">5</parameter>
<parameter name="tau" condition="au">1.5000e-01</parameter>
<parameter name="time_step" condition="au">1.5000e-01</parameter>
<parameter name="timestep" condition="au">1.5000e-01</parameter>
<parameter name="use_drift" condition="string">no</parameter>
<parameter name="usedrift" condition="string">no</parameter>
<parameter name="walkers" condition="int">1</parameter>
<parameter name="warmup_steps" condition="int">0</parameter>
<parameter name="warmupsteps" condition="int">0</parameter>
  DumpConfig==false Nothing (configurations, state) will be saved.
  Walker Samples are dumped every 1 steps.
</vmc>
  EstimatorManagerBase::add replace LocalEnergy estimator.
  EstimatorManagerBase::add replace LocalEnergy estimator.
<optimization-report>
<vmc stage="main" blocks="200">
  Cannot make clones again. Use existing 1 clones
  Initial partition of walkers 0 1 
  Using Particle by Particle moves
  Walker moves without drift
  Total Sample Size   =512000
  Walker distribution on root = 0 1 
  Using Locality Approximation
===== Memory Usage after the buffer registration =====
Available memory on node 0, free + buffers : 84528 MB
Memory footprint by rank 0 on node 0       : 90 MB
==================================================
====================================================
  SimpleFixedNodeBranch::finalize after a VMC block
    QMC counter        = 11
    time step          = 0.15
    reference energy   = -15.8619
    reference variance = 0.251924
====================================================
  Execution time = 2.3252e+00
</vmc>
<opt stage="setup">
  <log>
   Reading configurations from h5FileRoot O.log.s011
  QMCCostFunction is created with 1 threads.
  Using Nonlocal PP in Opt: NonLocalECP
   Number of samples loaded to each thread : 500 
  VMC Eavg = -1.5852e+01
  VMC Evar = 2.5712e-01
  Total weights = 5.1200e+05
  Execution time = 7.6481e-01
  </log>
</opt>
<opt stage="main" walkers="512000">
  <log>

*****************************************
Building overlap and Hamiltonian matrices
*****************************************

Among totally 30 optimized parameters, largest LM parameter change : 1.7134e-02 at parameter 29

******************************************************************************
Init Cost =  -1.5047e+01    New Cost =  -1.5047e+01  Delta Cost =  -5.3324e-05
******************************************************************************

The new set of parameters is valid. Updating the trial wave function!

*****************************************************************************
Applying the update for shift_i =   1.0000e-02     and shift_s =   7.8125e-03
*****************************************************************************
  Execution time = 3.8494e+00
  </log>
  <optVariables href="O.log.s011.opt.xml">
uu_0 2.3573e-01 1 1  ON 0
uu_1 1.1456e-01 1 1  ON 1
uu_2 2.2967e-02 1 1  ON 2
uu_3 -4.1166e-02 1 1  ON 3
uu_4 -8.2981e-02 1 1  ON 4
uu_5 -1.0621e-01 1 1  ON 5
uu_6 -1.1355e-01 1 1  ON 6
uu_7 -1.0606e-01 1 1  ON 7
uu_8 -8.3134e-02 1 1  ON 8
uu_9 -5.0438e-02 1 1  ON 9
ud_0 4.4597e-01 1 1  ON 10
ud_1 2.2888e-01 1 1  ON 11
ud_2 9.6735e-02 1 1  ON 12
ud_3 9.8591e-03 1 1  ON 13
ud_4 -4.7983e-02 1 1  ON 14
ud_5 -8.4294e-02 1 1  ON 15
ud_6 -1.0347e-01 1 1  ON 16
ud_7 -1.0878e-01 1 1  ON 17
ud_8 -9.7517e-02 1 1  ON 18
ud_9 -7.1662e-02 1 1  ON 19
eO_0 -6.3244e-01 1 1  ON 20
eO_1 -4.9435e-01 1 1  ON 21
eO_2 -2.3567e-01 1 1  ON 22
eO_3 7.8144e-04 1 1  ON 23
eO_4 1.6844e-01 1 1  ON 24
eO_5 2.7165e-01 1 1  ON 25
eO_6 3.1079e-01 1 1  ON 26
eO_7 2.9446e-01 1 1  ON 27
eO_8 2.3503e-01 1 1  ON 28
eO_9 9.6590e-02 1 1  ON 29
  </optVariables>
   Restore the number of walkers to 1, removing 0 walkers.
</opt>
</optimization-report>
  QMC Execution time = 3.8602e+00 secs 
  Reusing QMCFixedSampleLinearOptimize
 Using QMCCostFunction::QMCCostFunction

=========================================================
  Start QMCFixedSampleLinearOptimize
  File Root O.log.s012 append = no 
=========================================================
  Skip QMCDriver::putQMCInfo 
  Resetting Properties of the walkers 1 x 13

=========================================================
  Start VMC
  File Root O.log.s012 append = no 
=========================================================
Using existing walkers 
  Resetting Properties of the walkers 1 x 13

<vmc function="put">
  qmc_counter=1  my_counter=11
  time step      = 1.5000e-01
  blocks         = 200
  steps          = 3
  substeps       = 5
  current        = 0
  target samples = 5.1200e+05
  walkers/mpi    = 1

  stepsbetweensamples = 1
<parameter name="blocks" condition="int">200</parameter>
<parameter name="blocks_between_recompute" condition="int">0</parameter>
<parameter name="check_properties" condition="int">100</parameter>
<parameter name="checkproperties" condition="int">100</parameter>
<parameter name="current" condition="int">0</parameter>
<parameter name="dmcwalkersperthread" condition="real">5.0000e+02</parameter>
<parameter name="maxcpusecs" condition="real">3.6000e+05</parameter>
<parameter name="record_configs" condition="int">0</parameter>
<parameter name="record_walkers" condition="int">1</parameter>
<parameter name="recordconfigs" condition="int">0</parameter>
<parameter name="recordwalkers" condition="int">1</parameter>
<parameter name="rewind" condition="int">0</parameter>
<parameter name="samples" condition="real">5.1200e+05</parameter>
<parameter name="samplesperthread" condition="real">5.0000e+02</parameter>
<parameter name="steps" condition="int">3</parameter>
<parameter name="stepsbetweensamples" condition="int">1</parameter>
<parameter name="store_configs" condition="int">0</parameter>
<parameter name="storeconfigs" condition="int">0</parameter>
<parameter name="sub_steps" condition="int">5</parameter>
<parameter name="substeps" condition="int">5</parameter>
<parameter name="tau" condition="au">1.5000e-01</parameter>
<parameter name="time_step" condition="au">1.5000e-01</parameter>
<parameter name="timestep" condition="au">1.5000e-01</parameter>
<parameter name="use_drift" condition="string">no</parameter>
<parameter name="usedrift" condition="string">no</parameter>
<parameter name="walkers" condition="int">1</parameter>
<parameter name="warmup_steps" condition="int">0</parameter>
<parameter name="warmupsteps" condition="int">0</parameter>
  DumpConfig==false Nothing (configurations, state) will be saved.
  Walker Samples are dumped every 1 steps.
</vmc>
  EstimatorManagerBase::add replace LocalEnergy estimator.
  EstimatorManagerBase::add replace LocalEnergy estimator.
<optimization-report>
<vmc stage="main" blocks="200">
  Cannot make clones again. Use existing 1 clones
  Initial partition of walkers 0 1 
  Using Particle by Particle moves
  Walker moves without drift
  Total Sample Size   =512000
  Walker distribution on root = 0 1 
  Using Locality Approximation
===== Memory Usage after the buffer registration =====
Available memory on node 0, free + buffers : 84500 MB
Memory footprint by rank 0 on node 0       : 93 MB
==================================================
====================================================
  SimpleFixedNodeBranch::finalize after a VMC block
    QMC counter        = 12
    time step          = 0.15
    reference energy   = -15.8499
    reference variance = 0.208298
====================================================
  Execution time = 2.3120e+00
</vmc>
<opt stage="setup">
  <log>
   Reading configurations from h5FileRoot O.log.s012
[...]
  Execution time = 2.3306e+00
</vmc>
<opt stage="setup">
  <log>
   Reading configurations from h5FileRoot O.log.s017
  QMCCostFunction is created with 1 threads.
  Using Nonlocal PP in Opt: NonLocalECP
   Number of samples loaded to each thread : 500 
  VMC Eavg = -1.5853e+01
  VMC Evar = 2.6642e-01
  Total weights = 5.1200e+05
  Execution time = 7.7389e-01
  </log>
</opt>
<opt stage="main" walkers="512000">
  <log>

*****************************************
Building overlap and Hamiltonian matrices
*****************************************

Among totally 30 optimized parameters, largest LM parameter change : 8.3277e-03 at parameter 29

******************************************************************************
Init Cost =  -1.5047e+01    New Cost =  -1.5047e+01  Delta Cost =  -2.2350e-05
******************************************************************************

The new set of parameters is valid. Updating the trial wave function!

*****************************************************************************
Applying the update for shift_i =   1.0000e-02     and shift_s =   7.8125e-03
*****************************************************************************
  Execution time = 3.8766e+00
  </log>
  <optVariables href="O.log.s017.opt.xml">
uu_0 2.3570e-01 1 1  ON 0
uu_1 1.1496e-01 1 1  ON 1
uu_2 2.3489e-02 1 1  ON 2
uu_3 -4.0781e-02 1 1  ON 3
uu_4 -8.2552e-02 1 1  ON 4
uu_5 -1.0574e-01 1 1  ON 5
uu_6 -1.1340e-01 1 1  ON 6
uu_7 -1.0738e-01 1 1  ON 7
uu_8 -8.6928e-02 1 1  ON 8
uu_9 -6.0588e-02 1 1  ON 9
ud_0 4.6061e-01 1 1  ON 10
ud_1 2.4371e-01 1 1  ON 11
ud_2 1.1174e-01 1 1  ON 12
ud_3 2.5028e-02 1 1  ON 13
ud_4 -3.2799e-02 1 1  ON 14
ud_5 -6.9255e-02 1 1  ON 15
ud_6 -8.8950e-02 1 1  ON 16
ud_7 -9.3964e-02 1 1  ON 17
ud_8 -8.5272e-02 1 1  ON 18
ud_9 -6.6885e-02 1 1  ON 19
eO_0 -6.4535e-01 1 1  ON 20
eO_1 -5.0720e-01 1 1  ON 21
eO_2 -2.4836e-01 1 1  ON 22
eO_3 -1.2643e-02 1 1  ON 23
eO_4 1.5569e-01 1 1  ON 24
eO_5 2.5871e-01 1 1  ON 25
eO_6 3.0294e-01 1 1  ON 26
eO_7 2.9742e-01 1 1  ON 27
eO_8 2.5601e-01 1 1  ON 28
eO_9 1.4022e-01 1 1  ON 29
  </optVariables>
   Restore the number of walkers to 1, removing 0 walkers.
</opt>
</optimization-report>
  QMC Execution time = 3.8877e+00 secs 
  Reusing QMCFixedSampleLinearOptimize
 Using QMCCostFunction::QMCCostFunction

=========================================================
  Start QMCFixedSampleLinearOptimize
  File Root O.log.s018 append = no 
=========================================================
  Skip QMCDriver::putQMCInfo 
  Resetting Properties of the walkers 1 x 13

=========================================================
  Start VMC
  File Root O.log.s018 append = no 
=========================================================
Using existing walkers 
  Resetting Properties of the walkers 1 x 13

<vmc function="put">
  qmc_counter=7  my_counter=17
  time step      = 1.5000e-01
  blocks         = 200
  steps          = 3
  substeps       = 5
  current        = 0
  target samples = 5.1200e+05
  walkers/mpi    = 1

  stepsbetweensamples = 1
<parameter name="blocks" condition="int">200</parameter>
<parameter name="blocks_between_recompute" condition="int">0</parameter>
<parameter name="check_properties" condition="int">100</parameter>
<parameter name="checkproperties" condition="int">100</parameter>
<parameter name="current" condition="int">0</parameter>
<parameter name="dmcwalkersperthread" condition="real">5.0000e+02</parameter>
<parameter name="maxcpusecs" condition="real">3.6000e+05</parameter>
<parameter name="record_configs" condition="int">0</parameter>
<parameter name="record_walkers" condition="int">1</parameter>
<parameter name="recordconfigs" condition="int">0</parameter>
<parameter name="recordwalkers" condition="int">1</parameter>
<parameter name="rewind" condition="int">0</parameter>
<parameter name="samples" condition="real">5.1200e+05</parameter>
<parameter name="samplesperthread" condition="real">5.0000e+02</parameter>
<parameter name="steps" condition="int">3</parameter>
<parameter name="stepsbetweensamples" condition="int">1</parameter>
<parameter name="store_configs" condition="int">0</parameter>
<parameter name="storeconfigs" condition="int">0</parameter>
<parameter name="sub_steps" condition="int">5</parameter>
<parameter name="substeps" condition="int">5</parameter>
<parameter name="tau" condition="au">1.5000e-01</parameter>
<parameter name="time_step" condition="au">1.5000e-01</parameter>
<parameter name="timestep" condition="au">1.5000e-01</parameter>
<parameter name="use_drift" condition="string">no</parameter>
<parameter name="usedrift" condition="string">no</parameter>
<parameter name="walkers" condition="int">1</parameter>
<parameter name="warmup_steps" condition="int">0</parameter>
<parameter name="warmupsteps" condition="int">0</parameter>
  DumpConfig==false Nothing (configurations, state) will be saved.
  Walker Samples are dumped every 1 steps.
</vmc>
  EstimatorManagerBase::add replace LocalEnergy estimator.
  EstimatorManagerBase::add replace LocalEnergy estimator.
<optimization-report>
<vmc stage="main" blocks="200">
  Cannot make clones again. Use existing 1 clones
  Initial partition of walkers 0 1 
  Using Particle by Particle moves
  Walker moves without drift
  Total Sample Size   =512000
  Walker distribution on root = 0 1 
  Using Locality Approximation
===== Memory Usage after the buffer registration =====
Available memory on node 0, free + buffers : 84482 MB
Memory footprint by rank 0 on node 0       : 103 MB
==================================================
====================================================
  SimpleFixedNodeBranch::finalize after a VMC block
    QMC counter        = 18
    time step          = 0.15
    reference energy   = -15.8645
    reference variance = 0.369418
====================================================
  Execution time = 2.3104e+00
</vmc>
<opt stage="setup">
  <log>
   Reading configurations from h5FileRoot O.log.s018
  QMCCostFunction is created with 1 threads.
  Using Nonlocal PP in Opt: NonLocalECP
   Number of samples loaded to each thread : 500 
  VMC Eavg = -1.5854e+01
  VMC Evar = 2.5821e-01
  Total weights = 5.1200e+05
  Execution time = 7.6458e-01
  </log>
</opt>
<opt stage="main" walkers="512000">
  <log>

*****************************************
Building overlap and Hamiltonian matrices
*****************************************

Among totally 30 optimized parameters, largest LM parameter change : 1.2113e-02 at parameter 29

******************************************************************************
Init Cost =  -1.5048e+01    New Cost =  -1.5048e+01  Delta Cost =  -3.4260e-05
******************************************************************************

The new set of parameters is valid. Updating the trial wave function!

*****************************************************************************
Applying the update for shift_i =   1.0000e-02     and shift_s =   7.8125e-03
*****************************************************************************
  Execution time = 3.8791e+00
  </log>
  <optVariables href="O.log.s018.opt.xml">
uu_0 2.3491e-01 1 1  ON 0
uu_1 1.1410e-01 1 1  ON 1
uu_2 2.2707e-02 1 1  ON 2
uu_3 -4.1308e-02 1 1  ON 3
uu_4 -8.3058e-02 1 1  ON 4
uu_5 -1.0634e-01 1 1  ON 5
uu_6 -1.1398e-01 1 1  ON 6
uu_7 -1.0720e-01 1 1  ON 7
uu_8 -8.7991e-02 1 1  ON 8
uu_9 -5.9062e-02 1 1  ON 9
ud_0 4.6316e-01 1 1  ON 10
ud_1 2.4579e-01 1 1  ON 11
ud_2 1.1427e-01 1 1  ON 12
ud_3 2.7913e-02 1 1  ON 13
ud_4 -2.9766e-02 1 1  ON 14
ud_5 -6.6752e-02 1 1  ON 15
ud_6 -8.6618e-02 1 1  ON 16
ud_7 -9.2379e-02 1 1  ON 17
ud_8 -8.3610e-02 1 1  ON 18
ud_9 -6.4423e-02 1 1  ON 19
eO_0 -6.4842e-01 1 1  ON 20
eO_1 -5.0942e-01 1 1  ON 21
eO_2 -2.5118e-01 1 1  ON 22
eO_3 -1.5157e-02 1 1  ON 23
eO_4 1.5292e-01 1 1  ON 24
eO_5 2.5390e-01 1 1  ON 25
eO_6 2.9743e-01 1 1  ON 26
eO_7 2.9669e-01 1 1  ON 27
eO_8 2.6168e-01 1 1  ON 28
eO_9 1.5233e-01 1 1  ON 29
  </optVariables>
   Restore the number of walkers to 1, removing 0 walkers.
</opt>
</optimization-report>
  QMC Execution time = 3.8908e+00 secs 
  Reusing QMCFixedSampleLinearOptimize
 Using QMCCostFunction::QMCCostFunction

=========================================================
  Start QMCFixedSampleLinearOptimize
  File Root O.log.s019 append = no 
=========================================================
  Skip QMCDriver::putQMCInfo 
  Resetting Properties of the walkers 1 x 13

=========================================================
  Start VMC
  File Root O.log.s019 append = no 
=========================================================
Using existing walkers 
  Resetting Properties of the walkers 1 x 13

<vmc function="put">
  qmc_counter=8  my_counter=18
  time step      = 1.5000e-01
  blocks         = 200
  steps          = 3
  substeps       = 5
  current        = 0
  target samples = 5.1200e+05
  walkers/mpi    = 1

  stepsbetweensamples = 1
<parameter name="blocks" condition="int">200</parameter>
<parameter name="blocks_between_recompute" condition="int">0</parameter>
<parameter name="check_properties" condition="int">100</parameter>
<parameter name="checkproperties" condition="int">100</parameter>
<parameter name="current" condition="int">0</parameter>
<parameter name="dmcwalkersperthread" condition="real">5.0000e+02</parameter>
<parameter name="maxcpusecs" condition="real">3.6000e+05</parameter>
<parameter name="record_configs" condition="int">0</parameter>
<parameter name="record_walkers" condition="int">1</parameter>
<parameter name="recordconfigs" condition="int">0</parameter>
<parameter name="recordwalkers" condition="int">1</parameter>
<parameter name="rewind" condition="int">0</parameter>
<parameter name="samples" condition="real">5.1200e+05</parameter>
<parameter name="samplesperthread" condition="real">5.0000e+02</parameter>
<parameter name="steps" condition="int">3</parameter>
<parameter name="stepsbetweensamples" condition="int">1</parameter>
<parameter name="store_configs" condition="int">0</parameter>
<parameter name="storeconfigs" condition="int">0</parameter>
<parameter name="sub_steps" condition="int">5</parameter>
<parameter name="substeps" condition="int">5</parameter>
<parameter name="tau" condition="au">1.5000e-01</parameter>
<parameter name="time_step" condition="au">1.5000e-01</parameter>
<parameter name="timestep" condition="au">1.5000e-01</parameter>
<parameter name="use_drift" condition="string">no</parameter>
<parameter name="usedrift" condition="string">no</parameter>
<parameter name="walkers" condition="int">1</parameter>
<parameter name="warmup_steps" condition="int">0</parameter>
<parameter name="warmupsteps" condition="int">0</parameter>
  DumpConfig==false Nothing (configurations, state) will be saved.
  Walker Samples are dumped every 1 steps.
</vmc>
  EstimatorManagerBase::add replace LocalEnergy estimator.
  EstimatorManagerBase::add replace LocalEnergy estimator.
<optimization-report>
<vmc stage="main" blocks="200">
  Cannot make clones again. Use existing 1 clones
  Initial partition of walkers 0 1 
  Using Particle by Particle moves
  Walker moves without drift
  Total Sample Size   =512000
  Walker distribution on root = 0 1 
  Using Locality Approximation
===== Memory Usage after the buffer registration =====
Available memory on node 0, free + buffers : 84479 MB
Memory footprint by rank 0 on node 0       : 105 MB
==================================================
====================================================
  SimpleFixedNodeBranch::finalize after a VMC block
    QMC counter        = 19
    time step          = 0.15
    reference energy   = -15.8807
    reference variance = 0.209351
====================================================
  Execution time = 2.3038e+00
</vmc>
<opt stage="setup">
  <log>
   Reading configurations from h5FileRoot O.log.s019
  QMCCostFunction is created with 1 threads.
  Using Nonlocal PP in Opt: NonLocalECP
   Number of samples loaded to each thread : 500 
  VMC Eavg = -1.5853e+01
  VMC Evar = 2.6927e-01
  Total weights = 5.1200e+05
  Execution time = 7.8161e-01
  </log>
</opt>
<opt stage="main" walkers="512000">
  <log>

*****************************************
Building overlap and Hamiltonian matrices
*****************************************

Among totally 30 optimized parameters, largest LM parameter change : 8.0698e-03 at parameter 29

******************************************************************************
Init Cost =  -1.5047e+01    New Cost =  -1.5047e+01  Delta Cost =   1.7523e-05
******************************************************************************

The new set of parameters is valid. Updating the trial wave function!

*****************************************************************************
Applying the update for shift_i =   1.0000e-02     and shift_s =   7.8125e-03
*****************************************************************************
  Execution time = 3.8741e+00
  </log>
  <optVariables href="O.log.s019.opt.xml">
uu_0 2.3436e-01 1 1  ON 0
uu_1 1.1319e-01 1 1  ON 1
uu_2 2.1604e-02 1 1  ON 2
uu_3 -4.2409e-02 1 1  ON 3
uu_4 -8.4139e-02 1 1  ON 4
uu_5 -1.0763e-01 1 1  ON 5
uu_6 -1.1490e-01 1 1  ON 6
uu_7 -1.0828e-01 1 1  ON 7
uu_8 -8.8361e-02 1 1  ON 8
uu_9 -5.9496e-02 1 1  ON 9
ud_0 4.6594e-01 1 1  ON 10
ud_1 2.4867e-01 1 1  ON 11
ud_2 1.1650e-01 1 1  ON 12
ud_3 2.9783e-02 1 1  ON 13
ud_4 -2.8306e-02 1 1  ON 14
ud_5 -6.4794e-02 1 1  ON 15
ud_6 -8.4790e-02 1 1  ON 16
ud_7 -9.0114e-02 1 1  ON 17
ud_8 -8.0612e-02 1 1  ON 18
ud_9 -6.2008e-02 1 1  ON 19
eO_0 -6.5129e-01 1 1  ON 20
eO_1 -5.1199e-01 1 1  ON 21
eO_2 -2.5394e-01 1 1  ON 22
eO_3 -1.7803e-02 1 1  ON 23
eO_4 1.5052e-01 1 1  ON 24
eO_5 2.5269e-01 1 1  ON 25
eO_6 2.9597e-01 1 1  ON 26
eO_7 2.9604e-01 1 1  ON 27
eO_8 2.6412e-01 1 1  ON 28
eO_9 1.6040e-01 1 1  ON 29
  </optVariables>
   Restore the number of walkers to 1, removing 0 walkers.
</opt>
</optimization-report>
  QMC Execution time = 3.8852e+00 secs 
  Reusing QMCFixedSampleLinearOptimize
 Using QMCCostFunction::QMCCostFunction

=========================================================
  Start QMCFixedSampleLinearOptimize
  File Root O.log.s020 append = no 
=========================================================
  Skip QMCDriver::putQMCInfo 
  Resetting Properties of the walkers 1 x 13

=========================================================
  Start VMC
  File Root O.log.s020 append = no 
=========================================================
Using existing walkers 
  Resetting Properties of the walkers 1 x 13

<vmc function="put">
  qmc_counter=9  my_counter=19
  time step      = 1.5000e-01
  blocks         = 200
  steps          = 3
  substeps       = 5
  current        = 0
  target samples = 5.1200e+05
  walkers/mpi    = 1

  stepsbetweensamples = 1
<parameter name="blocks" condition="int">200</parameter>
<parameter name="blocks_between_recompute" condition="int">0</parameter>
<parameter name="check_properties" condition="int">100</parameter>
<parameter name="checkproperties" condition="int">100</parameter>
<parameter name="current" condition="int">0</parameter>
<parameter name="dmcwalkersperthread" condition="real">5.0000e+02</parameter>
<parameter name="maxcpusecs" condition="real">3.6000e+05</parameter>
<parameter name="record_configs" condition="int">0</parameter>
<parameter name="record_walkers" condition="int">1</parameter>
<parameter name="recordconfigs" condition="int">0</parameter>
<parameter name="recordwalkers" condition="int">1</parameter>
<parameter name="rewind" condition="int">0</parameter>
<parameter name="samples" condition="real">5.1200e+05</parameter>
<parameter name="samplesperthread" condition="real">5.0000e+02</parameter>
<parameter name="steps" condition="int">3</parameter>
<parameter name="stepsbetweensamples" condition="int">1</parameter>
<parameter name="store_configs" condition="int">0</parameter>
<parameter name="storeconfigs" condition="int">0</parameter>
<parameter name="sub_steps" condition="int">5</parameter>
<parameter name="substeps" condition="int">5</parameter>
<parameter name="tau" condition="au">1.5000e-01</parameter>
<parameter name="time_step" condition="au">1.5000e-01</parameter>
<parameter name="timestep" condition="au">1.5000e-01</parameter>
<parameter name="use_drift" condition="string">no</parameter>
<parameter name="usedrift" condition="string">no</parameter>
<parameter name="walkers" condition="int">1</parameter>
<parameter name="warmup_steps" condition="int">0</parameter>
<parameter name="warmupsteps" condition="int">0</parameter>
  DumpConfig==false Nothing (configurations, state) will be saved.
  Walker Samples are dumped every 1 steps.
</vmc>
  EstimatorManagerBase::add replace LocalEnergy estimator.
  EstimatorManagerBase::add replace LocalEnergy estimator.
<optimization-report>
<vmc stage="main" blocks="200">
  Cannot make clones again. Use existing 1 clones
  Initial partition of walkers 0 1 
  Using Particle by Particle moves
  Walker moves without drift
  Total Sample Size   =512000
  Walker distribution on root = 0 1 
  Using Locality Approximation
===== Memory Usage after the buffer registration =====
Available memory on node 0, free + buffers : 84477 MB
Memory footprint by rank 0 on node 0       : 107 MB
==================================================
====================================================
  SimpleFixedNodeBranch::finalize after a VMC block
    QMC counter        = 20
    time step          = 0.15
    reference energy   = -15.8635
    reference variance = 0.231803
====================================================
  Execution time = 2.3139e+00
</vmc>
<opt stage="setup">
  <log>
   Reading configurations from h5FileRoot O.log.s020
  QMCCostFunction is created with 1 threads.
  Using Nonlocal PP in Opt: NonLocalECP
   Number of samples loaded to each thread : 500 
  VMC Eavg = -1.5853e+01
  VMC Evar = 2.5266e-01
  Total weights = 5.1200e+05
  Execution time = 7.6623e-01
  </log>
</opt>
<opt stage="main" walkers="512000">
  <log>

*****************************************
Building overlap and Hamiltonian matrices
*****************************************

Among totally 30 optimized parameters, largest LM parameter change : 6.4348e-03 at parameter 29

******************************************************************************
Init Cost =  -1.5048e+01    New Cost =  -1.5048e+01  Delta Cost =   8.2600e-07
******************************************************************************

The new set of parameters is valid. Updating the trial wave function!

*****************************************************************************
Applying the update for shift_i =   1.0000e-02     and shift_s =   7.8125e-03
*****************************************************************************
  Execution time = 3.8463e+00
  </log>
  <optVariables href="O.log.s020.opt.xml">
uu_0 2.3380e-01 1 1  ON 0
uu_1 1.1222e-01 1 1  ON 1
uu_2 2.0602e-02 1 1  ON 2
uu_3 -4.3423e-02 1 1  ON 3
uu_4 -8.5177e-02 1 1  ON 4
uu_5 -1.0873e-01 1 1  ON 5
uu_6 -1.1666e-01 1 1  ON 6
uu_7 -1.1042e-01 1 1  ON 7
uu_8 -8.9762e-02 1 1  ON 8
uu_9 -6.1480e-02 1 1  ON 9
ud_0 4.6950e-01 1 1  ON 10
ud_1 2.5213e-01 1 1  ON 11
ud_2 1.1991e-01 1 1  ON 12
ud_3 3.2806e-02 1 1  ON 13
ud_4 -2.5421e-02 1 1  ON 14
ud_5 -6.2563e-02 1 1  ON 15
ud_6 -8.2471e-02 1 1  ON 16
ud_7 -8.9198e-02 1 1  ON 17
ud_8 -8.1570e-02 1 1  ON 18
ud_9 -6.3560e-02 1 1  ON 19
eO_0 -6.5235e-01 1 1  ON 20
eO_1 -5.1393e-01 1 1  ON 21
eO_2 -2.5512e-01 1 1  ON 22
eO_3 -1.9133e-02 1 1  ON 23
eO_4 1.4938e-01 1 1  ON 24
eO_5 2.5179e-01 1 1  ON 25
eO_6 2.9482e-01 1 1  ON 26
eO_7 2.9267e-01 1 1  ON 27
eO_8 2.6155e-01 1 1  ON 28
eO_9 1.6683e-01 1 1  ON 29
  </optVariables>
   Restore the number of walkers to 1, removing 0 walkers.
</opt>
</optimization-report>
  QMC Execution time = 3.8565e+00 secs 
  Total Execution time = 6.3488e+01 secs

=========================================================
  A new xml input file : O.log.s020.cont.xml
TACC:  Shutdown complete. Exiting. 
