TACC:  Starting up job 2776197 
TACC:  Starting parallel tasks... 
  Input file(s): Al.log.qmc.in-wfj.xml 

=====================================================
                    QMCPACK 3.6.0

       (c) Copyright 2003-  QMCPACK developers

                    Please cite:
 J. Kim et al. J. Phys. Cond. Mat. 30 195901 (2018)
      https://doi.org/10.1088/1361-648X/aab9c3

  Git branch: develop
  Last git commit: 8025d469c3748fa6a35dc38bfa5b192a28e9e66e
  Last git commit date: Mon Jan 14 15:08:34 2019 -0600
  Last git commit subject: Merge pull request #1314 from prckent/update_citations
=====================================================
  Global options 

  MPI Nodes             = 1024
  MPI Nodes per group   = 1024
  MPI Group ID          = 0
  OMP 1st level threads = 1
  OMP nested threading disabled or only 1 thread on the 2nd level

  Precision used in this calculation, see definitions in the manual:
  Base precision      = double
  Full precision      = double

  Structure-of-arrays (SoA) optimization enabled

  Input XML = Al.log.qmc.in-wfj.xml

  Project = Al.log
  date    = 2019-01-16 15:45:12 CST
  host    = c455-072.stampede2.tacc.utexas.edu

 Random Number
 -------------
  Offset for the random number seeds based on time: 488

  Range of prime numbers to use as seeds over processors and threads = 3511-12671


 Particle Set 
 ------------
  Name: ion0
  All the species have the same mass 1
  Particle set size: 1

 Particle Set 
 ------------
  Name: e
  All the species have the same mass 1
  Particle set size: 11

 Wavefunction setup: 
 ------------------- 
  Name: psi0
  LCAO: SoaAtomicBasisSet<MultiQuintic,0>

  Distance table for similar particles (A-A):
    source/target: e
    Using structure-of-arrays (SoA) data layout
    Distance computations use open boundary conditions in 3D.


  Distance table for dissimilar particles (A-B):
    source: ion0  target: e
    Using structure-of-arrays (SoA) data layout
    Distance computations use open boundary conditions in 3D.

Reading BasisSet from HDF5 file:Al.log.orbs.h5
<input node="atomicBasisSet" name="Gaussian" expandYlm="Gamess" angular="cartesian" elementType="Al" normalized="no" type="Numerical" expM="0" />
  AO BasisSet for Al
   Angular momentum expanded in cartesian functions x^lx y^ly z^lz according to Gamess
   Grid is created by the input paremters in h5
    Using log grid ri = 1e-06 rf = 100 npts = 1001
   R(n,l,m,s) 0 0 0 0
   R(n,l,m,s) 1 0 0 0
   R(n,l,m,s) 2 0 0 0
   R(n,l,m,s) 3 0 0 0
   R(n,l,m,s) 4 0 0 0
   R(n,l,m,s) 5 0 0 0
   R(n,l,m,s) 6 1 0 0
   R(n,l,m,s) 7 1 0 0
   R(n,l,m,s) 8 1 0 0
   R(n,l,m,s) 9 1 0 0
   R(n,l,m,s) 10 1 0 0
   R(n,l,m,s) 11 1 0 0
   R(n,l,m,s) 12 2 0 0
   R(n,l,m,s) 13 2 0 0
   R(n,l,m,s) 14 2 0 0
   R(n,l,m,s) 15 2 0 0
   R(n,l,m,s) 16 3 0 0
   R(n,l,m,s) 17 3 0 0
Expanding Ylm (angular function) according to Gamess using cartesian gaussians
Adding 1 cartesian gaussian orbitals for l= 0
Adding 1 cartesian gaussian orbitals for l= 0
Adding 1 cartesian gaussian orbitals for l= 0
Adding 1 cartesian gaussian orbitals for l= 0
Adding 1 cartesian gaussian orbitals for l= 0
Adding 1 cartesian gaussian orbitals for l= 0
Adding 3 cartesian gaussian orbitals for l= 1
Adding 3 cartesian gaussian orbitals for l= 1
Adding 3 cartesian gaussian orbitals for l= 1
Adding 3 cartesian gaussian orbitals for l= 1
Adding 3 cartesian gaussian orbitals for l= 1
Adding 3 cartesian gaussian orbitals for l= 1
Adding 6 cartesian gaussian orbitals for l= 2
Adding 6 cartesian gaussian orbitals for l= 2
Adding 6 cartesian gaussian orbitals for l= 2
Adding 6 cartesian gaussian orbitals for l= 2
Adding 10 cartesian gaussian orbitals for l= 3
Adding 10 cartesian gaussian orbitals for l= 3
   Maximum Angular Momentum  = 3
   Number of Radial functors = 18
   Basis size                = 68

  Created SPOSet builder named 'LCAOBSet' of type molecularorbital
Reuse SPOSetBuilder "LCAOBSet" type MolecularOrbital
  Building SPOSet '' with '' basis set.
Reuse SPOSetBuilder "LCAOBSet" type MolecularOrbital
  Building SPOSet '' with '' basis set.
  Creating a determinant updet group=0 sposet=updet
  Reusing a SPO set updet
Using DiracDeterminant
Using rank-1 Sherman-Morrison Fahy update

  Creating a determinant downdet group=1 sposet=downdet
  Reusing a SPO set downdet
Using DiracDeterminant
Using rank-1 Sherman-Morrison Fahy update

  FermionWF = SlaterDet
  RadialJastrowBuilder adds a functor with cusp = -0.25
 size = 10 parameters 
 cusp = -0.25
 rcut = 9.5
Parameter     Name      Value
uu_0 0.195647 1 1  ON 0
uu_1 0.0730603 1 1  ON 1
uu_2 0.0239409 1 1  ON 2
uu_3 -0.000870645 1 1  ON 3
uu_4 -0.0280367 1 1  ON 4
uu_5 -0.0430665 1 1  ON 5
uu_6 -0.0599008 1 1  ON 6
uu_7 -0.0717298 1 1  ON 7
uu_8 -0.0708081 1 1  ON 8
uu_9 -0.053996 1 1  ON 9
  RadialJastrowBuilder adds a functor with cusp = -0.5
 size = 10 parameters 
 cusp = -0.5
 rcut = 9.5
Parameter     Name      Value
ud_0 0.303156 1 1  ON 0
ud_1 0.155282 1 1  ON 1
ud_2 0.0933309 1 1  ON 2
ud_3 0.0510234 1 1  ON 3
ud_4 0.00676124 1 1  ON 4
ud_5 -0.0258676 1 1  ON 5
ud_6 -0.0572435 1 1  ON 6
ud_7 -0.0739046 1 1  ON 7
ud_8 -0.0779709 1 1  ON 8
ud_9 -0.0649997 1 1  ON 9
 size = 10 parameters 
 cusp = 0
 rcut = 9.5
Parameter     Name      Value
eAl_0 -1.63078 1 1  ON 0
eAl_1 -0.935759 1 1  ON 1
eAl_2 -0.57413 1 1  ON 2
eAl_3 -0.209491 1 1  ON 3
eAl_4 0.0845736 1 1  ON 4
eAl_5 0.349083 1 1  ON 5
eAl_6 0.560539 1 1  ON 6
eAl_7 0.687908 1 1  ON 7
eAl_8 0.672404 1 1  ON 8
eAl_9 0.512998 1 1  ON 9
Expected 26 parameters, but found 0 in PolynomialFunctor3D.
Parameter     Name      Value
uuAl_0 0 1 1  ON 0
uuAl_1 0 1 1  ON 1
uuAl_2 0 1 1  ON 2
uuAl_3 0 1 1  ON 3
uuAl_4 0 1 1  ON 4
uuAl_5 0 1 1  ON 5
uuAl_6 0 1 1  ON 6
uuAl_7 0 1 1  ON 7
uuAl_8 0 1 1  ON 8
uuAl_9 0 1 1  ON 9
uuAl_10 0 1 1  ON 10
uuAl_11 0 1 1  ON 11
uuAl_12 0 1 1  ON 12
uuAl_13 0 1 1  ON 13
uuAl_14 0 1 1  ON 14
uuAl_15 0 1 1  ON 15
uuAl_16 0 1 1  ON 16
uuAl_17 0 1 1  ON 17
uuAl_18 0 1 1  ON 18
uuAl_19 0 1 1  ON 19
uuAl_20 0 1 1  ON 20
uuAl_21 0 1 1  ON 21
uuAl_22 0 1 1  ON 22
uuAl_23 0 1 1  ON 23
uuAl_24 0 1 1  ON 24
uuAl_25 0 1 1  ON 25
Expected 26 parameters, but found 0 in PolynomialFunctor3D.
Parameter     Name      Value
udAl_0 0 1 1  ON 0
udAl_1 0 1 1  ON 1
udAl_2 0 1 1  ON 2
udAl_3 0 1 1  ON 3
udAl_4 0 1 1  ON 4
udAl_5 0 1 1  ON 5
udAl_6 0 1 1  ON 6
udAl_7 0 1 1  ON 7
udAl_8 0 1 1  ON 8
udAl_9 0 1 1  ON 9
udAl_10 0 1 1  ON 10
udAl_11 0 1 1  ON 11
udAl_12 0 1 1  ON 12
udAl_13 0 1 1  ON 13
udAl_14 0 1 1  ON 14
udAl_15 0 1 1  ON 15
udAl_16 0 1 1  ON 16
udAl_17 0 1 1  ON 17
udAl_18 0 1 1  ON 18
udAl_19 0 1 1  ON 19
udAl_20 0 1 1  ON 20
udAl_21 0 1 1  ON 21
udAl_22 0 1 1  ON 22
udAl_23 0 1 1  ON 23
udAl_24 0 1 1  ON 24
udAl_25 0 1 1  ON 25
  QMCHamiltonian::addOperator Kinetic to H, physical Hamiltonian 
  QMCHamiltonian::addOperator ElecElec to H, physical Hamiltonian 
QMCHamiltonian::addOperatorType added type coulomb named ElecElec
  CoulombAA for ion0 is not created.  Number of particles == 1 and nonPeriodic

  ECPotential builder for pseudopotential 

  Adding pseudopotential for Al
   Linear grid  ri=0 rf=10 npts = 10001
    ECPComponentBuilder::buildSemiLocalAndLocal 
    Assuming Hartree unit
   Number of angular momentum channels 2
   Maximum angular momentum channel 1
   Creating a Linear Grid Rmax=0.806498
  Using global grid with delta = 0.001
   Making L=1 a local potential with a radial cutoff of 9.999
    Non-local pseudopotential parameters
    Maximum angular mementum = 0
    Number of non-local channels = 1
       l(0)=0
    Cutoff radius = 0.807
    Spherical grids and weights: 
                        1                 0                 0       0.08333333333
                       -1   1.224646799e-16                 0       0.08333333333
             0.4472135955       0.894427191                 0       0.08333333333
            -0.4472135955      0.7236067977      0.5257311121       0.08333333333
             0.4472135955      0.2763932023      0.8506508084       0.08333333333
            -0.4472135955     -0.2763932023      0.8506508084       0.08333333333
             0.4472135955     -0.7236067977      0.5257311121       0.08333333333
            -0.4472135955      -0.894427191   1.095357397e-16       0.08333333333
             0.4472135955     -0.7236067977     -0.5257311121       0.08333333333
            -0.4472135955     -0.2763932023     -0.8506508084       0.08333333333
             0.4472135955      0.2763932023     -0.8506508084       0.08333333333
            -0.4472135955      0.7236067977     -0.5257311121       0.08333333333
    Maximum cutoff radius 0.807
  QMCHamiltonian::addOperator LocalECP to H, physical Hamiltonian 

  Using NonLocalECP potential 
    Maximum grid on a sphere for NonLocalECPotential: 12
  QMCHamiltonian::addOperator NonLocalECP to H, physical Hamiltonian 
QMCHamiltonian::addOperatorType added type pseudo named PseudoPot

  QMCHamiltonian::add2WalkerProperty added
    4 to P::PropertyList 
    0 to P::Collectables 
    starting Index of the observables in P::PropertyList = 9
ParticleSetPool::randomize 
<init source="ion0" target="e">
</init>
  Initialization Execution time = 0.3934 secs
=========================================================
 Summary of QMC systems 
=========================================================
ParticleSetPool has: 

  ParticleSet e : 0 6 11 

    11

    u  4.1037849795e+00  1.3715025690e+00  2.5392618349e+00
    u -8.7174778448e-01 -3.0584612038e+00  2.7276855079e+00
    u -2.6910271564e+00 -3.7025947091e-01  1.7266735033e+00
    u  2.6392130864e-01  1.1733740614e-01  6.3453217508e+00
    u  1.5891230876e+00 -2.1621264229e+00  1.9055682699e+00
    u -2.1711744500e+00  3.1023359122e+00  9.7448873620e-01
    d -1.1700091589e+00 -9.2814934234e-01 -1.9723189509e+00
    d  1.9091442097e-03 -1.4153183618e+00  1.3496500459e+00
    d -1.0038286018e+00 -1.0525354995e+00  8.4276641834e-01
    d  1.2060916584e+00 -1.6791324232e+00  2.1099067784e+00
    (... and 1 more particle positions ...)

  ParticleSet ion0 : 0 1 

    1

    Al  0.0000000000e+00  0.0000000000e+00  0.0000000000e+00

  Hamiltonian h0
  Kinetic         Kinetic energy
  ElecElec        CoulombAA source/target e

  LocalECP        LocalECPotential: ion0
  NonLocalECP     NonLocalECPotential: ion0

=========================================================
  Start VMC
  File Root Al.log.s000 append = no 
=========================================================
  Adding 1 walkers to 0 existing sets
  Total number of walkers: 1.0240000000e+03
  Total weight: 1.0240000000e+03
  Resetting Properties of the walkers 1 x 13

<vmc function="put">
  qmc_counter=0  my_counter=0
  time step      = 1.5000000000e-01
  blocks         = 200
  steps          = 1
  substeps       = 5
  current        = 0
  target samples = 1.0240000000e+03
  walkers/mpi    = 1

  stepsbetweensamples = 200
<parameter name="blocks" condition="int">200</parameter>
<parameter name="blocks_between_recompute" condition="int">0</parameter>
<parameter name="check_properties" condition="int">100</parameter>
<parameter name="checkproperties" condition="int">100</parameter>
<parameter name="current" condition="int">0</parameter>
<parameter name="dmcwalkersperthread" condition="real">1.0000000000e+00</parameter>
<parameter name="maxcpusecs" condition="real">3.6000000000e+05</parameter>
<parameter name="record_configs" condition="int">0</parameter>
<parameter name="record_walkers" condition="int">200</parameter>
<parameter name="recordconfigs" condition="int">0</parameter>
<parameter name="recordwalkers" condition="int">200</parameter>
<parameter name="rewind" condition="int">0</parameter>
<parameter name="samples" condition="real">1.0240000000e+03</parameter>
<parameter name="samplesperthread" condition="real">1.0000000000e+00</parameter>
<parameter name="steps" condition="int">1</parameter>
<parameter name="stepsbetweensamples" condition="int">200</parameter>
<parameter name="store_configs" condition="int">0</parameter>
<parameter name="storeconfigs" condition="int">0</parameter>
<parameter name="sub_steps" condition="int">5</parameter>
<parameter name="substeps" condition="int">5</parameter>
<parameter name="tau" condition="au">1.5000000000e-01</parameter>
<parameter name="time_step" condition="au">1.5000000000e-01</parameter>
<parameter name="timestep" condition="au">1.5000000000e-01</parameter>
<parameter name="use_drift" condition="string">no</parameter>
<parameter name="usedrift" condition="string">no</parameter>
<parameter name="walkers" condition="int">1</parameter>
<parameter name="warmup_steps" condition="int">100</parameter>
<parameter name="warmupsteps" condition="int">100</parameter>
  DumpConfig==false Nothing (configurations, state) will be saved.
  Walker Samples are dumped every 200 steps.
</vmc>
  Initial partition of walkers 0 1 

  Using Particle by Particle moves
  Walker moves without drift
  Total Sample Size   =1024
  Walker distribution on root = 0 1 
  Using Locality Approximation
===== Memory Usage after the buffer registration =====
Available memory on node 0, free + buffers : 86211 MB
Memory footprint by rank 0 on node 0       : 71 MB
==================================================
  Anonymous Buffer size per walker : 4832 Bytes.
MEMORY increase 0 MB VMC::resetRun
====================================================
  SimpleFixedNodeBranch::finalize after a VMC block
    QMC counter        = 0
    time step          = 0.15
    reference energy   = -81.3622
    reference variance = 1.6465
====================================================
  QMC Execution time = 1.0018e+00 secs
Loop execution max-interations = 20

=========================================================
  Start QMCFixedSampleLinearOptimize
  File Root Al.log.s001 append = no 
=========================================================
  Skip QMCDriver::putQMCInfo 
  Resetting Properties of the walkers 1 x 13

=========================================================
  Start VMC
  File Root Al.log.s001 append = no 
=========================================================
  Using the current 1 walkers.
  Total number of walkers: 1.0240e+03
  Total weight: 1.0240e+03
  Resetting Properties of the walkers 1 x 13

<vmc function="put">
  qmc_counter=0  my_counter=0
  time step      = 1.5000e-01
  blocks         = 300
  steps          = 2
  substeps       = 5
  current        = 0
  target samples = 5.1200e+05
  walkers/mpi    = 1

  stepsbetweensamples = 1
<parameter name="blocks" condition="int">300</parameter>
<parameter name="blocks_between_recompute" condition="int">0</parameter>
<parameter name="check_properties" condition="int">100</parameter>
<parameter name="checkproperties" condition="int">100</parameter>
<parameter name="current" condition="int">0</parameter>
<parameter name="dmcwalkersperthread" condition="real">5.0000e+02</parameter>
<parameter name="maxcpusecs" condition="real">3.6000e+05</parameter>
<parameter name="record_configs" condition="int">0</parameter>
<parameter name="record_walkers" condition="int">1</parameter>
<parameter name="recordconfigs" condition="int">0</parameter>
<parameter name="recordwalkers" condition="int">1</parameter>
<parameter name="rewind" condition="int">0</parameter>
<parameter name="samples" condition="real">5.1200e+05</parameter>
<parameter name="samplesperthread" condition="real">5.0000e+02</parameter>
<parameter name="steps" condition="int">2</parameter>
<parameter name="stepsbetweensamples" condition="int">1</parameter>
<parameter name="store_configs" condition="int">0</parameter>
<parameter name="storeconfigs" condition="int">0</parameter>
<parameter name="sub_steps" condition="int">5</parameter>
<parameter name="substeps" condition="int">5</parameter>
<parameter name="tau" condition="au">1.5000e-01</parameter>
<parameter name="time_step" condition="au">1.5000e-01</parameter>
<parameter name="timestep" condition="au">1.5000e-01</parameter>
<parameter name="use_drift" condition="string">no</parameter>
<parameter name="usedrift" condition="string">no</parameter>
<parameter name="walkers" condition="int">1</parameter>
<parameter name="warmup_steps" condition="int">0</parameter>
<parameter name="warmupsteps" condition="int">0</parameter>
  DumpConfig==false Nothing (configurations, state) will be saved.
  Walker Samples are dumped every 1 steps.
</vmc>
    Restarting, cummulative properties:
      energy     = -8.1362e+01
      variance   = 0.0000e+00
      r2accepted = 1.0000e-10
      r2proposed = 1.0000e-10
 Using QMCCostFunction::QMCCostFunction
  EstimatorManagerBase::add replace LocalEnergy estimator.
<optimization-report>
<vmc stage="main" blocks="300">
  Cannot make clones again. Use existing 1 clones
  Initial partition of walkers 0 1 

  Using Particle by Particle moves
  Walker moves without drift
  Total Sample Size   =512000
  Walker distribution on root = 0 1 
  Using Locality Approximation
===== Memory Usage after the buffer registration =====
Available memory on node 0, free + buffers : 86179 MB
Memory footprint by rank 0 on node 0       : 72 MB
==================================================
  Anonymous Buffer size per walker : 4832 Bytes.
MEMORY increase 0 MB VMC::resetRun
====================================================
  SimpleFixedNodeBranch::finalize after a VMC block
    QMC counter        = 1
    time step          = 0.15
    reference energy   = -81.2706
    reference variance = 1.50495
====================================================
  Execution time = 2.3013e+00
</vmc>
<opt stage="setup">
  <log>
   Reading configurations from h5FileRoot Al.log.s001
  QMCCostFunction is created with 1 threads.
  Using Nonlocal PP in Opt: NonLocalECP
   Number of samples loaded to each thread : 500 
  VMC Eavg = -8.1303e+01
  VMC Evar = 1.6868e+00
  Total weights = 5.1200e+05
  Execution time = 1.1240e+00
  </log>
</opt>
<opt stage="main" walkers="512000">
  <log>

*****************************************
Building overlap and Hamiltonian matrices
*****************************************

Among totally 82 optimized parameters, largest LM parameter change : 1.7757e-01 at parameter 10

******************************************************************************
Init Cost =  -7.7154e+01    New Cost =  -7.7210e+01  Delta Cost =  -5.5964e-02
******************************************************************************

The new set of parameters is valid. Updating the trial wave function!

*****************************************************************************
Applying the update for shift_i =   1.0000e-02     and shift_s =   2.5000e-01
*****************************************************************************
  Execution time = 4.0292e+00
  </log>
  <optVariables href="Al.log.s001.opt.xml">
uu_0 2.1007e-01 1 1  ON 0
uu_1 7.6242e-02 1 1  ON 1
uu_2 1.9184e-02 1 1  ON 2
uu_3 -2.9815e-03 1 1  ON 3
uu_4 -2.1448e-02 1 1  ON 4
uu_5 -4.0134e-02 1 1  ON 5
uu_6 -4.7668e-02 1 1  ON 6
uu_7 -6.1765e-02 1 1  ON 7
uu_8 -6.2159e-02 1 1  ON 8
uu_9 -5.2750e-02 1 1  ON 9
ud_0 4.8073e-01 1 1  ON 10
ud_1 2.3391e-01 1 1  ON 11
ud_2 1.1622e-01 1 1  ON 12
ud_3 4.1213e-02 1 1  ON 13
ud_4 -8.9416e-03 1 1  ON 14
ud_5 -4.7898e-02 1 1  ON 15
ud_6 -6.3576e-02 1 1  ON 16
ud_7 -8.6048e-02 1 1  ON 17
ud_8 -8.9095e-02 1 1  ON 18
ud_9 -7.7785e-02 1 1  ON 19
eAl_0 -1.7455e+00 1 1  ON 20
eAl_1 -1.0000e+00 1 1  ON 21
eAl_2 -4.8182e-01 1 1  ON 22
eAl_3 -1.8416e-01 1 1  ON 23
eAl_4 1.2313e-01 1 1  ON 24
eAl_5 3.7825e-01 1 1  ON 25
eAl_6 5.3966e-01 1 1  ON 26
eAl_7 6.6722e-01 1 1  ON 27
eAl_8 6.7592e-01 1 1  ON 28
eAl_9 5.1869e-01 1 1  ON 29
uuAl_0 2.3151e-06 1 1  ON 30
uuAl_1 -8.6071e-06 1 1  ON 31
uuAl_2 -9.8568e-06 1 1  ON 32
uuAl_3 -1.0981e-05 1 1  ON 33
uuAl_4 -5.8765e-06 1 1  ON 34
uuAl_5 -7.9054e-07 1 1  ON 35
uuAl_6 -1.1054e-05 1 1  ON 36
uuAl_7 -9.6888e-08 1 1  ON 37
uuAl_8 9.6724e-07 1 1  ON 38
uuAl_9 6.6036e-06 1 1  ON 39
uuAl_10 -1.8304e-05 1 1  ON 40
uuAl_11 2.3142e-05 1 1  ON 41
uuAl_12 -4.6959e-06 1 1  ON 42
uuAl_13 1.7449e-05 1 1  ON 43
uuAl_14 3.5104e-06 1 1  ON 44
uuAl_15 8.7660e-08 1 1  ON 45
uuAl_16 -9.8711e-06 1 1  ON 46
uuAl_17 4.0032e-05 1 1  ON 47
uuAl_18 -4.0240e-05 1 1  ON 48
uuAl_19 6.3906e-06 1 1  ON 49
uuAl_20 -2.1081e-06 1 1  ON 50
uuAl_21 6.2322e-06 1 1  ON 51
uuAl_22 -1.1651e-06 1 1  ON 52
uuAl_23 1.2817e-06 1 1  ON 53
uuAl_24 -1.6681e-06 1 1  ON 54
uuAl_25 2.9890e-07 1 1  ON 55
udAl_0 1.7587e-05 1 1  ON 56
udAl_1 1.1614e-05 1 1  ON 57
udAl_2 -7.8337e-06 1 1  ON 58
udAl_3 -3.6510e-05 1 1  ON 59
udAl_4 -1.3173e-05 1 1  ON 60
udAl_5 -3.3702e-06 1 1  ON 61
udAl_6 3.1036e-05 1 1  ON 62
udAl_7 -4.9015e-05 1 1  ON 63
udAl_8 1.4933e-05 1 1  ON 64
udAl_9 -2.6232e-05 1 1  ON 65
udAl_10 -3.9377e-05 1 1  ON 66
udAl_11 5.0090e-05 1 1  ON 67
udAl_12 -1.5339e-05 1 1  ON 68
udAl_13 4.9147e-05 1 1  ON 69
udAl_14 9.1488e-06 1 1  ON 70
udAl_15 6.3233e-07 1 1  ON 71
udAl_16 3.6230e-05 1 1  ON 72
udAl_17 8.5622e-05 1 1  ON 73
udAl_18 -7.7376e-05 1 1  ON 74
udAl_19 1.6611e-05 1 1  ON 75
udAl_20 -3.0218e-05 1 1  ON 76
udAl_21 1.1348e-05 1 1  ON 77
udAl_22 -2.7613e-06 1 1  ON 78
udAl_23 1.3226e-05 1 1  ON 79
udAl_24 -3.6923e-06 1 1  ON 80
udAl_25 7.2156e-07 1 1  ON 81
  </optVariables>
   Restore the number of walkers to 1, removing 0 walkers.
</opt>
</optimization-report>
  QMC Execution time = 4.0439e+00 secs
  Reusing QMCFixedSampleLinearOptimize
 Using QMCCostFunction::QMCCostFunction

=========================================================
  Start QMCFixedSampleLinearOptimize
  File Root Al.log.s002 append = no 
=========================================================
  Skip QMCDriver::putQMCInfo 
  Resetting Properties of the walkers 1 x 13

=========================================================
  Start VMC
  File Root Al.log.s002 append = no 
=========================================================
Using existing walkers 
  Resetting Properties of the walkers 1 x 13

<vmc function="put">
  qmc_counter=1  my_counter=1
  time step      = 1.5000e-01
  blocks         = 300
  steps          = 2
  substeps       = 5
  current        = 0
  target samples = 5.1200e+05
  walkers/mpi    = 1

  stepsbetweensamples = 1
<parameter name="blocks" condition="int">300</parameter>
<parameter name="blocks_between_recompute" condition="int">0</parameter>
<parameter name="check_properties" condition="int">100</parameter>
<parameter name="checkproperties" condition="int">100</parameter>
<parameter name="current" condition="int">0</parameter>
<parameter name="dmcwalkersperthread" condition="real">5.0000e+02</parameter>
<parameter name="maxcpusecs" condition="real">3.6000e+05</parameter>
<parameter name="record_configs" condition="int">0</parameter>
<parameter name="record_walkers" condition="int">1</parameter>
<parameter name="recordconfigs" condition="int">0</parameter>
<parameter name="recordwalkers" condition="int">1</parameter>
<parameter name="rewind" condition="int">0</parameter>
<parameter name="samples" condition="real">5.1200e+05</parameter>
<parameter name="samplesperthread" condition="real">5.0000e+02</parameter>
<parameter name="steps" condition="int">2</parameter>
<parameter name="stepsbetweensamples" condition="int">1</parameter>
<parameter name="store_configs" condition="int">0</parameter>
<parameter name="storeconfigs" condition="int">0</parameter>
<parameter name="sub_steps" condition="int">5</parameter>
<parameter name="substeps" condition="int">5</parameter>
<parameter name="tau" condition="au">1.5000e-01</parameter>
<parameter name="time_step" condition="au">1.5000e-01</parameter>
<parameter name="timestep" condition="au">1.5000e-01</parameter>
<parameter name="use_drift" condition="string">no</parameter>
<parameter name="usedrift" condition="string">no</parameter>
<parameter name="walkers" condition="int">1</parameter>
<parameter name="warmup_steps" condition="int">0</parameter>
<parameter name="warmupsteps" condition="int">0</parameter>
  DumpConfig==false Nothing (configurations, state) will be saved.
  Walker Samples are dumped every 1 steps.
</vmc>
  EstimatorManagerBase::add replace LocalEnergy estimator.
  EstimatorManagerBase::add replace LocalEnergy estimator.
<optimization-report>
<vmc stage="main" blocks="300">
  Cannot make clones again. Use existing 1 clones
  Initial partition of walkers 0 1 
  Using Particle by Particle moves
  Walker moves without drift
  Total Sample Size   =512000
  Walker distribution on root = 0 1 
  Using Locality Approximation
===== Memory Usage after the buffer registration =====
Available memory on node 0, free + buffers : 85045 MB
Memory footprint by rank 0 on node 0       : 92 MB
==================================================
====================================================
  SimpleFixedNodeBranch::finalize after a VMC block
    QMC counter        = 2
    time step          = 0.15
    reference energy   = -81.3574
    reference variance = 1.01512
====================================================
  Execution time = 2.3037e+00
</vmc>
<opt stage="setup">
  <log>
   Reading configurations from h5FileRoot Al.log.s002
  QMCCostFunction is created with 1 threads.
  Using Nonlocal PP in Opt: NonLocalECP
   Number of samples loaded to each thread : 500 
  VMC Eavg = -8.1332e+01
  VMC Evar = 1.0506e+00
  Total weights = 5.1200e+05
  Execution time = 1.1228e+00
  </log>
</opt>
<opt stage="main" walkers="512000">
  <log>

*****************************************
Building overlap and Hamiltonian matrices
*****************************************

Among totally 82 optimized parameters, largest LM parameter change : 1.2194e-01 at parameter 10

******************************************************************************
Init Cost =  -7.7213e+01    New Cost =  -7.7215e+01  Delta Cost =  -1.7314e-03
******************************************************************************

The new set of parameters is valid. Updating the trial wave function!

*****************************************************************************
Applying the update for shift_i =   1.0000e-02     and shift_s =   6.2500e-02
*****************************************************************************
  Execution time = 3.9836e+00
  </log>
  <optVariables href="Al.log.s002.opt.xml">
uu_0 2.2117e-01 1 1  ON 0
uu_1 8.3460e-02 1 1  ON 1
uu_2 1.6691e-02 1 1  ON 2
uu_3 -6.8867e-03 1 1  ON 3
uu_4 -2.2094e-02 1 1  ON 4
uu_5 -3.8448e-02 1 1  ON 5
uu_6 -4.5952e-02 1 1  ON 6
uu_7 -5.6225e-02 1 1  ON 7
uu_8 -5.7922e-02 1 1  ON 8
uu_9 -5.1735e-02 1 1  ON 9
ud_0 6.0268e-01 1 1  ON 10
ud_1 3.1722e-01 1 1  ON 11
ud_2 1.4885e-01 1 1  ON 12
ud_3 4.6096e-02 1 1  ON 13
ud_4 -1.8127e-02 1 1  ON 14
ud_5 -6.0385e-02 1 1  ON 15
ud_6 -7.5458e-02 1 1  ON 16
ud_7 -9.7680e-02 1 1  ON 17
ud_8 -9.9005e-02 1 1  ON 18
ud_9 -8.4216e-02 1 1  ON 19
eAl_0 -1.8319e+00 1 1  ON 20
eAl_1 -1.0483e+00 1 1  ON 21
eAl_2 -4.4584e-01 1 1  ON 22
eAl_3 -1.4769e-01 1 1  ON 23
eAl_4 1.4237e-01 1 1  ON 24
eAl_5 3.7769e-01 1 1  ON 25
eAl_6 5.4084e-01 1 1  ON 26
eAl_7 6.6920e-01 1 1  ON 27
eAl_8 6.8462e-01 1 1  ON 28
eAl_9 5.2536e-01 1 1  ON 29
uuAl_0 2.8910e-06 1 1  ON 30
uuAl_1 -8.7894e-06 1 1  ON 31
uuAl_2 -1.1969e-05 1 1  ON 32
uuAl_3 -1.1219e-05 1 1  ON 33
uuAl_4 -5.5668e-06 1 1  ON 34
uuAl_5 -9.8507e-07 1 1  ON 35
uuAl_6 -9.4025e-06 1 1  ON 36
uuAl_7 5.4263e-06 1 1  ON 37
uuAl_8 -5.3728e-06 1 1  ON 38
uuAl_9 3.9813e-06 1 1  ON 39
uuAl_10 -1.9825e-05 1 1  ON 40
uuAl_11 2.4784e-05 1 1  ON 41
uuAl_12 -1.8989e-06 1 1  ON 42
uuAl_13 1.2407e-05 1 1  ON 43
uuAl_14 8.0036e-07 1 1  ON 44
uuAl_15 5.9046e-08 1 1  ON 45
uuAl_16 -3.4365e-06 1 1  ON 46
uuAl_17 3.0270e-05 1 1  ON 47
uuAl_18 -3.9463e-05 1 1  ON 48
uuAl_19 4.7359e-06 1 1  ON 49
uuAl_20 1.5124e-06 1 1  ON 50
uuAl_21 6.7268e-06 1 1  ON 51
uuAl_22 -1.0487e-06 1 1  ON 52
uuAl_23 -2.1991e-07 1 1  ON 53
uuAl_24 -1.5562e-06 1 1  ON 54
uuAl_25 2.6010e-07 1 1  ON 55
udAl_0 2.0335e-05 1 1  ON 56
udAl_1 1.0953e-05 1 1  ON 57
udAl_2 -7.2387e-06 1 1  ON 58
udAl_3 -4.0228e-05 1 1  ON 59
udAl_4 -1.3969e-05 1 1  ON 60
udAl_5 -6.7509e-06 1 1  ON 61
udAl_6 3.2532e-05 1 1  ON 62
udAl_7 -4.5099e-05 1 1  ON 63
udAl_8 1.2159e-05 1 1  ON 64
udAl_9 -2.8107e-05 1 1  ON 65
udAl_10 -4.1363e-05 1 1  ON 66
udAl_11 5.4277e-05 1 1  ON 67
udAl_12 -1.5190e-05 1 1  ON 68
udAl_13 4.5728e-05 1 1  ON 69
udAl_14 8.5990e-06 1 1  ON 70
udAl_15 6.8829e-07 1 1  ON 71
udAl_16 3.7383e-05 1 1  ON 72
udAl_17 8.6110e-05 1 1  ON 73
udAl_18 -8.3473e-05 1 1  ON 74
udAl_19 1.7597e-05 1 1  ON 75
udAl_20 -2.9855e-05 1 1  ON 76
udAl_21 1.2417e-05 1 1  ON 77
udAl_22 -2.9764e-06 1 1  ON 78
udAl_23 1.4905e-05 1 1  ON 79
udAl_24 -4.1398e-06 1 1  ON 80
udAl_25 7.8208e-07 1 1  ON 81
  </optVariables>
   Restore the number of walkers to 1, removing 0 walkers.
</opt>
</optimization-report>
  QMC Execution time = 3.9979e+00 secs
  Reusing QMCFixedSampleLinearOptimize
 Using QMCCostFunction::QMCCostFunction

=========================================================
  Start QMCFixedSampleLinearOptimize
  File Root Al.log.s003 append = no 
=========================================================
  Skip QMCDriver::putQMCInfo 
  Resetting Properties of the walkers 1 x 13

=========================================================
  Start VMC
  File Root Al.log.s003 append = no 
=========================================================
Using existing walkers 
  Resetting Properties of the walkers 1 x 13

<vmc function="put">
  qmc_counter=2  my_counter=2
  time step      = 1.5000e-01
  blocks         = 300
  steps          = 2
  substeps       = 5
  current        = 0
  target samples = 5.1200e+05
  walkers/mpi    = 1

  stepsbetweensamples = 1
<parameter name="blocks" condition="int">300</parameter>
<parameter name="blocks_between_recompute" condition="int">0</parameter>
<parameter name="check_properties" condition="int">100</parameter>
<parameter name="checkproperties" condition="int">100</parameter>
<parameter name="current" condition="int">0</parameter>
<parameter name="dmcwalkersperthread" condition="real">5.0000e+02</parameter>
<parameter name="maxcpusecs" condition="real">3.6000e+05</parameter>
<parameter name="record_configs" condition="int">0</parameter>
<parameter name="record_walkers" condition="int">1</parameter>
<parameter name="recordconfigs" condition="int">0</parameter>
<parameter name="recordwalkers" condition="int">1</parameter>
<parameter name="rewind" condition="int">0</parameter>
<parameter name="samples" condition="real">5.1200e+05</parameter>
<parameter name="samplesperthread" condition="real">5.0000e+02</parameter>
<parameter name="steps" condition="int">2</parameter>
<parameter name="stepsbetweensamples" condition="int">1</parameter>
<parameter name="store_configs" condition="int">0</parameter>
<parameter name="storeconfigs" condition="int">0</parameter>
<parameter name="sub_steps" condition="int">5</parameter>
<parameter name="substeps" condition="int">5</parameter>
<parameter name="tau" condition="au">1.5000e-01</parameter>
<parameter name="time_step" condition="au">1.5000e-01</parameter>
<parameter name="timestep" condition="au">1.5000e-01</parameter>
<parameter name="use_drift" condition="string">no</parameter>
<parameter name="usedrift" condition="string">no</parameter>
<parameter name="walkers" condition="int">1</parameter>
<parameter name="warmup_steps" condition="int">0</parameter>
<parameter name="warmupsteps" condition="int">0</parameter>
  DumpConfig==false Nothing (configurations, state) will be saved.
  Walker Samples are dumped every 1 steps.
</vmc>
  EstimatorManagerBase::add replace LocalEnergy estimator.
  EstimatorManagerBase::add replace LocalEnergy estimator.
<optimization-report>
<vmc stage="main" blocks="300">
  Cannot make clones again. Use existing 1 clones
  Initial partition of walkers 0 1 
  Using Particle by Particle moves
  Walker moves without drift
  Total Sample Size   =512000
  Walker distribution on root = 0 1 
  Using Locality Approximation
===== Memory Usage after the buffer registration =====
Available memory on node 0, free + buffers : 85043 MB
Memory footprint by rank 0 on node 0       : 95 MB
==================================================
====================================================
  SimpleFixedNodeBranch::finalize after a VMC block
    QMC counter        = 3
    time step          = 0.15
    reference energy   = -81.3084
    reference variance = 0.785656
====================================================
  Execution time = 2.2946e+00
</vmc>
<opt stage="setup">
  <log>
   Reading configurations from h5FileRoot Al.log.s003
  QMCCostFunction is created with 1 threads.
  Using Nonlocal PP in Opt: NonLocalECP
   Number of samples loaded to each thread : 500 
  VMC Eavg = -8.1333e+01
  VMC Evar = 1.0697e+00
  Total weights = 5.1200e+05
  Execution time = 1.1287e+00
  </log>
</opt>
<opt stage="main" walkers="512000">
  <log>

*****************************************
Building overlap and Hamiltonian matrices
*****************************************

Among totally 82 optimized parameters, largest LM parameter change : 7.3578e-02 at parameter 10

******************************************************************************
Init Cost =  -7.7213e+01    New Cost =  -7.7214e+01  Delta Cost =  -5.8667e-04
******************************************************************************

The new set of parameters is valid. Updating the trial wave function!

*****************************************************************************
Applying the update for shift_i =   1.0000e-02     and shift_s =   1.5625e-02
*****************************************************************************
  Execution time = 3.9781e+00
  </log>
  <optVariables href="Al.log.s003.opt.xml">
uu_0 2.2728e-01 1 1  ON 0
uu_1 8.5522e-02 1 1  ON 1
uu_2 1.7238e-02 1 1  ON 2
uu_3 -5.9191e-03 1 1  ON 3
uu_4 -2.2387e-02 1 1  ON 4
uu_5 -3.7987e-02 1 1  ON 5
uu_6 -4.5169e-02 1 1  ON 6
uu_7 -5.5978e-02 1 1  ON 7
uu_8 -5.8181e-02 1 1  ON 8
uu_9 -4.9391e-02 1 1  ON 9
ud_0 6.7625e-01 1 1  ON 10
ud_1 3.6746e-01 1 1  ON 11
ud_2 1.6993e-01 1 1  ON 12
ud_3 4.9700e-02 1 1  ON 13
ud_4 -2.0590e-02 1 1  ON 14
ud_5 -6.5412e-02 1 1  ON 15
ud_6 -7.8742e-02 1 1  ON 16
ud_7 -1.0108e-01 1 1  ON 17
ud_8 -1.0239e-01 1 1  ON 18
ud_9 -8.9264e-02 1 1  ON 19
eAl_0 -1.9011e+00 1 1  ON 20
eAl_1 -1.0900e+00 1 1  ON 21
eAl_2 -4.2848e-01 1 1  ON 22
eAl_3 -1.1588e-01 1 1  ON 23
eAl_4 1.5381e-01 1 1  ON 24
eAl_5 3.8361e-01 1 1  ON 25
eAl_6 5.4654e-01 1 1  ON 26
eAl_7 6.6579e-01 1 1  ON 27
eAl_8 6.8524e-01 1 1  ON 28
eAl_9 5.2999e-01 1 1  ON 29
uuAl_0 4.1645e-06 1 1  ON 30
uuAl_1 -9.5209e-06 1 1  ON 31
uuAl_2 -1.4779e-05 1 1  ON 32
uuAl_3 -1.1112e-05 1 1  ON 33
uuAl_4 -5.2872e-06 1 1  ON 34
uuAl_5 -9.6467e-07 1 1  ON 35
uuAl_6 -1.0720e-05 1 1  ON 36
uuAl_7 4.0638e-06 1 1  ON 37
uuAl_8 -8.5329e-06 1 1  ON 38
uuAl_9 3.9566e-06 1 1  ON 39
uuAl_10 -2.0319e-05 1 1  ON 40
uuAl_11 2.9071e-05 1 1  ON 41
uuAl_12 -1.7272e-06 1 1  ON 42
uuAl_13 1.2938e-05 1 1  ON 43
uuAl_14 7.6006e-07 1 1  ON 44
uuAl_15 4.7010e-08 1 1  ON 45
uuAl_16 -4.4458e-06 1 1  ON 46
uuAl_17 3.3333e-05 1 1  ON 47
uuAl_18 -4.4117e-05 1 1  ON 48
uuAl_19 5.6085e-06 1 1  ON 49
uuAl_20 7.7191e-07 1 1  ON 50
uuAl_21 7.2567e-06 1 1  ON 51
uuAl_22 -1.2046e-06 1 1  ON 52
uuAl_23 6.8744e-07 1 1  ON 53
uuAl_24 -1.7977e-06 1 1  ON 54
uuAl_25 3.1061e-07 1 1  ON 55
udAl_0 2.2234e-05 1 1  ON 56
udAl_1 9.0547e-06 1 1  ON 57
udAl_2 -7.1181e-06 1 1  ON 58
udAl_3 -4.0716e-05 1 1  ON 59
udAl_4 -1.3428e-05 1 1  ON 60
udAl_5 -8.6161e-06 1 1  ON 61
udAl_6 3.1434e-05 1 1  ON 62
udAl_7 -4.2890e-05 1 1  ON 63
udAl_8 9.0425e-06 1 1  ON 64
udAl_9 -2.8249e-05 1 1  ON 65
udAl_10 -4.0242e-05 1 1  ON 66
udAl_11 5.4300e-05 1 1  ON 67
udAl_12 -1.3793e-05 1 1  ON 68
udAl_13 4.2385e-05 1 1  ON 69
udAl_14 7.3728e-06 1 1  ON 70
udAl_15 6.7285e-07 1 1  ON 71
udAl_16 3.7414e-05 1 1  ON 72
udAl_17 8.0869e-05 1 1  ON 73
udAl_18 -8.0816e-05 1 1  ON 74
udAl_19 1.6492e-05 1 1  ON 75
udAl_20 -2.8739e-05 1 1  ON 76
udAl_21 1.2184e-05 1 1  ON 77
udAl_22 -2.8474e-06 1 1  ON 78
udAl_23 1.4270e-05 1 1  ON 79
udAl_24 -3.9664e-06 1 1  ON 80
udAl_25 7.4515e-07 1 1  ON 81
  </optVariables>
   Restore the number of walkers to 1, removing 0 walkers.
</opt>
</optimization-report>
  QMC Execution time = 3.9928e+00 secs
  Reusing QMCFixedSampleLinearOptimize
 Using QMCCostFunction::QMCCostFunction

=========================================================
  Start QMCFixedSampleLinearOptimize
  File Root Al.log.s004 append = no 
=========================================================
  Skip QMCDriver::putQMCInfo 
  Resetting Properties of the walkers 1 x 13

=========================================================
  Start VMC
  File Root Al.log.s004 append = no 
=========================================================
Using existing walkers 
  Resetting Properties of the walkers 1 x 13

<vmc function="put">
  qmc_counter=3  my_counter=3
  time step      = 1.5000e-01
  blocks         = 300
  steps          = 2
  substeps       = 5
  current        = 0
  target samples = 5.1200e+05
  walkers/mpi    = 1

  stepsbetweensamples = 1
<parameter name="blocks" condition="int">300</parameter>
<parameter name="blocks_between_recompute" condition="int">0</parameter>
<parameter name="check_properties" condition="int">100</parameter>
<parameter name="checkproperties" condition="int">100</parameter>
<parameter name="current" condition="int">0</parameter>
<parameter name="dmcwalkersperthread" condition="real">5.0000e+02</parameter>
<parameter name="maxcpusecs" condition="real">3.6000e+05</parameter>
<parameter name="record_configs" condition="int">0</parameter>
<parameter name="record_walkers" condition="int">1</parameter>
<parameter name="recordconfigs" condition="int">0</parameter>
<parameter name="recordwalkers" condition="int">1</parameter>
<parameter name="rewind" condition="int">0</parameter>
<parameter name="samples" condition="real">5.1200e+05</parameter>
<parameter name="samplesperthread" condition="real">5.0000e+02</parameter>
<parameter name="steps" condition="int">2</parameter>
<parameter name="stepsbetweensamples" condition="int">1</parameter>
<parameter name="store_configs" condition="int">0</parameter>
<parameter name="storeconfigs" condition="int">0</parameter>
<parameter name="sub_steps" condition="int">5</parameter>
<parameter name="substeps" condition="int">5</parameter>
<parameter name="tau" condition="au">1.5000e-01</parameter>
<parameter name="time_step" condition="au">1.5000e-01</parameter>
<parameter name="timestep" condition="au">1.5000e-01</parameter>
<parameter name="use_drift" condition="string">no</parameter>
<parameter name="usedrift" condition="string">no</parameter>
<parameter name="walkers" condition="int">1</parameter>
<parameter name="warmup_steps" condition="int">0</parameter>
<parameter name="warmupsteps" condition="int">0</parameter>
  DumpConfig==false Nothing (configurations, state) will be saved.
  Walker Samples are dumped every 1 steps.
</vmc>
  EstimatorManagerBase::add replace LocalEnergy estimator.
  EstimatorManagerBase::add replace LocalEnergy estimator.
<optimization-report>
<vmc stage="main" blocks="300">
  Cannot make clones again. Use existing 1 clones
  Initial partition of walkers 0 1 
  Using Particle by Particle moves
  Walker moves without drift
  Total Sample Size   =512000
  Walker distribution on root = 0 1 
  Using Locality Approximation
===== Memory Usage after the buffer registration =====
Available memory on node 0, free + buffers : 85040 MB
Memory footprint by rank 0 on node 0       : 97 MB
==================================================
====================================================
  SimpleFixedNodeBranch::finalize after a VMC block
    QMC counter        = 4
    time step          = 0.15
    reference energy   = -81.3316
    reference variance = 0.714293
====================================================
  Execution time = 2.3086e+00
</vmc>
<opt stage="setup">
  <log>
   Reading configurations from h5FileRoot Al.log.s004
  QMCCostFunction is created with 1 threads.
  Using Nonlocal PP in Opt: NonLocalECP
   Number of samples loaded to each thread : 500 
  VMC Eavg = -8.1337e+01
  VMC Evar = 1.0468e+00
  Total weights = 5.1200e+05
  Execution time = 1.1270e+00
  </log>
</opt>
<opt stage="main" walkers="512000">
  <log>

*****************************************
Building overlap and Hamiltonian matrices
*****************************************

Among totally 82 optimized parameters, largest LM parameter change : 5.6759e-02 at parameter 20

******************************************************************************
Init Cost =  -7.7217e+01    New Cost =  -7.7218e+01  Delta Cost =  -1.1647e-04
******************************************************************************

The new set of parameters is valid. Updating the trial wave function!

*****************************************************************************
Applying the update for shift_i =   1.0000e-02     and shift_s =   3.9062e-03
*****************************************************************************
  Execution time = 3.9994e+00
  </log>
  <optVariables href="Al.log.s004.opt.xml">
uu_0 2.3021e-01 1 1  ON 0
uu_1 8.7455e-02 1 1  ON 1
uu_2 1.6752e-02 1 1  ON 2
uu_3 -6.9874e-03 1 1  ON 3
uu_4 -2.4009e-02 1 1  ON 4
uu_5 -3.9483e-02 1 1  ON 5
uu_6 -4.7560e-02 1 1  ON 6
uu_7 -5.6594e-02 1 1  ON 7
uu_8 -5.9049e-02 1 1  ON 8
uu_9 -5.3540e-02 1 1  ON 9
ud_0 7.1798e-01 1 1  ON 10
ud_1 3.9682e-01 1 1  ON 11
ud_2 1.8399e-01 1 1  ON 12
ud_3 5.4729e-02 1 1  ON 13
ud_4 -2.1630e-02 1 1  ON 14
ud_5 -6.4887e-02 1 1  ON 15
ud_6 -7.8741e-02 1 1  ON 16
ud_7 -1.0205e-01 1 1  ON 17
ud_8 -1.0536e-01 1 1  ON 18
ud_9 -8.4941e-02 1 1  ON 19
eAl_0 -1.9578e+00 1 1  ON 20
eAl_1 -1.1253e+00 1 1  ON 21
eAl_2 -4.2293e-01 1 1  ON 22
eAl_3 -9.4995e-02 1 1  ON 23
eAl_4 1.6460e-01 1 1  ON 24
eAl_5 3.8433e-01 1 1  ON 25
eAl_6 5.4735e-01 1 1  ON 26
eAl_7 6.7309e-01 1 1  ON 27
eAl_8 6.9112e-01 1 1  ON 28
eAl_9 5.3466e-01 1 1  ON 29
uuAl_0 2.3763e-06 1 1  ON 30
uuAl_1 -1.1255e-05 1 1  ON 31
uuAl_2 -1.1737e-05 1 1  ON 32
uuAl_3 -1.0275e-05 1 1  ON 33
uuAl_4 -5.5640e-06 1 1  ON 34
uuAl_5 -1.6256e-06 1 1  ON 35
uuAl_6 -1.1222e-05 1 1  ON 36
uuAl_7 4.9805e-06 1 1  ON 37
uuAl_8 -7.4881e-06 1 1  ON 38
uuAl_9 5.5733e-06 1 1  ON 39
uuAl_10 -1.8873e-05 1 1  ON 40
uuAl_11 2.8734e-05 1 1  ON 41
uuAl_12 -1.9309e-06 1 1  ON 42
uuAl_13 1.1480e-05 1 1  ON 43
uuAl_14 6.9173e-07 1 1  ON 44
uuAl_15 8.3408e-08 1 1  ON 45
uuAl_16 -1.2790e-05 1 1  ON 46
uuAl_17 3.3926e-05 1 1  ON 47
uuAl_18 -4.6363e-05 1 1  ON 48
uuAl_19 6.2581e-06 1 1  ON 49
uuAl_20 4.4569e-06 1 1  ON 50
uuAl_21 7.5174e-06 1 1  ON 51
uuAl_22 -1.3547e-06 1 1  ON 52
uuAl_23 -1.2069e-06 1 1  ON 53
uuAl_24 -1.6649e-06 1 1  ON 54
uuAl_25 3.2741e-07 1 1  ON 55
udAl_0 2.3962e-05 1 1  ON 56
udAl_1 9.0234e-06 1 1  ON 57
udAl_2 -7.8745e-06 1 1  ON 58
udAl_3 -4.1180e-05 1 1  ON 59
udAl_4 -1.2702e-05 1 1  ON 60
udAl_5 -9.0249e-06 1 1  ON 61
udAl_6 3.1365e-05 1 1  ON 62
udAl_7 -4.3842e-05 1 1  ON 63
udAl_8 7.2807e-06 1 1  ON 64
udAl_9 -2.9122e-05 1 1  ON 65
udAl_10 -3.9651e-05 1 1  ON 66
udAl_11 5.5668e-05 1 1  ON 67
udAl_12 -1.3154e-05 1 1  ON 68
udAl_13 4.1868e-05 1 1  ON 69
udAl_14 6.8540e-06 1 1  ON 70
udAl_15 6.7169e-07 1 1  ON 71
udAl_16 3.8620e-05 1 1  ON 72
udAl_17 8.0665e-05 1 1  ON 73
udAl_18 -8.3004e-05 1 1  ON 74
udAl_19 1.6614e-05 1 1  ON 75
udAl_20 -2.8822e-05 1 1  ON 76
udAl_21 1.2973e-05 1 1  ON 77
udAl_22 -3.0082e-06 1 1  ON 78
udAl_23 1.3826e-05 1 1  ON 79
udAl_24 -4.1480e-06 1 1  ON 80
udAl_25 8.0203e-07 1 1  ON 81
  </optVariables>
   Restore the number of walkers to 1, removing 0 walkers.
</opt>
</optimization-report>
  QMC Execution time = 4.0140e+00 secs
  Reusing QMCFixedSampleLinearOptimize
 Using QMCCostFunction::QMCCostFunction

=========================================================
  Start QMCFixedSampleLinearOptimize
  File Root Al.log.s005 append = no 
=========================================================
  Skip QMCDriver::putQMCInfo 
  Resetting Properties of the walkers 1 x 13

=========================================================
  Start VMC
  File Root Al.log.s005 append = no 
=========================================================
Using existing walkers 
  Resetting Properties of the walkers 1 x 13

<vmc function="put">
  qmc_counter=4  my_counter=4
  time step      = 1.5000e-01
  blocks         = 300
  steps          = 2
  substeps       = 5
  current        = 0
  target samples = 5.1200e+05
  walkers/mpi    = 1

  stepsbetweensamples = 1
<parameter name="blocks" condition="int">300</parameter>
<parameter name="blocks_between_recompute" condition="int">0</parameter>
<parameter name="check_properties" condition="int">100</parameter>
<parameter name="checkproperties" condition="int">100</parameter>
<parameter name="current" condition="int">0</parameter>
<parameter name="dmcwalkersperthread" condition="real">5.0000e+02</parameter>
<parameter name="maxcpusecs" condition="real">3.6000e+05</parameter>
<parameter name="record_configs" condition="int">0</parameter>
<parameter name="record_walkers" condition="int">1</parameter>
<parameter name="recordconfigs" condition="int">0</parameter>
<parameter name="recordwalkers" condition="int">1</parameter>
<parameter name="rewind" condition="int">0</parameter>
<parameter name="samples" condition="real">5.1200e+05</parameter>
<parameter name="samplesperthread" condition="real">5.0000e+02</parameter>
<parameter name="steps" condition="int">2</parameter>
<parameter name="stepsbetweensamples" condition="int">1</parameter>
<parameter name="store_configs" condition="int">0</parameter>
<parameter name="storeconfigs" condition="int">0</parameter>
<parameter name="sub_steps" condition="int">5</parameter>
<parameter name="substeps" condition="int">5</parameter>
<parameter name="tau" condition="au">1.5000e-01</parameter>
<parameter name="time_step" condition="au">1.5000e-01</parameter>
<parameter name="timestep" condition="au">1.5000e-01</parameter>
<parameter name="use_drift" condition="string">no</parameter>
<parameter name="usedrift" condition="string">no</parameter>
<parameter name="walkers" condition="int">1</parameter>
<parameter name="warmup_steps" condition="int">0</parameter>
<parameter name="warmupsteps" condition="int">0</parameter>
  DumpConfig==false Nothing (configurations, state) will be saved.
  Walker Samples are dumped every 1 steps.
</vmc>
  EstimatorManagerBase::add replace LocalEnergy estimator.
  EstimatorManagerBase::add replace LocalEnergy estimator.
<optimization-report>
<vmc stage="main" blocks="300">
  Cannot make clones again. Use existing 1 clones
  Initial partition of walkers 0 1 
  Using Particle by Particle moves
  Walker moves without drift
  Total Sample Size   =512000
  Walker distribution on root = 0 1 
  Using Locality Approximation
===== Memory Usage after the buffer registration =====
Available memory on node 0, free + buffers : 85038 MB
Memory footprint by rank 0 on node 0       : 99 MB
==================================================
====================================================
  SimpleFixedNodeBranch::finalize after a VMC block
    QMC counter        = 5
    time step          = 0.15
    reference energy   = -81.3579
    reference variance = 0.834811
====================================================
  Execution time = 2.3359e+00
</vmc>
<opt stage="setup">
  <log>
   Reading configurations from h5FileRoot Al.log.s005
  QMCCostFunction is created with 1 threads.
  Using Nonlocal PP in Opt: NonLocalECP
   Number of samples loaded to each thread : 500 
  VMC Eavg = -8.1334e+01
  VMC Evar = 1.0377e+00
  Total weights = 5.1200e+05
  Execution time = 1.1236e+00
  </log>
</opt>
<opt stage="main" walkers="512000">
  <log>

*****************************************
Building overlap and Hamiltonian matrices
*****************************************

Among totally 82 optimized parameters, largest LM parameter change : 4.7157e-02 at parameter 20

******************************************************************************
Init Cost =  -7.7216e+01    New Cost =  -7.7216e+01  Delta Cost =  -3.1905e-04
******************************************************************************

The new set of parameters is valid. Updating the trial wave function!

*****************************************************************************
Applying the update for shift_i =   1.0000e-02     and shift_s =   3.9062e-03
*****************************************************************************
  Execution time = 4.0156e+00
  </log>
  <optVariables href="Al.log.s005.opt.xml">
uu_0 2.3367e-01 1 1  ON 0
uu_1 8.7723e-02 1 1  ON 1
uu_2 1.2552e-02 1 1  ON 2
uu_3 -1.2444e-02 1 1  ON 3
uu_4 -2.7261e-02 1 1  ON 4
uu_5 -4.2054e-02 1 1  ON 5
uu_6 -4.9785e-02 1 1  ON 6
uu_7 -5.9571e-02 1 1  ON 7
uu_8 -6.5074e-02 1 1  ON 8
uu_9 -5.5743e-02 1 1  ON 9
ud_0 7.4176e-01 1 1  ON 10
ud_1 4.1283e-01 1 1  ON 11
ud_2 1.8986e-01 1 1  ON 12
ud_3 5.4259e-02 1 1  ON 13
ud_4 -2.1003e-02 1 1  ON 14
ud_5 -6.2117e-02 1 1  ON 15
ud_6 -7.6558e-02 1 1  ON 16
ud_7 -1.0013e-01 1 1  ON 17
ud_8 -1.0344e-01 1 1  ON 18
ud_9 -8.7750e-02 1 1  ON 19
eAl_0 -2.0050e+00 1 1  ON 20
eAl_1 -1.1609e+00 1 1  ON 21
eAl_2 -4.1865e-01 1 1  ON 22
eAl_3 -7.4264e-02 1 1  ON 23
eAl_4 1.6527e-01 1 1  ON 24
eAl_5 3.8211e-01 1 1  ON 25
eAl_6 5.4631e-01 1 1  ON 26
eAl_7 6.7135e-01 1 1  ON 27
eAl_8 6.9779e-01 1 1  ON 28
eAl_9 5.4363e-01 1 1  ON 29
uuAl_0 4.1151e-06 1 1  ON 30
uuAl_1 -9.9484e-06 1 1  ON 31
uuAl_2 -1.3542e-05 1 1  ON 32
uuAl_3 -1.1473e-05 1 1  ON 33
uuAl_4 -5.4102e-06 1 1  ON 34
uuAl_5 -9.6568e-07 1 1  ON 35
uuAl_6 -1.0246e-05 1 1  ON 36
uuAl_7 2.6459e-06 1 1  ON 37
uuAl_8 -8.5426e-06 1 1  ON 38
uuAl_9 3.7259e-06 1 1  ON 39
uuAl_10 -2.0041e-05 1 1  ON 40
uuAl_11 3.0790e-05 1 1  ON 41
uuAl_12 -1.6890e-06 1 1  ON 42
uuAl_13 1.3550e-05 1 1  ON 43
uuAl_14 4.3480e-07 1 1  ON 44
uuAl_15 8.6211e-08 1 1  ON 45
uuAl_16 -8.8713e-06 1 1  ON 46
uuAl_17 3.5597e-05 1 1  ON 47
uuAl_18 -4.7173e-05 1 1  ON 48
uuAl_19 5.8812e-06 1 1  ON 49
uuAl_20 2.3961e-06 1 1  ON 50
uuAl_21 7.7953e-06 1 1  ON 51
uuAl_22 -1.3107e-06 1 1  ON 52
uuAl_23 -7.4149e-07 1 1  ON 53
uuAl_24 -1.7438e-06 1 1  ON 54
uuAl_25 3.2047e-07 1 1  ON 55
udAl_0 2.4815e-05 1 1  ON 56
udAl_1 7.7291e-06 1 1  ON 57
udAl_2 -7.4222e-06 1 1  ON 58
udAl_3 -4.0936e-05 1 1  ON 59
udAl_4 -1.2332e-05 1 1  ON 60
udAl_5 -9.9327e-06 1 1  ON 61
udAl_6 3.0426e-05 1 1  ON 62
udAl_7 -4.1840e-05 1 1  ON 63
udAl_8 7.9103e-06 1 1  ON 64
udAl_9 -2.9372e-05 1 1  ON 65
udAl_10 -3.8638e-05 1 1  ON 66
udAl_11 5.2327e-05 1 1  ON 67
udAl_12 -1.2711e-05 1 1  ON 68
udAl_13 4.0481e-05 1 1  ON 69
udAl_14 6.7353e-06 1 1  ON 70
udAl_15 6.2640e-07 1 1  ON 71
udAl_16 3.9162e-05 1 1  ON 72
udAl_17 7.6884e-05 1 1  ON 73
udAl_18 -7.7422e-05 1 1  ON 74
udAl_19 1.5378e-05 1 1  ON 75
udAl_20 -2.8456e-05 1 1  ON 76
udAl_21 1.2080e-05 1 1  ON 77
udAl_22 -2.7538e-06 1 1  ON 78
udAl_23 1.3452e-05 1 1  ON 79
udAl_24 -3.9173e-06 1 1  ON 80
udAl_25 7.4186e-07 1 1  ON 81
  </optVariables>
   Restore the number of walkers to 1, removing 0 walkers.
</opt>
</optimization-report>
  QMC Execution time = 4.0299e+00 secs
  Reusing QMCFixedSampleLinearOptimize
 Using QMCCostFunction::QMCCostFunction

=========================================================
  Start QMCFixedSampleLinearOptimize
  File Root Al.log.s006 append = no 
=========================================================
  Skip QMCDriver::putQMCInfo 
  Resetting Properties of the walkers 1 x 13

=========================================================
  Start VMC
  File Root Al.log.s006 append = no 
=========================================================
Using existing walkers 
  Resetting Properties of the walkers 1 x 13

<vmc function="put">
  qmc_counter=5  my_counter=5
  time step      = 1.5000e-01
  blocks         = 300
  steps          = 2
  substeps       = 5
  current        = 0
  target samples = 5.1200e+05
  walkers/mpi    = 1

  stepsbetweensamples = 1
<parameter name="blocks" condition="int">300</parameter>
<parameter name="blocks_between_recompute" condition="int">0</parameter>
<parameter name="check_properties" condition="int">100</parameter>
<parameter name="checkproperties" condition="int">100</parameter>
<parameter name="current" condition="int">0</parameter>
<parameter name="dmcwalkersperthread" condition="real">5.0000e+02</parameter>
<parameter name="maxcpusecs" condition="real">3.6000e+05</parameter>
<parameter name="record_configs" condition="int">0</parameter>
<parameter name="record_walkers" condition="int">1</parameter>
<parameter name="recordconfigs" condition="int">0</parameter>
<parameter name="recordwalkers" condition="int">1</parameter>
<parameter name="rewind" condition="int">0</parameter>
<parameter name="samples" condition="real">5.1200e+05</parameter>
<parameter name="samplesperthread" condition="real">5.0000e+02</parameter>
<parameter name="steps" condition="int">2</parameter>
<parameter name="stepsbetweensamples" condition="int">1</parameter>
<parameter name="store_configs" condition="int">0</parameter>
<parameter name="storeconfigs" condition="int">0</parameter>
<parameter name="sub_steps" condition="int">5</parameter>
<parameter name="substeps" condition="int">5</parameter>
<parameter name="tau" condition="au">1.5000e-01</parameter>
<parameter name="time_step" condition="au">1.5000e-01</parameter>
<parameter name="timestep" condition="au">1.5000e-01</parameter>
<parameter name="use_drift" condition="string">no</parameter>
<parameter name="usedrift" condition="string">no</parameter>
<parameter name="walkers" condition="int">1</parameter>
<parameter name="warmup_steps" condition="int">0</parameter>
<parameter name="warmupsteps" condition="int">0</parameter>
  DumpConfig==false Nothing (configurations, state) will be saved.
  Walker Samples are dumped every 1 steps.
</vmc>
  EstimatorManagerBase::add replace LocalEnergy estimator.
  EstimatorManagerBase::add replace LocalEnergy estimator.
<optimization-report>
<vmc stage="main" blocks="300">
  Cannot make clones again. Use existing 1 clones
  Initial partition of walkers 0 1 
  Using Particle by Particle moves
  Walker moves without drift
  Total Sample Size   =512000
  Walker distribution on root = 0 1 
  Using Locality Approximation
===== Memory Usage after the buffer registration =====
Available memory on node 0, free + buffers : 85035 MB
Memory footprint by rank 0 on node 0       : 101 MB
==================================================
====================================================
  SimpleFixedNodeBranch::finalize after a VMC block
    QMC counter        = 6
    time step          = 0.15
    reference energy   = -81.3272
    reference variance = 0.988429
====================================================
  Execution time = 2.3058e+00
</vmc>
<opt stage="setup">
  <log>
   Reading configurations from h5FileRoot Al.log.s006
  QMCCostFunction is created with 1 threads.
  Using Nonlocal PP in Opt: NonLocalECP
   Number of samples loaded to each thread : 500 
  VMC Eavg = -8.1338e+01
  VMC Evar = 1.0636e+00
  Total weights = 5.1200e+05
  Execution time = 1.1277e+00
  </log>
</opt>
<opt stage="main" walkers="512000">
  <log>

*****************************************
Building overlap and Hamiltonian matrices
*****************************************

Among totally 82 optimized parameters, largest LM parameter change : 4.1770e-02 at parameter 20

******************************************************************************
Init Cost =  -7.7218e+01    New Cost =  -7.7218e+01  Delta Cost =  -2.7683e-04
******************************************************************************

The new set of parameters is valid. Updating the trial wave function!

*****************************************************************************
Applying the update for shift_i =   1.0000e-02     and shift_s =   3.9062e-03
*****************************************************************************
  Execution time = 3.9932e+00
  </log>
  <optVariables href="Al.log.s006.opt.xml">
uu_0 2.3247e-01 1 1  ON 0
uu_1 8.2547e-02 1 1  ON 1
uu_2 7.7790e-03 1 1  ON 2
uu_3 -1.3652e-02 1 1  ON 3
uu_4 -2.8693e-02 1 1  ON 4
uu_5 -4.4553e-02 1 1  ON 5
uu_6 -5.2022e-02 1 1  ON 6
uu_7 -6.3755e-02 1 1  ON 7
uu_8 -6.4323e-02 1 1  ON 8
uu_9 -5.4254e-02 1 1  ON 9
ud_0 7.6428e-01 1 1  ON 10
ud_1 4.3157e-01 1 1  ON 11
ud_2 2.0305e-01 1 1  ON 12
ud_3 6.7146e-02 1 1  ON 13
ud_4 -7.4446e-03 1 1  ON 14
ud_5 -5.0276e-02 1 1  ON 15
ud_6 -6.4210e-02 1 1  ON 16
ud_7 -9.0280e-02 1 1  ON 17
ud_8 -9.5415e-02 1 1  ON 18
ud_9 -8.1227e-02 1 1  ON 19
eAl_0 -2.0467e+00 1 1  ON 20
eAl_1 -1.1931e+00 1 1  ON 21
eAl_2 -4.2703e-01 1 1  ON 22
eAl_3 -6.4670e-02 1 1  ON 23
eAl_4 1.7297e-01 1 1  ON 24
eAl_5 3.8284e-01 1 1  ON 25
eAl_6 5.5027e-01 1 1  ON 26
eAl_7 6.8173e-01 1 1  ON 27
eAl_8 7.0324e-01 1 1  ON 28
eAl_9 5.5221e-01 1 1  ON 29
uuAl_0 4.8596e-06 1 1  ON 30
uuAl_1 -1.0749e-05 1 1  ON 31
uuAl_2 -1.3975e-05 1 1  ON 32
uuAl_3 -1.1559e-05 1 1  ON 33
uuAl_4 -5.6422e-06 1 1  ON 34
uuAl_5 -1.0237e-06 1 1  ON 35
uuAl_6 -1.1857e-05 1 1  ON 36
uuAl_7 3.1652e-06 1 1  ON 37
uuAl_8 -7.8234e-06 1 1  ON 38
uuAl_9 4.3077e-06 1 1  ON 39
uuAl_10 -2.0175e-05 1 1  ON 40
uuAl_11 3.1034e-05 1 1  ON 41
uuAl_12 -2.2911e-06 1 1  ON 42
uuAl_13 1.4633e-05 1 1  ON 43
uuAl_14 1.1714e-06 1 1  ON 44
uuAl_15 7.6111e-08 1 1  ON 45
uuAl_16 -1.1265e-05 1 1  ON 46
uuAl_17 3.8735e-05 1 1  ON 47
uuAl_18 -4.9327e-05 1 1  ON 48
uuAl_19 6.7703e-06 1 1  ON 49
uuAl_20 2.3077e-06 1 1  ON 50
uuAl_21 7.8938e-06 1 1  ON 51
uuAl_22 -1.4379e-06 1 1  ON 52
uuAl_23 -4.9826e-07 1 1  ON 53
uuAl_24 -1.8131e-06 1 1  ON 54
uuAl_25 3.5281e-07 1 1  ON 55
udAl_0 2.4716e-05 1 1  ON 56
udAl_1 8.3740e-06 1 1  ON 57
udAl_2 -7.5310e-06 1 1  ON 58
udAl_3 -4.1577e-05 1 1  ON 59
udAl_4 -1.2716e-05 1 1  ON 60
udAl_5 -9.8850e-06 1 1  ON 61
udAl_6 3.2429e-05 1 1  ON 62
udAl_7 -4.2605e-05 1 1  ON 63
udAl_8 6.0035e-06 1 1  ON 64
udAl_9 -3.0325e-05 1 1  ON 65
udAl_10 -3.9831e-05 1 1  ON 66
udAl_11 5.5229e-05 1 1  ON 67
udAl_12 -1.2555e-05 1 1  ON 68
udAl_13 3.9923e-05 1 1  ON 69
udAl_14 6.1008e-06 1 1  ON 70
udAl_15 6.8880e-07 1 1  ON 71
udAl_16 4.1950e-05 1 1  ON 72
udAl_17 7.6287e-05 1 1  ON 73
udAl_18 -8.0242e-05 1 1  ON 74
udAl_19 1.5968e-05 1 1  ON 75
udAl_20 -2.8649e-05 1 1  ON 76
udAl_21 1.2613e-05 1 1  ON 77
udAl_22 -2.9087e-06 1 1  ON 78
udAl_23 1.3482e-05 1 1  ON 79
udAl_24 -3.9855e-06 1 1  ON 80
udAl_25 7.6847e-07 1 1  ON 81
  </optVariables>
   Restore the number of walkers to 1, removing 0 walkers.
</opt>
</optimization-report>
  QMC Execution time = 4.0076e+00 secs
  Reusing QMCFixedSampleLinearOptimize
 Using QMCCostFunction::QMCCostFunction

=========================================================
  Start QMCFixedSampleLinearOptimize
  File Root Al.log.s007 append = no 
=========================================================
  Skip QMCDriver::putQMCInfo 
  Resetting Properties of the walkers 1 x 13

=========================================================
  Start VMC
  File Root Al.log.s007 append = no 
=========================================================
Using existing walkers 
  Resetting Properties of the walkers 1 x 13

<vmc function="put">
  qmc_counter=6  my_counter=6
  time step      = 1.5000e-01
  blocks         = 300
  steps          = 2
  substeps       = 5
  current        = 0
  target samples = 5.1200e+05
  walkers/mpi    = 1

  stepsbetweensamples = 1
<parameter name="blocks" condition="int">300</parameter>
<parameter name="blocks_between_recompute" condition="int">0</parameter>
<parameter name="check_properties" condition="int">100</parameter>
<parameter name="checkproperties" condition="int">100</parameter>
<parameter name="current" condition="int">0</parameter>
<parameter name="dmcwalkersperthread" condition="real">5.0000e+02</parameter>
<parameter name="maxcpusecs" condition="real">3.6000e+05</parameter>
<parameter name="record_configs" condition="int">0</parameter>
<parameter name="record_walkers" condition="int">1</parameter>
<parameter name="recordconfigs" condition="int">0</parameter>
<parameter name="recordwalkers" condition="int">1</parameter>
<parameter name="rewind" condition="int">0</parameter>
<parameter name="samples" condition="real">5.1200e+05</parameter>
<parameter name="samplesperthread" condition="real">5.0000e+02</parameter>
<parameter name="steps" condition="int">2</parameter>
<parameter name="stepsbetweensamples" condition="int">1</parameter>
<parameter name="store_configs" condition="int">0</parameter>
<parameter name="storeconfigs" condition="int">0</parameter>
<parameter name="sub_steps" condition="int">5</parameter>
<parameter name="substeps" condition="int">5</parameter>
<parameter name="tau" condition="au">1.5000e-01</parameter>
<parameter name="time_step" condition="au">1.5000e-01</parameter>
<parameter name="timestep" condition="au">1.5000e-01</parameter>
<parameter name="use_drift" condition="string">no</parameter>
<parameter name="usedrift" condition="string">no</parameter>
<parameter name="walkers" condition="int">1</parameter>
<parameter name="warmup_steps" condition="int">0</parameter>
<parameter name="warmupsteps" condition="int">0</parameter>
  DumpConfig==false Nothing (configurations, state) will be saved.
  Walker Samples are dumped every 1 steps.
</vmc>
  EstimatorManagerBase::add replace LocalEnergy estimator.
  EstimatorManagerBase::add replace LocalEnergy estimator.
<optimization-report>
<vmc stage="main" blocks="300">
  Cannot make clones again. Use existing 1 clones
  Initial partition of walkers 0 1 
  Using Particle by Particle moves
  Walker moves without drift
  Total Sample Size   =512000
  Walker distribution on root = 0 1 
  Using Locality Approximation
===== Memory Usage after the buffer registration =====
Available memory on node 0, free + buffers : 85032 MB
Memory footprint by rank 0 on node 0       : 103 MB
==================================================
====================================================
  SimpleFixedNodeBranch::finalize after a VMC block
    QMC counter        = 7
    time step          = 0.15
    reference energy   = -81.3341
    reference variance = 0.776861
====================================================
  Execution time = 2.3302e+00
</vmc>
<opt stage="setup">
  <log>
   Reading configurations from h5FileRoot Al.log.s007
  QMCCostFunction is created with 1 threads.
  Using Nonlocal PP in Opt: NonLocalECP
   Number of samples loaded to each thread : 500 
  VMC Eavg = -8.1333e+01
  VMC Evar = 1.0618e+00
  Total weights = 5.1200e+05
  Execution time = 1.1329e+00
  </log>
</opt>
<opt stage="main" walkers="512000">
  <log>

*****************************************
Building overlap and Hamiltonian matrices
*****************************************

Among totally 82 optimized parameters, largest LM parameter change : 3.6788e-02 at parameter 20

******************************************************************************
Init Cost =  -7.7213e+01    New Cost =  -7.7213e+01  Delta Cost =  -2.2086e-05
******************************************************************************

The new set of parameters is valid. Updating the trial wave function!

*****************************************************************************
Applying the update for shift_i =   1.0000e-02     and shift_s =   3.9062e-03
*****************************************************************************
  Execution time = 4.0208e+00
  </log>
  <optVariables href="Al.log.s007.opt.xml">
uu_0 2.2733e-01 1 1  ON 0
uu_1 7.9178e-02 1 1  ON 1
uu_2 6.1807e-03 1 1  ON 2
uu_3 -1.3363e-02 1 1  ON 3
uu_4 -2.6735e-02 1 1  ON 4
uu_5 -4.2600e-02 1 1  ON 5
uu_6 -4.9844e-02 1 1  ON 6
uu_7 -6.0586e-02 1 1  ON 7
uu_8 -6.1505e-02 1 1  ON 8
uu_9 -4.8351e-02 1 1  ON 9
ud_0 7.8301e-01 1 1  ON 10
ud_1 4.4730e-01 1 1  ON 11
ud_2 2.1794e-01 1 1  ON 12
ud_3 7.8703e-02 1 1  ON 13
ud_4 -4.5070e-04 1 1  ON 14
ud_5 -4.3263e-02 1 1  ON 15
ud_6 -5.8244e-02 1 1  ON 16
ud_7 -8.3081e-02 1 1  ON 17
ud_8 -9.0696e-02 1 1  ON 18
ud_9 -8.1615e-02 1 1  ON 19
eAl_0 -2.0835e+00 1 1  ON 20
eAl_1 -1.2233e+00 1 1  ON 21
eAl_2 -4.3614e-01 1 1  ON 22
eAl_3 -6.3592e-02 1 1  ON 23
eAl_4 1.7890e-01 1 1  ON 24
eAl_5 3.8362e-01 1 1  ON 25
eAl_6 5.5759e-01 1 1  ON 26
eAl_7 6.8806e-01 1 1  ON 27
eAl_8 7.1175e-01 1 1  ON 28
eAl_9 5.6142e-01 1 1  ON 29
uuAl_0 4.5150e-06 1 1  ON 30
uuAl_1 -1.0482e-05 1 1  ON 31
uuAl_2 -1.4882e-05 1 1  ON 32
uuAl_3 -1.0890e-05 1 1  ON 33
uuAl_4 -5.5574e-06 1 1  ON 34
uuAl_5 -3.9895e-07 1 1  ON 35
uuAl_6 -1.1064e-05 1 1  ON 36
uuAl_7 4.0548e-06 1 1  ON 37
uuAl_8 -1.0527e-05 1 1  ON 38
uuAl_9 3.9910e-06 1 1  ON 39
uuAl_10 -2.0449e-05 1 1  ON 40
uuAl_11 3.1464e-05 1 1  ON 41
uuAl_12 -1.2714e-06 1 1  ON 42
uuAl_13 1.2632e-05 1 1  ON 43
uuAl_14 8.9484e-08 1 1  ON 44
uuAl_15 7.3083e-08 1 1  ON 45
uuAl_16 -7.5477e-06 1 1  ON 46
uuAl_17 3.3565e-05 1 1  ON 47
uuAl_18 -4.6927e-05 1 1  ON 48
uuAl_19 5.9809e-06 1 1  ON 49
uuAl_20 2.7101e-06 1 1  ON 50
uuAl_21 7.5862e-06 1 1  ON 51
uuAl_22 -1.3168e-06 1 1  ON 52
uuAl_23 -4.8218e-07 1 1  ON 53
uuAl_24 -1.6998e-06 1 1  ON 54
uuAl_25 3.2284e-07 1 1  ON 55
udAl_0 2.6265e-05 1 1  ON 56
udAl_1 7.6475e-06 1 1  ON 57
udAl_2 -8.1236e-06 1 1  ON 58
udAl_3 -4.2105e-05 1 1  ON 59
udAl_4 -1.2399e-05 1 1  ON 60
udAl_5 -1.0232e-05 1 1  ON 61
udAl_6 2.9939e-05 1 1  ON 62
udAl_7 -4.3773e-05 1 1  ON 63
udAl_8 7.9837e-06 1 1  ON 64
udAl_9 -2.9974e-05 1 1  ON 65
udAl_10 -3.8999e-05 1 1  ON 66
udAl_11 5.4488e-05 1 1  ON 67
udAl_12 -1.3330e-05 1 1  ON 68
udAl_13 4.2103e-05 1 1  ON 69
udAl_14 7.2882e-06 1 1  ON 70
udAl_15 6.4787e-07 1 1  ON 71
udAl_16 3.8224e-05 1 1  ON 72
udAl_17 8.1343e-05 1 1  ON 73
udAl_18 -8.1376e-05 1 1  ON 74
udAl_19 1.6445e-05 1 1  ON 75
udAl_20 -2.9371e-05 1 1  ON 76
udAl_21 1.2598e-05 1 1  ON 77
udAl_22 -2.9505e-06 1 1  ON 78
udAl_23 1.3396e-05 1 1  ON 79
udAl_24 -4.0122e-06 1 1  ON 80
udAl_25 7.8147e-07 1 1  ON 81
  </optVariables>
   Restore the number of walkers to 1, removing 0 walkers.
</opt>
</optimization-report>
  QMC Execution time = 4.0353e+00 secs
  Reusing QMCFixedSampleLinearOptimize
 Using QMCCostFunction::QMCCostFunction

=========================================================
  Start QMCFixedSampleLinearOptimize
  File Root Al.log.s008 append = no 
=========================================================
  Skip QMCDriver::putQMCInfo 
  Resetting Properties of the walkers 1 x 13

=========================================================
  Start VMC
  File Root Al.log.s008 append = no 
=========================================================
Using existing walkers 
  Resetting Properties of the walkers 1 x 13

<vmc function="put">
  qmc_counter=7  my_counter=7
  time step      = 1.5000e-01
  blocks         = 300
  steps          = 2
  substeps       = 5
  current        = 0
  target samples = 5.1200e+05
  walkers/mpi    = 1

  stepsbetweensamples = 1
<parameter name="blocks" condition="int">300</parameter>
<parameter name="blocks_between_recompute" condition="int">0</parameter>
<parameter name="check_properties" condition="int">100</parameter>
<parameter name="checkproperties" condition="int">100</parameter>
<parameter name="current" condition="int">0</parameter>
<parameter name="dmcwalkersperthread" condition="real">5.0000e+02</parameter>
<parameter name="maxcpusecs" condition="real">3.6000e+05</parameter>
<parameter name="record_configs" condition="int">0</parameter>
<parameter name="record_walkers" condition="int">1</parameter>
<parameter name="recordconfigs" condition="int">0</parameter>
<parameter name="recordwalkers" condition="int">1</parameter>
<parameter name="rewind" condition="int">0</parameter>
<parameter name="samples" condition="real">5.1200e+05</parameter>
<parameter name="samplesperthread" condition="real">5.0000e+02</parameter>
<parameter name="steps" condition="int">2</parameter>
<parameter name="stepsbetweensamples" condition="int">1</parameter>
<parameter name="store_configs" condition="int">0</parameter>
<parameter name="storeconfigs" condition="int">0</parameter>
<parameter name="sub_steps" condition="int">5</parameter>
<parameter name="substeps" condition="int">5</parameter>
<parameter name="tau" condition="au">1.5000e-01</parameter>
<parameter name="time_step" condition="au">1.5000e-01</parameter>
<parameter name="timestep" condition="au">1.5000e-01</parameter>
<parameter name="use_drift" condition="string">no</parameter>
<parameter name="usedrift" condition="string">no</parameter>
<parameter name="walkers" condition="int">1</parameter>
<parameter name="warmup_steps" condition="int">0</parameter>
<parameter name="warmupsteps" condition="int">0</parameter>
  DumpConfig==false Nothing (configurations, state) will be saved.
  Walker Samples are dumped every 1 steps.
</vmc>
  EstimatorManagerBase::add replace LocalEnergy estimator.
  EstimatorManagerBase::add replace LocalEnergy estimator.
<optimization-report>
<vmc stage="main" blocks="300">
  Cannot make clones again. Use existing 1 clones
  Initial partition of walkers 0 1 
  Using Particle by Particle moves
  Walker moves without drift
  Total Sample Size   =512000
  Walker distribution on root = 0 1 
  Using Locality Approximation
===== Memory Usage after the buffer registration =====
Available memory on node 0, free + buffers : 85029 MB
Memory footprint by rank 0 on node 0       : 106 MB
==================================================
====================================================
  SimpleFixedNodeBranch::finalize after a VMC block
    QMC counter        = 8
    time step          = 0.15
    reference energy   = -81.3022
    reference variance = 1.13603
====================================================
  Execution time = 2.3075e+00
</vmc>
<opt stage="setup">
  <log>
   Reading configurations from h5FileRoot Al.log.s008
  QMCCostFunction is created with 1 threads.
  Using Nonlocal PP in Opt: NonLocalECP
   Number of samples loaded to each thread : 500 
  VMC Eavg = -8.1335e+01
  VMC Evar = 1.0920e+00
  Total weights = 5.1200e+05
  Execution time = 1.1289e+00
  </log>
</opt>
<opt stage="main" walkers="512000">
  <log>

*****************************************
Building overlap and Hamiltonian matrices
*****************************************

Among totally 82 optimized parameters, largest LM parameter change : 3.7270e-02 at parameter 20

******************************************************************************
Init Cost =  -7.7213e+01    New Cost =  -7.7213e+01  Delta Cost =  -5.3006e-06
******************************************************************************

The new set of parameters is valid. Updating the trial wave function!

*****************************************************************************
Applying the update for shift_i =   1.0000e-02     and shift_s =   3.9062e-03
*****************************************************************************
  Execution time = 3.9946e+00
  </log>
  <optVariables href="Al.log.s008.opt.xml">
uu_0 2.2589e-01 1 1  ON 0
uu_1 7.9999e-02 1 1  ON 1
uu_2 7.2382e-03 1 1  ON 2
uu_3 -1.6777e-02 1 1  ON 3
uu_4 -3.4205e-02 1 1  ON 4
uu_5 -4.7776e-02 1 1  ON 5
uu_6 -5.5039e-02 1 1  ON 6
uu_7 -6.5818e-02 1 1  ON 7
uu_8 -6.9405e-02 1 1  ON 8
uu_9 -5.4574e-02 1 1  ON 9
ud_0 7.8887e-01 1 1  ON 10
ud_1 4.5241e-01 1 1  ON 11
ud_2 2.2076e-01 1 1  ON 12
ud_3 8.0767e-02 1 1  ON 13
ud_4 7.4197e-04 1 1  ON 14
ud_5 -4.3423e-02 1 1  ON 15
ud_6 -5.8522e-02 1 1  ON 16
ud_7 -8.3526e-02 1 1  ON 17
ud_8 -8.8858e-02 1 1  ON 18
ud_9 -7.8832e-02 1 1  ON 19
eAl_0 -2.1208e+00 1 1  ON 20
eAl_1 -1.2516e+00 1 1  ON 21
eAl_2 -4.4830e-01 1 1  ON 22
eAl_3 -5.6942e-02 1 1  ON 23
eAl_4 1.8747e-01 1 1  ON 24
eAl_5 3.8537e-01 1 1  ON 25
eAl_6 5.5397e-01 1 1  ON 26
eAl_7 6.9154e-01 1 1  ON 27
eAl_8 7.1315e-01 1 1  ON 28
eAl_9 5.6693e-01 1 1  ON 29
uuAl_0 4.4800e-06 1 1  ON 30
uuAl_1 -1.0800e-05 1 1  ON 31
uuAl_2 -1.4107e-05 1 1  ON 32
uuAl_3 -1.0427e-05 1 1  ON 33
uuAl_4 -4.8755e-06 1 1  ON 34
uuAl_5 -2.2215e-07 1 1  ON 35
uuAl_6 -1.3269e-05 1 1  ON 36
uuAl_7 4.6011e-06 1 1  ON 37
uuAl_8 -7.7547e-06 1 1  ON 38
uuAl_9 5.6920e-06 1 1  ON 39
uuAl_10 -1.8561e-05 1 1  ON 40
uuAl_11 2.8387e-05 1 1  ON 41
uuAl_12 -1.9698e-06 1 1  ON 42
uuAl_13 1.2406e-05 1 1  ON 43
uuAl_14 1.2543e-06 1 1  ON 44
uuAl_15 2.4825e-08 1 1  ON 45
uuAl_16 -1.4574e-05 1 1  ON 46
uuAl_17 3.5498e-05 1 1  ON 47
uuAl_18 -4.5444e-05 1 1  ON 48
uuAl_19 6.2794e-06 1 1  ON 49
uuAl_20 5.1477e-06 1 1  ON 50
uuAl_21 6.8986e-06 1 1  ON 51
uuAl_22 -1.2727e-06 1 1  ON 52
uuAl_23 -1.7092e-06 1 1  ON 53
uuAl_24 -1.4912e-06 1 1  ON 54
uuAl_25 2.9690e-07 1 1  ON 55
udAl_0 2.4747e-05 1 1  ON 56
udAl_1 7.4970e-06 1 1  ON 57
udAl_2 -6.3378e-06 1 1  ON 58
udAl_3 -4.1875e-05 1 1  ON 59
udAl_4 -1.2840e-05 1 1  ON 60
udAl_5 -1.0396e-05 1 1  ON 61
udAl_6 3.1216e-05 1 1  ON 62
udAl_7 -4.2039e-05 1 1  ON 63
udAl_8 7.6805e-06 1 1  ON 64
udAl_9 -2.9510e-05 1 1  ON 65
udAl_10 -3.8970e-05 1 1  ON 66
udAl_11 5.3860e-05 1 1  ON 67
udAl_12 -1.2925e-05 1 1  ON 68
udAl_13 4.0135e-05 1 1  ON 69
udAl_14 6.5874e-06 1 1  ON 70
udAl_15 6.8110e-07 1 1  ON 71
udAl_16 3.8295e-05 1 1  ON 72
udAl_17 7.7974e-05 1 1  ON 73
udAl_18 -7.9864e-05 1 1  ON 74
udAl_19 1.6046e-05 1 1  ON 75
udAl_20 -2.8743e-05 1 1  ON 76
udAl_21 1.2451e-05 1 1  ON 77
udAl_22 -2.8986e-06 1 1  ON 78
udAl_23 1.3718e-05 1 1  ON 79
udAl_24 -3.9809e-06 1 1  ON 80
udAl_25 7.6779e-07 1 1  ON 81
  </optVariables>
   Restore the number of walkers to 1, removing 0 walkers.
</opt>
</optimization-report>
  QMC Execution time = 4.0095e+00 secs
  Reusing QMCFixedSampleLinearOptimize
 Using QMCCostFunction::QMCCostFunction

=========================================================
  Start QMCFixedSampleLinearOptimize
  File Root Al.log.s009 append = no 
=========================================================
  Skip QMCDriver::putQMCInfo 
  Resetting Properties of the walkers 1 x 13

=========================================================
  Start VMC
  File Root Al.log.s009 append = no 
=========================================================
Using existing walkers 
  Resetting Properties of the walkers 1 x 13

<vmc function="put">
  qmc_counter=8  my_counter=8
  time step      = 1.5000e-01
  blocks         = 300
  steps          = 2
  substeps       = 5
  current        = 0
  target samples = 5.1200e+05
  walkers/mpi    = 1

  stepsbetweensamples = 1
<parameter name="blocks" condition="int">300</parameter>
<parameter name="blocks_between_recompute" condition="int">0</parameter>
<parameter name="check_properties" condition="int">100</parameter>
<parameter name="checkproperties" condition="int">100</parameter>
<parameter name="current" condition="int">0</parameter>
<parameter name="dmcwalkersperthread" condition="real">5.0000e+02</parameter>
<parameter name="maxcpusecs" condition="real">3.6000e+05</parameter>
<parameter name="record_configs" condition="int">0</parameter>
<parameter name="record_walkers" condition="int">1</parameter>
<parameter name="recordconfigs" condition="int">0</parameter>
<parameter name="recordwalkers" condition="int">1</parameter>
<parameter name="rewind" condition="int">0</parameter>
<parameter name="samples" condition="real">5.1200e+05</parameter>
<parameter name="samplesperthread" condition="real">5.0000e+02</parameter>
<parameter name="steps" condition="int">2</parameter>
<parameter name="stepsbetweensamples" condition="int">1</parameter>
<parameter name="store_configs" condition="int">0</parameter>
<parameter name="storeconfigs" condition="int">0</parameter>
<parameter name="sub_steps" condition="int">5</parameter>
<parameter name="substeps" condition="int">5</parameter>
<parameter name="tau" condition="au">1.5000e-01</parameter>
<parameter name="time_step" condition="au">1.5000e-01</parameter>
<parameter name="timestep" condition="au">1.5000e-01</parameter>
<parameter name="use_drift" condition="string">no</parameter>
<parameter name="usedrift" condition="string">no</parameter>
<parameter name="walkers" condition="int">1</parameter>
<parameter name="warmup_steps" condition="int">0</parameter>
<parameter name="warmupsteps" condition="int">0</parameter>
  DumpConfig==false Nothing (configurations, state) will be saved.
  Walker Samples are dumped every 1 steps.
</vmc>
  EstimatorManagerBase::add replace LocalEnergy estimator.
  EstimatorManagerBase::add replace LocalEnergy estimator.
<optimization-report>
<vmc stage="main" blocks="300">
  Cannot make clones again. Use existing 1 clones
  Initial partition of walkers 0 1 
  Using Particle by Particle moves
  Walker moves without drift
  Total Sample Size   =512000
  Walker distribution on root = 0 1 
  Using Locality Approximation
===== Memory Usage after the buffer registration =====
Available memory on node 0, free + buffers : 85027 MB
Memory footprint by rank 0 on node 0       : 108 MB
==================================================
====================================================
  SimpleFixedNodeBranch::finalize after a VMC block
    QMC counter        = 9
    time step          = 0.15
    reference energy   = -81.3108
    reference variance = 1.95604
====================================================
  Execution time = 2.3458e+00
</vmc>
<opt stage="setup">
  <log>
   Reading configurations from h5FileRoot Al.log.s009
  QMCCostFunction is created with 1 threads.
  Using Nonlocal PP in Opt: NonLocalECP
   Number of samples loaded to each thread : 500 
  VMC Eavg = -8.1333e+01
  VMC Evar = 1.0760e+00
  Total weights = 5.1200e+05
  Execution time = 1.1314e+00
  </log>
</opt>
<opt stage="main" walkers="512000">
  <log>

*****************************************
Building overlap and Hamiltonian matrices
*****************************************

Among totally 82 optimized parameters, largest LM parameter change : 3.2205e-02 at parameter 21

******************************************************************************
Init Cost =  -7.7213e+01    New Cost =  -7.7213e+01  Delta Cost =  -1.7112e-04
******************************************************************************

The new set of parameters is valid. Updating the trial wave function!

*****************************************************************************
Applying the update for shift_i =   1.0000e-02     and shift_s =   3.9062e-03
*****************************************************************************
  Execution time = 4.0323e+00
  </log>
  <optVariables href="Al.log.s009.opt.xml">
uu_0 2.2396e-01 1 1  ON 0
uu_1 7.4822e-02 1 1  ON 1
uu_2 2.1865e-03 1 1  ON 2
uu_3 -1.8743e-02 1 1  ON 3
uu_4 -3.2686e-02 1 1  ON 4
uu_5 -4.6760e-02 1 1  ON 5
uu_6 -5.4638e-02 1 1  ON 6
uu_7 -6.7291e-02 1 1  ON 7
uu_8 -7.1296e-02 1 1  ON 8
uu_9 -5.9343e-02 1 1  ON 9
ud_0 7.9218e-01 1 1  ON 10
ud_1 4.5582e-01 1 1  ON 11
ud_2 2.2434e-01 1 1  ON 12
ud_3 8.5080e-02 1 1  ON 13
ud_4 5.4851e-03 1 1  ON 14
ud_5 -3.8096e-02 1 1  ON 15
ud_6 -5.3281e-02 1 1  ON 16
ud_7 -7.9821e-02 1 1  ON 17
ud_8 -8.7888e-02 1 1  ON 18
ud_9 -7.7016e-02 1 1  ON 19
eAl_0 -2.1498e+00 1 1  ON 20
eAl_1 -1.2838e+00 1 1  ON 21
eAl_2 -4.5810e-01 1 1  ON 22
eAl_3 -5.4776e-02 1 1  ON 23
eAl_4 1.9294e-01 1 1  ON 24
eAl_5 3.8280e-01 1 1  ON 25
eAl_6 5.5895e-01 1 1  ON 26
eAl_7 6.9711e-01 1 1  ON 27
eAl_8 7.1685e-01 1 1  ON 28
eAl_9 5.6813e-01 1 1  ON 29
uuAl_0 5.3698e-06 1 1  ON 30
uuAl_1 -1.0891e-05 1 1  ON 31
uuAl_2 -1.5325e-05 1 1  ON 32
uuAl_3 -1.0907e-05 1 1  ON 33
uuAl_4 -5.0752e-06 1 1  ON 34
uuAl_5 -3.4762e-07 1 1  ON 35
uuAl_6 -1.3382e-05 1 1  ON 36
uuAl_7 4.5278e-06 1 1  ON 37
uuAl_8 -8.8510e-06 1 1  ON 38
uuAl_9 4.9360e-06 1 1  ON 39
uuAl_10 -1.9341e-05 1 1  ON 40
uuAl_11 2.9638e-05 1 1  ON 41
uuAl_12 -1.7288e-06 1 1  ON 42
uuAl_13 1.3250e-05 1 1  ON 43
uuAl_14 1.0846e-06 1 1  ON 44
uuAl_15 1.0354e-08 1 1  ON 45
uuAl_16 -1.2909e-05 1 1  ON 46
uuAl_17 3.6260e-05 1 1  ON 47
uuAl_18 -4.5746e-05 1 1  ON 48
uuAl_19 6.0285e-06 1 1  ON 49
uuAl_20 4.0325e-06 1 1  ON 50
uuAl_21 6.8537e-06 1 1  ON 51
uuAl_22 -1.2153e-06 1 1  ON 52
uuAl_23 -1.4677e-06 1 1  ON 53
uuAl_24 -1.4105e-06 1 1  ON 54
uuAl_25 2.7027e-07 1 1  ON 55
udAl_0 2.6573e-05 1 1  ON 56
udAl_1 8.5158e-06 1 1  ON 57
udAl_2 -1.0233e-05 1 1  ON 58
udAl_3 -4.2852e-05 1 1  ON 59
[...]
====================================================
  Execution time = 2.3351e+00
</vmc>
<opt stage="setup">
  <log>
   Reading configurations from h5FileRoot Al.log.s020
  QMCCostFunction is created with 1 threads.
  Using Nonlocal PP in Opt: NonLocalECP
   Number of samples loaded to each thread : 500 
  VMC Eavg = -8.1335e+01
  VMC Evar = 1.0846e+00
  Total weights = 5.1200e+05
  Execution time = 1.1238e+00
  </log>
</opt>
<opt stage="main" walkers="512000">
  <log>

*****************************************
Building overlap and Hamiltonian matrices
*****************************************

Among totally 82 optimized parameters, largest LM parameter change : 2.3083e-02 at parameter 20

******************************************************************************
Init Cost =  -7.7214e+01    New Cost =  -7.7214e+01  Delta Cost =  -1.7088e-04
******************************************************************************

The new set of parameters is valid. Updating the trial wave function!

*****************************************************************************
Applying the update for shift_i =   1.0000e-02     and shift_s =   3.9062e-03
*****************************************************************************
  Execution time = 4.0236e+00
  </log>
  <optVariables href="Al.log.s020.opt.xml">
uu_0 1.9690e-01 1 1  ON 0
uu_1 5.2382e-02 1 1  ON 1
uu_2 -1.4103e-02 1 1  ON 2
uu_3 -2.9697e-02 1 1  ON 3
uu_4 -4.0751e-02 1 1  ON 4
uu_5 -5.4633e-02 1 1  ON 5
uu_6 -6.3463e-02 1 1  ON 6
uu_7 -7.4833e-02 1 1  ON 7
uu_8 -7.5336e-02 1 1  ON 8
uu_9 -6.2075e-02 1 1  ON 9
ud_0 8.2177e-01 1 1  ON 10
ud_1 4.7866e-01 1 1  ON 11
ud_2 2.3911e-01 1 1  ON 12
ud_3 9.4028e-02 1 1  ON 13
ud_4 1.3252e-02 1 1  ON 14
ud_5 -2.8946e-02 1 1  ON 15
ud_6 -4.5234e-02 1 1  ON 16
ud_7 -7.2150e-02 1 1  ON 17
ud_8 -8.0504e-02 1 1  ON 18
ud_9 -6.9561e-02 1 1  ON 19
eAl_0 -2.3900e+00 1 1  ON 20
eAl_1 -1.5123e+00 1 1  ON 21
eAl_2 -6.2010e-01 1 1  ON 22
eAl_3 -1.1997e-01 1 1  ON 23
eAl_4 1.8620e-01 1 1  ON 24
eAl_5 4.0888e-01 1 1  ON 25
eAl_6 5.8396e-01 1 1  ON 26
eAl_7 7.2090e-01 1 1  ON 27
eAl_8 7.4300e-01 1 1  ON 28
eAl_9 5.9374e-01 1 1  ON 29
uuAl_0 5.2176e-06 1 1  ON 30
uuAl_1 -9.5267e-06 1 1  ON 31
uuAl_2 -1.5761e-05 1 1  ON 32
uuAl_3 -1.0579e-05 1 1  ON 33
uuAl_4 -5.2049e-06 1 1  ON 34
uuAl_5 1.5876e-06 1 1  ON 35
uuAl_6 -1.2146e-05 1 1  ON 36
uuAl_7 1.8572e-06 1 1  ON 37
uuAl_8 -9.3639e-06 1 1  ON 38
uuAl_9 4.6123e-06 1 1  ON 39
uuAl_10 -1.9885e-05 1 1  ON 40
uuAl_11 3.1924e-05 1 1  ON 41
uuAl_12 -1.9666e-06 1 1  ON 42
uuAl_13 1.4764e-05 1 1  ON 43
uuAl_14 1.0371e-06 1 1  ON 44
uuAl_15 4.5664e-08 1 1  ON 45
uuAl_16 -1.0948e-05 1 1  ON 46
uuAl_17 3.8321e-05 1 1  ON 47
uuAl_18 -4.9083e-05 1 1  ON 48
uuAl_19 6.7646e-06 1 1  ON 49
uuAl_20 2.7056e-06 1 1  ON 50
uuAl_21 7.5201e-06 1 1  ON 51
uuAl_22 -1.3891e-06 1 1  ON 52
uuAl_23 -5.5451e-07 1 1  ON 53
uuAl_24 -1.6791e-06 1 1  ON 54
uuAl_25 3.3107e-07 1 1  ON 55
udAl_0 2.6977e-05 1 1  ON 56
udAl_1 8.5052e-06 1 1  ON 57
udAl_2 -7.8274e-06 1 1  ON 58
udAl_3 -4.2847e-05 1 1  ON 59
udAl_4 -1.2340e-05 1 1  ON 60
udAl_5 -9.6788e-06 1 1  ON 61
udAl_6 3.1042e-05 1 1  ON 62
udAl_7 -4.4352e-05 1 1  ON 63
udAl_8 7.7928e-06 1 1  ON 64
udAl_9 -3.0612e-05 1 1  ON 65
udAl_10 -3.9042e-05 1 1  ON 66
udAl_11 5.3902e-05 1 1  ON 67
udAl_12 -1.3268e-05 1 1  ON 68
udAl_13 4.1561e-05 1 1  ON 69
udAl_14 7.0990e-06 1 1  ON 70
udAl_15 6.6661e-07 1 1  ON 71
udAl_16 4.1692e-05 1 1  ON 72
udAl_17 7.8927e-05 1 1  ON 73
udAl_18 -7.8603e-05 1 1  ON 74
udAl_19 1.6121e-05 1 1  ON 75
udAl_20 -3.0792e-05 1 1  ON 76
udAl_21 1.2144e-05 1 1  ON 77
udAl_22 -2.8756e-06 1 1  ON 78
udAl_23 1.4199e-05 1 1  ON 79
udAl_24 -3.9814e-06 1 1  ON 80
udAl_25 7.6832e-07 1 1  ON 81
  </optVariables>
   Restore the number of walkers to 1, removing 0 walkers.
</opt>
</optimization-report>
  QMC Execution time = 4.0381e+00 secs

=========================================================
  Start VMC
  File Root Al.log.s021 append = no 
=========================================================
  Using the current 1 walkers.
  Total number of walkers: 1.0240e+03
  Total weight: 1.0240e+03
  Resetting Properties of the walkers 1 x 13

<vmc function="put">
  qmc_counter=0  my_counter=0
  time step      = 1.5000e-01
  blocks         = 200
  steps          = 1
  substeps       = 30
  current        = 0
  target samples = 4.0960e+03
  walkers/mpi    = 1

  stepsbetweensamples = 50
<parameter name="blocks" condition="int">200</parameter>
<parameter name="blocks_between_recompute" condition="int">0</parameter>
<parameter name="check_properties" condition="int">100</parameter>
<parameter name="checkproperties" condition="int">100</parameter>
<parameter name="current" condition="int">0</parameter>
<parameter name="dmcwalkersperthread" condition="real">4.0000e+00</parameter>
<parameter name="maxcpusecs" condition="real">3.6000e+05</parameter>
<parameter name="record_configs" condition="int">0</parameter>
<parameter name="record_walkers" condition="int">50</parameter>
<parameter name="recordconfigs" condition="int">0</parameter>
<parameter name="recordwalkers" condition="int">50</parameter>
<parameter name="rewind" condition="int">0</parameter>
<parameter name="samples" condition="real">4.0960e+03</parameter>
<parameter name="samplesperthread" condition="real">4.0000e+00</parameter>
<parameter name="steps" condition="int">1</parameter>
<parameter name="stepsbetweensamples" condition="int">50</parameter>
<parameter name="store_configs" condition="int">0</parameter>
<parameter name="storeconfigs" condition="int">0</parameter>
<parameter name="sub_steps" condition="int">30</parameter>
<parameter name="substeps" condition="int">30</parameter>
<parameter name="tau" condition="au">1.5000e-01</parameter>
<parameter name="time_step" condition="au">1.5000e-01</parameter>
<parameter name="timestep" condition="au">1.5000e-01</parameter>
<parameter name="use_drift" condition="string">no</parameter>
<parameter name="usedrift" condition="string">no</parameter>
<parameter name="walkers" condition="int">1</parameter>
<parameter name="warmup_steps" condition="int">100</parameter>
<parameter name="warmupsteps" condition="int">100</parameter>
  DumpConfig==false Nothing (configurations, state) will be saved.
  Walker Samples are dumped every 50 steps.
</vmc>
  EstimatorManagerBase::add replace LocalEnergy estimator.
  Cannot make clones again. Use existing 1 clones
  Initial partition of walkers 0 1 

  Using Particle by Particle moves
  Walker moves without drift
  Total Sample Size   =4096
  Walker distribution on root = 0 1 
  Using Locality Approximation
===== Memory Usage after the buffer registration =====
Available memory on node 0, free + buffers : 84984 MB
Memory footprint by rank 0 on node 0       : 135 MB
==================================================
  Anonymous Buffer size per walker : 4832 Bytes.
MEMORY increase 0 MB VMC::resetRun
====================================================
  SimpleFixedNodeBranch::finalize after a VMC block
    QMC counter        = 21
    time step          = 0.15
    reference energy   = -81.3763
    reference variance = 1.02233
====================================================
  QMC Execution time = 3.4569e+00 secs

=========================================================
  Start DMC
  File Root Al.log.s022 append = no 
=========================================================
Using existing walkers 
  Resetting Properties of the walkers 1 x 13
  EstimatorManagerBase::add replace LocalEnergy estimator.
  Cannot make clones again. Use existing 1 clones
  Total number of walkers: 4.0960e+03
  Total weight: 4.0960e+03
  Creating WalkerController: target  number of walkers = 4096
  Using WalkerControlMPI for dynamic population control.
  START ALL OVER 
  WalkerControlBase parameters 
    maxCopy = 2
    Max Walkers per MPI rank 9
    Min Walkers per MPI rank 1
    Using non-blocking send/recv
  QMC counter      = 22
  time step        = 2.0000e-02
  effective time step = 2.0000e-02
  trial energy     = -8.1376e+01
  reference energy = -8.1376e+01
  Feedback = 1.0000e+00
  reference variance = 1.0223e+00
  target walkers = 4096
  branching cutoff scheme classic
  branch cutoff = 5.0000e+01 7.5000e+01
  Max and minimum walkers per node= 9 1
  QMC Status (BranchMode) = 0000001101
  Initial partition of walkers on a node: 0 4 
  Updates by particle-by-particle moves
  DMC moves are rejected when a node crossing is detected
  Using Non-local T-moves v0, M. Casula, PRB 74, 161102(R) (2006)
===== Memory Usage after the buffer registration =====
Available memory on node 0, free + buffers : 84984 MB
Memory footprint by rank 0 on node 0       : 135 MB
==================================================
SimpleFixedNodeBranch::checkParameters 
  Average Energy of a population  = -81.2989
  Energy Variance = 14.0911

  Fluctuating population
  Persistent walkers are killed after 1 MC sweeps
  BranchInterval = 1
  Steps per block = 50
  Number of blocks = 70

  DMC Engine Initialization = 3.1307e-02 secs

 Warmup is completed after 100

  TauEff     = 1.7750e-02
 TauEff/Tau = 8.8749e-01
  Etrial     = -8.1426e+01
 Running average of energy = -8.1365e+01
                  Variance = 1.2581e+00
branch cutoff = 1.2581e+01 1.8871e+01
====================================================
  SimpleFixedNodeBranch::finalize after a DMC block
    QMC counter                   = 22
    time step                     = 0.02
    effective time step           = 0.0177508
    trial energy                  = -81.3603
    reference energy              = -81.3669
    reference variance            = 1.25808
    target walkers                = 4096
    branch cutoff                 = 12.5808 18.8712
    Max and minimum walkers per node= 9 1
    Feedback                      = 1
    QMC Status (BranchMode)       = 0000001111
====================================================
  QMC Execution time = 2.1980e+01 secs
  Reusing DMC
BRANCH resetRun
 SimpleFixedNodeBranch::resetRun detected changes in <parameter>'s 
 BranchMode : 0000001111 0000001111
  WalkerControlBase parameters 
    maxCopy = 2
    Max Walkers per MPI rank 9
    Min Walkers per MPI rank 1
    Using non-blocking send/recv
 iParam (old):                  0                 1                22              4096                 9                 1                 1                 0
 iParam (new):                100                 1                22              4096                 9                 1                 1                 0
 vParam (old):   2.0000000000e-02  1.7750798077e-02 -8.1360334658e+01 -8.1366948277e+01 -8.1386474134e+01  1.8871188549e+01  1.2580792366e+01  1.5897249885e-01  1.2580792366e+00 -2.7672901062e+05  3.4010000000e+03  1.0000000000e+00  1.0000000000e+01  1.0000000000e+00  1.0000000000e+00  1.0000000000e+00  1.0000000000e+00
 vParam (new):   1.0000000000e-02  1.7750798077e-02 -8.1360334658e+01 -8.1366948277e+01 -8.1386474134e+01  1.8871188549e+01  1.2580792366e+01  1.5897249885e-01  1.2580792366e+00 -2.7672901062e+05  3.4010000000e+03  1.0000000000e+00  1.0000000000e+01  1.0000000000e+00  1.0000000000e+00  1.0000000000e+00  1.0000000000e+00

 Using branching cutoff scheme classic
SimpleFixedNodeBranch::checkParameters 
  Average Energy of a population  = -81.3845
  Energy Variance = 1.17033

  Using Non-local T-moves v0, M. Casula, PRB 74, 161102(R) (2006)
===== Memory Usage after the buffer registration =====
Available memory on node 0, free + buffers : 84968 MB
Memory footprint by rank 0 on node 0       : 137 MB
==================================================

=========================================================
  Start DMC
  File Root Al.log.s023 append = no 
=========================================================
Using existing walkers 
  Resetting Properties of the walkers 1 x 13
  EstimatorManagerBase::add replace LocalEnergy estimator.
  Cannot make clones again. Use existing 1 clones
SimpleFixedNodeBranch::checkParameters 
  Average Energy of a population  = -81.4381
  Energy Variance = 11.9785

  Fluctuating population
  Persistent walkers are killed after 1 MC sweeps
  BranchInterval = 1
  Steps per block = 100
  Number of blocks = 90

  DMC Engine Initialization = 3.8099288940e-04 secs

 Warmup is completed after 100

  TauEff     = 9.4870228179e-03
 TauEff/Tau = 9.4870228179e-01
  Etrial     = -8.1364739242e+01
 Running average of energy = -8.1357154379e+01
                  Variance = 1.2107931625e+00
branch cutoff = 1.2107931625e+01 1.8161897437e+01
====================================================
  SimpleFixedNodeBranch::finalize after a DMC block
    QMC counter                   = 23
    time step                     = 0.01
    effective time step           = 0.00948662
    trial energy                  = -81.378
    reference energy              = -81.3647
    reference variance            = 1.21079
    target walkers                = 4096
    branch cutoff                 = 12.1079 18.1619
    Max and minimum walkers per node= 9 1
    Feedback                      = 1
    QMC Status (BranchMode)       = 0000001111
====================================================
  QMC Execution time = 5.5174e+01 secs
  Reusing DMC
BRANCH resetRun
 SimpleFixedNodeBranch::resetRun detected changes in <parameter>'s 
 BranchMode : 0000001111 0000001111
  WalkerControlBase parameters 
    maxCopy = 2
    Max Walkers per MPI rank 9
    Min Walkers per MPI rank 1
    Using non-blocking send/recv
 iParam (old):                  0                 1                23              4096                 9                 1                 1                 0
 iParam (new):                200                 1                23              4096                 9                 1                 1                 0
 vParam (old):   1.0000000000e-02  9.4866238719e-03 -8.1377993412e+01 -8.1364655031e+01 -8.1354984520e+01  1.8161897437e+01  1.2107931625e+01  1.6518097904e-01  1.2107931625e+00 -7.2422678476e+05  8.9010000000e+03  1.0000000000e+00  1.0000000000e+01  1.0000000000e+00  1.0000000000e+00  1.0000000000e+00  1.0000000000e+00
 vParam (new):   5.0000000000e-03  9.4866238719e-03 -8.1377993412e+01 -8.1364655031e+01 -8.1354984520e+01  1.8161897437e+01  1.2107931625e+01  1.6518097904e-01  1.2107931625e+00 -7.2422678476e+05  8.9010000000e+03  1.0000000000e+00  1.0000000000e+01  1.0000000000e+00  1.0000000000e+00  1.0000000000e+00  1.0000000000e+00

 Using branching cutoff scheme classic
SimpleFixedNodeBranch::checkParameters 
  Average Energy of a population  = -81.3514
  Energy Variance = 1.12251

  Using Non-local T-moves v0, M. Casula, PRB 74, 161102(R) (2006)
===== Memory Usage after the buffer registration =====
Available memory on node 0, free + buffers : 84957 MB
Memory footprint by rank 0 on node 0       : 140 MB
==================================================

=========================================================
  Start DMC
  File Root Al.log.s024 append = no 
=========================================================
Using existing walkers 
  Resetting Properties of the walkers 1 x 13
  EstimatorManagerBase::add replace LocalEnergy estimator.
  Cannot make clones again. Use existing 1 clones
SimpleFixedNodeBranch::checkParameters 
  Average Energy of a population  = -81.2608
  Energy Variance = 6.18599

  Fluctuating population
  Persistent walkers are killed after 1 MC sweeps
  BranchInterval = 1
  Steps per block = 200
  Number of blocks = 110

  DMC Engine Initialization = 3.1900405884e-04 secs

 Warmup is completed after 200

  TauEff     = 4.8913711746e-03
 TauEff/Tau = 9.7827423492e-01
  Etrial     = -8.1482343538e+01
 Running average of energy = -8.1362984124e+01
                  Variance = 1.1307173625e+00
branch cutoff = 1.1307173625e+01 1.6960760438e+01
====================================================
  SimpleFixedNodeBranch::finalize after a DMC block
    QMC counter                   = 24
    time step                     = 0.005
    effective time step           = 0.00489091
    trial energy                  = -81.3612
    reference energy              = -81.3631
    reference variance            = 1.13072
    target walkers                = 4096
    branch cutoff                 = 11.3072 16.9608
    Max and minimum walkers per node= 9 1
    Feedback                      = 1
    QMC Status (BranchMode)       = 0000001111
====================================================
  QMC Execution time = 1.3939e+02 secs
  Reusing DMC
BRANCH resetRun
 SimpleFixedNodeBranch::resetRun detected changes in <parameter>'s 
 BranchMode : 0000001111 0000001111
  WalkerControlBase parameters 
    maxCopy = 2
    Max Walkers per MPI rank 9
    Min Walkers per MPI rank 1
    Using non-blocking send/recv
 iParam (old):                  0                 1                24              4096                 9                 1                 1                 0
 iParam (new):                400                 1                24              4096                 9                 1                 1                 0
 vParam (old):   5.0000000000e-03  4.8909147099e-03 -8.1361178914e+01 -8.1363133949e+01 -8.1374893128e+01  1.6960760438e+01  1.1307173625e+01  1.7687886171e-01  1.1307173625e+00 -1.7737976950e+06  2.1801000000e+04  1.0000000000e+00  1.0000000000e+01  1.0000000000e+00  1.0000000000e+00  1.0000000000e+00  1.0000000000e+00
 vParam (new):   2.5000000000e-03  4.8909147099e-03 -8.1361178914e+01 -8.1363133949e+01 -8.1374893128e+01  1.6960760438e+01  1.1307173625e+01  1.7687886171e-01  1.1307173625e+00 -1.7737976950e+06  2.1801000000e+04  1.0000000000e+00  1.0000000000e+01  1.0000000000e+00  1.0000000000e+00  1.0000000000e+00  1.0000000000e+00

 Using branching cutoff scheme classic
SimpleFixedNodeBranch::checkParameters 
  Average Energy of a population  = -81.3794
  Energy Variance = 1.11248

  Using Non-local T-moves v0, M. Casula, PRB 74, 161102(R) (2006)
===== Memory Usage after the buffer registration =====
Available memory on node 0, free + buffers : 84947 MB
Memory footprint by rank 0 on node 0       : 144 MB
==================================================

=========================================================
  Start DMC
  File Root Al.log.s025 append = no 
=========================================================
Using existing walkers 
  Resetting Properties of the walkers 1 x 13
  EstimatorManagerBase::add replace LocalEnergy estimator.
  Cannot make clones again. Use existing 1 clones
SimpleFixedNodeBranch::checkParameters 
  Average Energy of a population  = -81.3778
  Energy Variance = 4.46395

  Fluctuating population
  Persistent walkers are killed after 1 MC sweeps
  BranchInterval = 1
  Steps per block = 400
  Number of blocks = 130

  DMC Engine Initialization = 3.1995773315e-04 secs

 Warmup is completed after 400

  TauEff     = 2.4778316119e-03
 TauEff/Tau = 9.9113264476e-01
  Etrial     = -8.0893261746e+01
 Running average of energy = -8.1362809238e+01
                  Variance = 1.0714211215e+00
branch cutoff = 1.0714211215e+01 1.6071316822e+01
====================================================
  SimpleFixedNodeBranch::finalize after a DMC block
    QMC counter                   = 25
    time step                     = 0.0025
    effective time step           = 0.00247775
    trial energy                  = -81.3704
    reference energy              = -81.3626
    reference variance            = 1.07142
    target walkers                = 4096
    branch cutoff                 = 10.7142 16.0713
    Max and minimum walkers per node= 9 1
    Feedback                      = 1
    QMC Status (BranchMode)       = 0000001111
====================================================
  QMC Execution time = 3.5048e+02 secs
  Total Execution time = 6.5252e+02 secs

=========================================================
  A new xml input file : Al.log.s025.cont.xml
TACC:  Shutdown complete. Exiting. 
