
 Primary working directories    : /global/cscratch1/sd/aannabe
 Secondary working directories  : /global/cscratch1/sd/aannabe
 Wavefunction directory         : /global/homes/a/aannabe/wfu/
 Main file repository           : /global/cscratch1/sd/aannabe/

 SHA1      : 2873118e99aab1bc19f5b6fc1784693c06d15c95
 NAME      : 2015.1.8
 ARCHNAME  : linux/x86_64
 FC        : /opt/cray/pe/craype/2.5.5/bin/ftn
 BLASLIB   : -Wl,-_start-group /opt/intel/compilers_and_libraries_2016.3.210/linux/mkl/lib/intel64/libmkl_intel_ilp64.a /opt/intel/compilers_and_libraries_2016.3.210/linux/mkl/lib/intel64/libmkl_intel_thread.a /opt/intel/compilers_and_libraries_2016.3.210/linux/mkl/lib/intel64/libmkl_core.a -Wl,-_end-group
 id        : lbl

 Nodes     nprocs
 nid00447     1

 Using customized tuning parameters: mindgm=8; mindgv=16; mindgc=4; mindgr=1; noblas=0; minvec=7
 default implementation of scratch files=df  

 ***,B
 memory,512,m
 gthresh,twoint=1.e-12
 
 gprint,basis,orbitals
 gexpec,ekin,pot
 
 angstrom
 geometry={
 1                                                                               ! Number of atoms
 B 0.0 0.0 0.0
 }
 
 basis={
 Including file /global/homes/a/aannabe/docs/accurate/ccECP_Kh/pps/B.pp
 Including file /global/homes/a/aannabe/docs/accurate/ccECP_Kh/basis/aug-cc-pVnZ/B_tz.basis
 }
 
 {rhf
  start,atden
  wf,3,2,1
  occ,1,1,0,0,0,0,0,0
  open,1.2
  save,4202.2
 }
 {multi
  start,4202.2
  occ,1,1,1,0,1,0,0
  closed,1,0,0,0,0,0,0,0
  wf,3,2,1;state,1
  wf,3,3,1;state,1
  wf,3,5,1;state,1
  natorb,ci,print
  orbital,5202.2
 }
 {rhf,nitord=1,maxit=0
  start,5202.2
  wf,3,2,1
  occ,1,1,0,0,0,0,0,0
  open,1.2
 }
 
 scf(i)=energy
 
 _CC_NORM_MAX=2.0
 {rccsd(t)
 maxit,100
 core
 }
 posthf(i)=energy
 
 table,scf,posthf,ekin,pot
 save,3.csv,new
 
 

 Variables initialized (889), CPU time= 0.01 sec
 Commands  initialized (702), CPU time= 0.00 sec, 572 directives.
 Default parameters read. Elapsed time= 0.13 sec

 Checking input...
 Passed
1


                                         ***  PROGRAM SYSTEM MOLPRO  ***
                                       Copyright, TTI GmbH Stuttgart, 2015
                                    Version 2015.1 linked Sep  7 2016 23:09:38


 **********************************************************************************************************************************
 LABEL *   B                                                                             
  64 bit serial version                                                                  DATE: 30-Oct-18          TIME: 10:46:16  
 **********************************************************************************************************************************

 SHA1:             2873118e99aab1bc19f5b6fc1784693c06d15c95
 **********************************************************************************************************************************

 THRESHOLDS:

 ZERO    =  1.00D-12  ONEINT  =  1.00D-12  TWOINT  =  1.00D-12  PREFAC  =  1.00D-14  LOCALI  =  1.00D-09  EORDER  =  1.00D-04
 ENERGY  =  0.00D+00  ETEST   =  0.00D+00  EDENS   =  0.00D+00  THRDEDEF=  1.00D-06  GRADIENT=  1.00D-02  STEP    =  1.00D-03
 ORBITAL =  1.00D-05  CIVEC   =  1.00D-05  COEFF   =  1.00D-04  PRINTCI =  5.00D-02  PUNCHCI =  9.90D+01  OPTGRAD =  3.00D-04
 OPTENERG=  1.00D-06  OPTSTEP =  3.00D-04  THRGRAD =  1.00D-10  COMPRESS=  1.00D-11  VARMIN  =  1.00D-07  VARMAX  =  1.00D-03
 THRDOUB =  0.00D+00  THRDIV  =  1.00D-05  THRRED  =  1.00D-07  THRPSP  =  1.00D+00  THRDC   =  1.00D-10  THRCS   =  1.00D-10
 THRNRM  =  1.00D-08  THREQ   =  0.00D+00  THRDE   =  1.00D+00  THRREF  =  1.00D-05  SPARFAC =  1.00D+00  THRDLP  =  1.00D-07
 THRDIA  =  1.00D-10  THRDLS  =  1.00D-07  THRGPS  =  0.00D+00  THRKEX  =  0.00D+00  THRDIS  =  2.00D-01  THRVAR  =  1.00D-10
 THRLOC  =  1.00D-06  THRGAP  =  1.00D-06  THRLOCT = -1.00D+00  THRGAPT = -1.00D+00  THRORB  =  1.00D-06  THRMLTP =  0.00D+00
 THRCPQCI=  1.00D-10  KEXTA   =  0.00D+00  THRCOARS=  0.00D+00  SYMTOL  =  1.00D-06  GRADTOL =  1.00D-06  THROVL  =  1.00D-08
 THRORTH =  1.00D-08  GRID    =  1.00D-06  GRIDMAX =  1.00D-03  DTMAX   =  0.00D+00  THROCCDE=  1.00D-01  THROCCDE=  1.00D-01



 ZUNIT=ANG
 

Geometry recognized as XYZ


 Variable memory set to  512000000 words,  buffer space   230000 words

 SETTING BASIS          =    USERDEF


 Recomputing integrals since basis changed


 Using spherical harmonics



 PROGRAM * SEWARD (Integral evaluation for generally contracted gaussian basis sets)     Author: Roland Lindh, 1990

 Geometry written to block  1 of record 700

 Orientation using atomic masses  
 Molecule type: Atom
 Symmetry elements: X,Y,Z
 Rotational constants:       0.0000000      0.0000000      0.0000000 GHz  (calculated with average atomic masses)

 Point group  D2h 



 ATOMIC COORDINATES

 NR  ATOM    CHARGE       X              Y              Z

   1  B       3.00    0.000000000    0.000000000    0.000000000


          B   CORE POTENTIAL

          p POTENTIAL

 POWERS             1              3              2
 EXPONENTIALS   31.49298       22.56509       8.646690    
 COEFFICIENTS   3.000000       94.47895      -9.748000    

          s - p POTENTIAL

 POWERS             2
 EXPONENTIALS   4.062460    
 COEFFICIENTS   20.74800    


 BASIS DATA

   Nr Sym  Nuc  Type         Exponents   Contraction coefficients

    1.1 Ag    1  1s          11.760500    -0.003676
                              5.150520     0.025052
                              2.578276    -0.124923
                              1.290648    -0.066287
                              0.646080     0.100734
                              0.323418     0.337549
                              0.161898     0.430843
                              0.081044     0.248656
                              0.040569     0.031730
    2.1 Ag    1  1s           0.626026     1.000000
    3.1 Ag    1  1s           0.092094     1.000000
    4.1 Ag    1  1s           0.036838     1.000000
    5.1 Ag    1  3d0          0.699153     1.000000
    6.1 Ag    1  3d2+         0.699153     1.000000
    7.1 Ag    1  3d0          0.207316     1.000000
    8.1 Ag    1  3d2+         0.207316     1.000000
    9.1 Ag    1  3d0          0.082926     1.000000
   10.1 Ag    1  3d2+         0.082926     1.000000
    1.2 B3u   1  2px          7.470701     0.004740
                              3.735743     0.037601
                              1.868068     0.051060
                              0.934132     0.145659
                              0.467115     0.223793
                              0.233582     0.319947
                              0.116803     0.285019
                              0.058408     0.144881
                              0.029207     0.017696
    2.2 B3u   1  2px          0.235016     1.000000
    3.2 B3u   1  2px          0.082056     1.000000
    4.2 B3u   1  2px          0.032822     1.000000
    5.2 B3u   1  4f1+         0.478872     1.000000
    6.2 B3u   1  4f3+         0.478872     1.000000
    7.2 B3u   1  4f1+         0.191549     1.000000
    8.2 B3u   1  4f3+         0.191549     1.000000
    1.3 B2u   1  2py          7.470701     0.004740
                              3.735743     0.037601
                              1.868068     0.051060
                              0.934132     0.145659
                              0.467115     0.223793
                              0.233582     0.319947
                              0.116803     0.285019
                              0.058408     0.144881
                              0.029207     0.017696
    2.3 B2u   1  2py          0.235016     1.000000
    3.3 B2u   1  2py          0.082056     1.000000
    4.3 B2u   1  2py          0.032822     1.000000
    5.3 B2u   1  4f1-         0.478872     1.000000
    6.3 B2u   1  4f3-         0.478872     1.000000
    7.3 B2u   1  4f1-         0.191549     1.000000
    8.3 B2u   1  4f3-         0.191549     1.000000
    1.4 B1g   1  3d2-         0.699153     1.000000
    2.4 B1g   1  3d2-         0.207316     1.000000
    3.4 B1g   1  3d2-         0.082926     1.000000
    1.5 B1u   1  2pz          7.470701     0.004740
                              3.735743     0.037601
                              1.868068     0.051060
                              0.934132     0.145659
                              0.467115     0.223793
                              0.233582     0.319947
                              0.116803     0.285019
                              0.058408     0.144881
                              0.029207     0.017696
    2.5 B1u   1  2pz          0.235016     1.000000
    3.5 B1u   1  2pz          0.082056     1.000000
    4.5 B1u   1  2pz          0.032822     1.000000
    5.5 B1u   1  4f0          0.478872     1.000000
    6.5 B1u   1  4f2+         0.478872     1.000000
    7.5 B1u   1  4f0          0.191549     1.000000
    8.5 B1u   1  4f2+         0.191549     1.000000
    1.6 B2g   1  3d1+         0.699153     1.000000
    2.6 B2g   1  3d1+         0.207316     1.000000
    3.6 B2g   1  3d1+         0.082926     1.000000
    1.7 B3g   1  3d1-         0.699153     1.000000
    2.7 B3g   1  3d1-         0.207316     1.000000
    3.7 B3g   1  3d1-         0.082926     1.000000
    1.8 Au    1  4f2-         0.478872     1.000000
    2.8 Au    1  4f2-         0.191549     1.000000

 NUCLEAR CHARGE:                    3
 NUMBER OF PRIMITIVE AOS:          86
 NUMBER OF SYMMETRY AOS:           77
 NUMBER OF CONTRACTIONS:           45   (  10Ag  +   8B3u +   8B2u +   3B1g +   8B1u +   3B2g +   3B3g +   2Au  )
 NUMBER OF CORE ORBITALS:           0   (   0Ag  +   0B3u +   0B2u +   0B1g +   0B1u +   0B2g +   0B3g +   0Au  )
 NUMBER OF VALENCE ORBITALS:        4   (   1Ag  +   1B3u +   1B2u +   0B1g +   1B1u +   0B2g +   0B3g +   0Au  )


 NUCLEAR REPULSION ENERGY    0.00000000

 EXTRA SYMMETRY OF AOS IN SYMMETRY 1:   1 1 1 1 2 3 2 3 2 3
 EXTRA SYMMETRY OF AOS IN SYMMETRY 2:   1 1 1 1 2 3 2 3
 EXTRA SYMMETRY OF AOS IN SYMMETRY 3:   1 1 1 1 2 3 2 3
 EXTRA SYMMETRY OF AOS IN SYMMETRY 5:   1 1 1 1 2 3 2 3

 Eigenvalues of metric

         1 0.159E-01 0.155E+00 0.196E+00 0.196E+00 0.739E+00 0.823E+00 0.823E+00 0.198E+01
         2 0.339E-01 0.113E+00 0.367E+00 0.367E+00 0.787E+00 0.163E+01 0.163E+01 0.307E+01
         3 0.339E-01 0.113E+00 0.367E+00 0.367E+00 0.787E+00 0.163E+01 0.163E+01 0.307E+01
         4 0.196E+00 0.823E+00 0.198E+01
         5 0.339E-01 0.113E+00 0.367E+00 0.367E+00 0.787E+00 0.163E+01 0.163E+01 0.307E+01
         6 0.196E+00 0.823E+00 0.198E+01
         7 0.196E+00 0.823E+00 0.198E+01
         8 0.367E+00 0.163E+01


 Contracted 2-electron integrals neglected if value below      1.0D-12
 AO integral compression algorithm  1   Integral accuracy      1.0D-12

     1.049 MB (compressed) written to integral file ( 92.5%)


 NUMBER OF SORTED TWO-ELECTRON INTEGRALS:      75808.     BUFFER LENGTH:  32768
 NUMBER OF SEGMENTS:   1  SEGMENT LENGTH:      75808      RECORD LENGTH: 524288

 Memory used in sort:       0.63 MW

 SORT1 READ      155797. AND WROTE       61548. INTEGRALS IN      1 RECORDS. CPU TIME:     0.00 SEC, REAL TIME:     0.01 SEC
 SORT2 READ       61548. AND WROTE       75808. INTEGRALS IN      4 RECORDS. CPU TIME:     0.02 SEC, REAL TIME:     0.03 SEC

 FILE SIZES:   FILE 1:    20.2 MBYTE,  FILE 4:     4.2 MBYTE,   TOTAL:     24.4 MBYTE

 OPERATOR DM      FOR CENTER  0  COORDINATES:    0.000000    0.000000    0.000000
 OPERATOR EKIN    FOR CENTER  0  COORDINATES:    0.000000    0.000000    0.000000
 OPERATOR POT     FOR CENTER  0  COORDINATES:    0.000000    0.000000    0.000000


 **********************************************************************************************************************************
 DATASETS  * FILE   NREC   LENGTH (MB)   RECORD NAMES
              1      20       19.60       500      610      700      900      950      970     1000      129      960     1100   
                                          VAR    BASINP    GEOM    SYMINP    ZMAT    AOBASIS   BASIS     P2S    ABASIS      S 
                                         1400     1410     1420     1200     1210     1080     1600     1650     1300     1700   
                                         EKIN       V       ECP      H0       H01     AOSYM     SMH    MOLCAS    ERIS     OPER   

 PROGRAMS   *        TOTAL       INT
 CPU TIMES  *         0.35      0.25
 REAL TIME  *         1.50 SEC
 DISK USED  *        24.67 MB      
 **********************************************************************************************************************************


 PROGRAM * RHF-SCF (OPEN SHELL)       Authors: W. Meyer, H.-J. Werner


 NUMBER OF ELECTRONS:       2+    1-    SPACE SYMMETRY=2    SPIN SYMMETRY: Doublet 
 CONVERGENCE THRESHOLDS:    1.00E-05 (Density)    1.00E-07 (Energy)
 MAX. NUMBER OF ITERATIONS:       60
 INTERPOLATION TYPE:            DIIS
 INTERPOLATION STEPS:              2 (START)      1 (STEP)
 LEVEL SHIFTS:                 -0.60 (CLOSED) -0.30 (OPEN) 


 Singly occupied orbitals:      1.2

   Atom=B  basis=ECP2MWB_GUESS     lmin=0  lmax=1

 Orbital guess generated from atomic densities. Full valence occupancy:    1   1   1   0   1   0   0   0


 Molecular orbital dump at record        4202.2

 ITERATION    DDIFF          GRAD             ENERGY        2-EL.EN.            DIPOLE MOMENTS         DIIS   ORB.
    1      0.000D+00      0.000D+00        -2.51353244      2.212992    0.00000    0.00000    0.00000    0    start
    2      0.000D+00      0.155D-01        -2.53017137      2.341996    0.00000    0.00000    0.00000    1    diag,B
    3      0.221D-01      0.693D-02        -2.53714430      2.435335    0.00000    0.00000    0.00000    2    diag,B
    4      0.148D-01      0.307D-02        -2.53905708      2.471528    0.00000    0.00000    0.00000    3    diag,B
    5      0.842D-02      0.120D-02        -2.53929291      2.479462    0.00000    0.00000    0.00000    4    diag,B
    6      0.578D-02      0.251D-03        -2.53929876      2.480406    0.00000    0.00000    0.00000    5    diag,B
    7      0.753D-03      0.956D-04        -2.53929949      2.479974    0.00000    0.00000    0.00000    6    fixocc
    8      0.266D-03      0.166D-04        -2.53929951      2.479979    0.00000    0.00000    0.00000    7    diag,B
    9      0.440D-04      0.303D-05        -2.53929951      2.479998    0.00000    0.00000    0.00000    8    diag,B
   10      0.126D-04      0.153D-05        -2.53929951      2.479987    0.00000    0.00000    0.00000    9    orth
   11      0.412D-05      0.154D-06        -2.53929951      2.479987    0.00000    0.00000    0.00000    0    orth

 Final alpha occupancy:   1   1   0   0   0   0   0   0
 Final beta  occupancy:   1   0   0   0   0   0   0   0

 !RHF STATE 1.2 Energy                 -2.539299514384
 Nuclear energy                         0.00000000
 One-electron energy                   -3.77929300
 Two-electron energy                    1.23999349
 Virial quotient                       -1.93324022
 !RHF STATE 1.2 Dipole moment           0.00000000     0.00000000     0.00000000
 Dipole moment /Debye                   0.00000000     0.00000000     0.00000000
 

 !RHF expec          <1.2|EKIN|1.2>     1.313494040759
 
 !RHF expec           <1.2|POT|1.2>    -1.840508016062

 ELECTRON ORBITALS
 =================


   Orb  Occ    Energy  Couls-En    Coefficients

                                   1 1s      1 1s      1 1s      1 1s      1 3d0     1 3d2+    1 3d0     1 3d2+    1 3d0     1 3d2+ 


   1.1   2    -0.4938   -1.8371  1.000114  0.000035 -0.000134 -0.000058 -0.000614  0.001063 -0.001078  0.001867 -0.002657  0.004602

                                   1 2px     1 2px     1 2px     1 2px     1 4f1+    1 4f3+    1 4f1+    1 4f3+ 

   1.2   +    -0.3118   -1.4045  0.999755 -0.000065  0.000401 -0.000022  0.000072 -0.000093 -0.000015  0.000020

 HOMO      1.2    -0.311751 =      -8.4832eV
 LUMO      1.3     0.026966 =       0.7338eV
 LUMO-HOMO         0.338718 =       9.2170eV


 **********************************************************************************************************************************
 DATASETS  * FILE   NREC   LENGTH (MB)   RECORD NAMES
              1      20       19.60       500      610      700      900      950      970     1000      129      960     1100   
                                          VAR    BASINP    GEOM    SYMINP    ZMAT    AOBASIS   BASIS     P2S    ABASIS      S 
                                         1400     1410     1420     1200     1210     1080     1600     1650     1300     1700   
                                         EKIN       V       ECP      H0       H01     AOSYM     SMH    MOLCAS    ERIS     OPER   

              2       4        2.76       700     1000      520     4202   
                                         GEOM     BASIS   MCVARS     RHF  

 PROGRAMS   *        TOTAL       RHF       INT
 CPU TIMES  *         0.39      0.04      0.25
 REAL TIME  *         1.67 SEC
 DISK USED  *        24.67 MB      
 **********************************************************************************************************************************


 PROGRAM * MULTI (Direct Multiconfiguration SCF)       Authors: P.J. Knowles, H.-J. Werner (1984)     S.T. Elbert (1988)


 Number of closed-shell orbitals:   1 (   1   0   0   0   0   0   0   0 )
 Number of active  orbitals:        3 (   0   1   1   0   1   0   0   0 )
 Number of external orbitals:      41 (   9   7   7   3   7   3   3   2 )

 State symmetry 1

 Number of electrons:     1    Spin symmetry=Doublet   Space symmetry=2
 Number of states:        1
 Number of CSFs:          1   (1 determinants, 3 intermediate states)

 State symmetry 2

 Number of electrons:     1    Spin symmetry=Doublet   Space symmetry=3
 Number of states:        1
 Number of CSFs:          1   (1 determinants, 3 intermediate states)

 State symmetry 3

 Number of electrons:     1    Spin symmetry=Doublet   Space symmetry=5
 Number of states:        1
 Number of CSFs:          1   (1 determinants, 3 intermediate states)

 Molecular orbitals read from record     4202.2  Type=RHF/CANONICAL (state 1.2)
 *** IN SYMMETRY 1 ORBITAL  1 SYMMETRY CONTAMINATION OF 0.117D-01 HAS BEEN REMOVED

 EXTRA SYMMETRY OF MOS IN SYMMETRY 1:   1 1 2 3 1 3 2 3 2 1
 *** IN SYMMETRY 2 ORBITAL  1 SYMMETRY CONTAMINATION OF 0.199D-03 HAS BEEN REMOVED
 EXTRA SYMMETRY OF MOS IN SYMMETRY 2:   1 1 1 2 3 1 2 3
 *** IN SYMMETRY 3 ORBITAL  1 SYMMETRY CONTAMINATION OF 0.303D-02 HAS BEEN REMOVED
 EXTRA SYMMETRY OF MOS IN SYMMETRY 3:   1 1 1 2 3 1 2 3
 *** IN SYMMETRY 5 ORBITAL  1 SYMMETRY CONTAMINATION OF 0.348D-02 HAS BEEN REMOVED
 EXTRA SYMMETRY OF MOS IN SYMMETRY 5:   1 1 1 2 3 1 2 3

 Wavefunction dump at record             5202.2

 Convergence thresholds  0.10E-01 (gradient)  0.10E-05 (energy)  0.10E-02 (step length)

 Weight factors for state symmetry  1:    0.33333
 Weight factors for state symmetry  2:    0.33333
 Weight factors for state symmetry  3:    0.33333

 Number of orbital rotations:       30   (     0 Core/Active      9 Core/Virtual   0 Active/Active     21 Active/Virtual)
 Total number of variables:         33


 ITER. MIC  NCI  NEG     ENERGY(VAR)     ENERGY(PROJ)   ENERGY CHANGE     GRAD(0)  GRAD(ORB)   GRAD(CI)     STEP       TIME

   1   30   12    0      -2.48927531      -2.53938564   -0.05011033    0.08238004 0.00000000 0.00000000  0.78D+00      0.01
   2   14   12    0      -2.53907376      -2.53923016   -0.00015639    0.01582395 0.00000000 0.00000000  0.13D-01      0.01
   3   16   12    0      -2.53923039      -2.53923039   -0.00000000    0.00004225 0.00000000 0.00000000  0.47D-04      0.01

 ** WVFN ****  CONVERGENCE REACHED, FINAL GRADIENT:  0.42D-09



 Results for state 1.2
 =====================

 !MCSCF STATE 1.2 Energy               -2.539230390512
 Nuclear energy                         0.00000000
 Kinetic energy                         1.31362337
 One electron energy                   -3.77940367
 Two electron energy                    1.24017328
 Virial ratio                           2.93299728

 !MCSCF STATE 1.2 Dipole moment         0.00000000     0.00000000     0.00000000
 Dipole moment /Debye                   0.00000000     0.00000000     0.00000000



 Results for state 1.3
 =====================

 !MCSCF STATE 1.3 Energy               -2.539230390512
 Nuclear energy                         0.00000000
 Kinetic energy                         1.31362337
 One electron energy                   -3.77940367
 Two electron energy                    1.24017328
 Virial ratio                           2.93299728

 !MCSCF STATE 1.3 Dipole moment         0.00000000     0.00000000     0.00000000
 Dipole moment /Debye                   0.00000000     0.00000000     0.00000000



 Results for state 1.5
 =====================

 !MCSCF STATE 1.5 Energy               -2.539230390512
 Nuclear energy                         0.00000000
 Kinetic energy                         1.31362337
 One electron energy                   -3.77940367
 Two electron energy                    1.24017328
 Virial ratio                           2.93299728

 !MCSCF STATE 1.5 Dipole moment         0.00000000     0.00000000     0.00000000
 Dipole moment /Debye                   0.00000000     0.00000000     0.00000000

 State-averaged charge density matrix saved on record  5202.2 (density set 1)

 !MCSCF expec        <1.2|EKIN|1.2>     1.313623367097
 !MCSCF expec        <1.3|EKIN|1.3>     1.313623367388
 !MCSCF expec        <1.5|EKIN|1.5>     1.313623367388

 !MCSCF expec         <1.2|POT|1.2>    -1.840563438664
 !MCSCF expec         <1.3|POT|1.3>    -1.840563438783
 !MCSCF expec         <1.5|POT|1.5>    -1.840563438783


 NATURAL ORBITALS (state averaged)
 =================================

   Orb     Occ        Energy       Coefficients

                                   1 1s      1 1s      1 1s      1 1s      1 3d0     1 3d2+    1 3d0     1 3d2+    1 3d0     1 3d2+ 


   1.1  2.00000    -0.493713     0.999996  0.000002  0.000002  0.000001  0.000000  0.000000  0.000000  0.000000  0.000000  0.000000

                                   1 2px     1 2px     1 2px     1 2px     1 4f1+    1 4f3+    1 4f1+    1 4f3+ 

   1.2  0.33333     0.024881     0.999983 -0.000032  0.000116 -0.000091  0.000000  0.000000  0.000000  0.000000

                                   1 2py     1 2py     1 2py     1 2py     1 4f1-    1 4f3-    1 4f1-    1 4f3- 

   1.3  0.33333     0.024881     0.999983 -0.000032  0.000116 -0.000091  0.000000  0.000000  0.000000  0.000000

                                   1 2pz     1 2pz     1 2pz     1 2pz     1 4f0     1 4f2+    1 4f0     1 4f2+ 

   1.5  0.33333     0.024881     0.999983 -0.000032  0.000116 -0.000091  0.000000  0.000000  0.000000  0.000000
 

 EXTRA SYMMETRY OF MOS IN SYMMETRY 1:   1 1 2 3 1 2 3 2 3 1
 EXTRA SYMMETRY OF MOS IN SYMMETRY 2:   1 1 1 2 3 1 3 2
 EXTRA SYMMETRY OF MOS IN SYMMETRY 3:   1 1 1 2 3 1 3 2
 EXTRA SYMMETRY OF MOS IN SYMMETRY 5:   1 1 1 2 3 1 3 2

 Natural orbital dump (state averaged) at molpro section  5202.2    (Orbital set 2)


 CI vector for state symmetry 1
 ==============================

 a 0 0           1.0000000

 TOTAL ENERGIES                        -2.53923039

 CI vector for state symmetry 2
 ==============================

 0 a 0           1.0000000

 TOTAL ENERGIES                        -2.53923039

 CI vector for state symmetry 3
 ==============================

 0 0 a           1.0000000

 TOTAL ENERGIES                        -2.53923039



 **********************************************************************************************************************************
 DATASETS  * FILE   NREC   LENGTH (MB)   RECORD NAMES
              1      21       19.64       500      610      700      900      950      970     1000      129      960     1100   
                                          VAR    BASINP    GEOM    SYMINP    ZMAT    AOBASIS   BASIS     P2S    ABASIS      S 
                                         1400     1410     1420     1200     1210     1080     1600     1650     1300     1700   
                                         EKIN       V       ECP      H0       H01     AOSYM     SMH    MOLCAS    ERIS     OPER   
                                         1380   
                                         JKOP   

              2       5        5.26       700     1000      520     4202     5202   
                                         GEOM     BASIS   MCVARS     RHF     MCSCF   

 PROGRAMS   *        TOTAL     MULTI       RHF       INT
 CPU TIMES  *         0.43      0.03      0.04      0.25
 REAL TIME  *         2.61 SEC
 DISK USED  *        34.11 MB      
 **********************************************************************************************************************************


 PROGRAM * RHF-SCF (OPEN SHELL)       Authors: W. Meyer, H.-J. Werner


 NUMBER OF ELECTRONS:       2+    1-    SPACE SYMMETRY=2    SPIN SYMMETRY: Doublet 
 CONVERGENCE THRESHOLDS:    1.00E-05 (Density)    1.00E-07 (Energy)
 MAX. NUMBER OF ITERATIONS:        0
 INTERPOLATION TYPE:            DIIS
 INTERPOLATION STEPS:              2 (START)      1 (STEP)
 LEVEL SHIFTS:                 -0.60 (CLOSED) -0.30 (OPEN) 


 Singly occupied orbitals:      1.2
 Molecular orbitals read from record     5202.2  Type=MCSCF/NATURAL (state averaged)

 Molecular orbital dump at record        2101.2

 ITERATION    DDIFF          GRAD             ENERGY        2-EL.EN.            DIPOLE MOMENTS         DIIS   ORB.
    1      0.000D+00      0.000D+00        -2.53923039      2.480347    0.00000    0.00000    0.00000    0    start

 Final alpha occupancy:   1   1   0   0   0   0   0   0
 Final beta  occupancy:   1   0   0   0   0   0   0   0

 !RHF STATE 1.2 Energy                 -2.539230390512
 Nuclear energy                         0.00000000
 One-electron energy                   -3.77940367
 Two-electron energy                    1.24017328
 Virial quotient                       -1.93299728
 !RHF STATE 1.2 Dipole moment           0.00000000     0.00000000     0.00000000
 Dipole moment /Debye                   0.00000000     0.00000000     0.00000000
 

 !RHF expec          <1.2|EKIN|1.2>     1.313623367097
 
 !RHF expec           <1.2|POT|1.2>    -1.840563438664

 ELECTRON ORBITALS
 =================


   Orb  Occ    Energy  Couls-En    Coefficients

                                   1 1s      1 1s      1 1s      1 1s      1 3d0     1 3d2+    1 3d0     1 3d2+    1 3d0     1 3d2+ 


   1.1   2    -0.4937   -1.8370  0.999996  0.000002  0.000002  0.000001  0.000000  0.000000  0.000000  0.000000  0.000000  0.000000

                                   1 2px     1 2px     1 2px     1 2px     1 4f1+    1 4f3+    1 4f1+    1 4f3+ 

   1.2   +     0.0249   -1.0679  0.999983 -0.000032  0.000116 -0.000091  0.000000  0.000000  0.000000  0.000000

 HOMO      1.2     0.024881 =       0.6770eV
 LUMO      1.3     0.024881 =       0.6770eV
 LUMO-HOMO         0.000000 =       0.0000eV


 **********************************************************************************************************************************
 DATASETS  * FILE   NREC   LENGTH (MB)   RECORD NAMES
              1      21       19.64       500      610      700      900      950      970     1000      129      960     1100   
                                          VAR    BASINP    GEOM    SYMINP    ZMAT    AOBASIS   BASIS     P2S    ABASIS      S 
                                         1400     1410     1420     1200     1210     1080     1600     1650     1300     1700   
                                         EKIN       V       ECP      H0       H01     AOSYM     SMH    MOLCAS    ERIS     OPER   
                                         1380   
                                         JKOP   

              2       6        7.77       700     1000      520     4202     5202     2101   
                                         GEOM     BASIS   MCVARS     RHF     MCSCF     RHF  

 PROGRAMS   *        TOTAL       RHF     MULTI       RHF       INT
 CPU TIMES  *         0.46      0.03      0.03      0.04      0.25
 REAL TIME  *         2.70 SEC
 DISK USED  *        34.11 MB      
 **********************************************************************************************************************************
 SETTING SCF(I)         =        -2.53923039  AU                              
 SETTING _CC_NORM_MAX   =         2.00000000                                  


 PROGRAM * CCSD (Restricted open-shell coupled cluster)     Authors: C. Hampel, H.-J. Werner, 1991, M. Deegan, P.J. Knowles, 1992


 Convergence thresholds:  THRVAR = 1.00D-08  THRDEN = 1.00D-06

 CCSD(T)     terms to be evaluated (factor= 1.000)


 Number of closed-shell orbitals:   1 (   1   0   0   0   0   0   0   0 )
 Number of active  orbitals:        1 (   0   1   0   0   0   0   0   0 )
 Number of external orbitals:      43 (   9   7   8   3   8   3   3   2 )

 Memory could be reduced to 0.38 Mwords without degradation in triples

 Number of N-1 electron functions:               3
 Number of N-2 electron functions:               3
 Number of singly external CSFs:                26
 Number of doubly external CSFs:               682
 Total number of CSFs:                         708

 Molecular orbitals read from record     2101.2  Type=RHF/CANONICAL (state 1.2)

 Integral transformation finished. Total CPU:   0.00 sec, npass=  1  Memory used:   0.08 MW

 Starting RMP2 calculation

 Wavefunction is spin-projected

 ITER.      SQ.NORM     CORR.ENERGY   TOTAL ENERGY   ENERGY CHANGE        DEN1      VAR(S)    VAR(P)  DIIS     TIME
   1      1.02984791    -0.05017523    -2.58940562    -0.05017523    -0.00045606  0.19D-04  0.27D-03  1  1     0.01
   2      1.03069337    -0.05070854    -2.58993893    -0.00053331    -0.00000292  0.29D-07  0.17D-05  2  2     0.01
   3      1.03073292    -0.05072421    -2.58995460    -0.00001567    -0.00000002  0.26D-09  0.89D-08  3  3     0.01
   4      1.03073338    -0.05072431    -2.58995470    -0.00000011    -0.00000000  0.14D-11  0.41D-10  4  4     0.01

 Norm of t1 vector:      0.03824446      S-energy:    -0.00219622      T1 diagnostic:  0.00288118
 Norm of t2 vector:      0.17108693      P-energy:    -0.04852809
                                         Alpha-Beta:  -0.04505886
                                         Alpha-Alpha: -0.00346924
                                         Beta-Beta:    0.00000000

 Spin contamination <S**2-Sz**2-Sz>     0.00000000
  Reference energy                     -2.539230390512
  RHF-RMP2 correlation energy          -0.050724314363
 !RHF-RMP2 energy                      -2.589954704874
 (NB above energy spin projected)

 Starting RCCSD calculation

 ITER.      SQ.NORM     CORR.ENERGY   TOTAL ENERGY   ENERGY CHANGE        DEN1      VAR(S)    VAR(P)  DIIS     TIME
   1      1.04741362    -0.06060486    -2.59983525    -0.06060486    -0.00593449  0.34D-03  0.36D-02  1  1     0.02
   2      1.06910960    -0.06939154    -2.60862193    -0.00878667    -0.00051903  0.24D-04  0.29D-03  2  2     0.02
   3      1.07654179    -0.07116452    -2.61039491    -0.00177298    -0.00003894  0.19D-05  0.23D-04  3  3     0.02
   4      1.07899639    -0.07171592    -2.61094631    -0.00055140    -0.00000161  0.16D-06  0.82D-06  4  4     0.02
   5      1.07890814    -0.07166351    -2.61089390     0.00005241    -0.00000007  0.11D-07  0.37D-07  5  5     0.02
   6      1.07899469    -0.07169062    -2.61092101    -0.00002711    -0.00000000  0.69D-09  0.23D-08  6  6     0.02
   7      1.07897093    -0.07168299    -2.61091338     0.00000763    -0.00000000  0.33D-10  0.29D-09  6  1     0.03
   8      1.07897087    -0.07168301    -2.61091340    -0.00000002    -0.00000000  0.36D-11  0.32D-10  6  2     0.03

 Norm of t1 vector:      0.05812589      S-energy:    -0.00284219      T1 diagnostic:  0.01043350
                                                                       D1 diagnostic:  0.01779709
 Norm of t2 vector:      0.27494045      P-energy:    -0.06884081
                                         Alpha-Beta:  -0.06514438
                                         Alpha-Alpha: -0.00369643
                                         Beta-Beta:    0.00000000

 Doubles amplitudes (print threshold =  0.500E-01):

         I         J         SYM. A    SYM. B    A         B      T(IJ, AB) [Alpha-Beta]

         1         1         3         3         1         1     -0.15124772
         1         1         5         5         1         1     -0.15124793

 Spin contamination <S**2-Sz**2-Sz>     0.00000000

 Memory could be reduced to 0.38 Mwords without degradation in triples
 

 RESULTS
 =======

  Reference energy                     -2.539230390512
  RCCSD singles energy                 -0.002842194333
  RCCSD pair energy                    -0.068840812964
  RCCSD correlation energy             -0.071683007297
  Triples (T) contribution             -0.001609441601
  Total correlation energy             -0.073292448898
 
  RHF-RCCSD energy                     -2.610913397808
  RHF-RCCSD[T] energy                  -2.612456838374
  RHF-RCCSD-T energy                   -2.612529691605
 !RHF-RCCSD(T) energy                  -2.612522839410

 Program statistics:

 Available memory in ccsd:               511999848
 Min. memory needed in ccsd:                 10976
 Max. memory used in ccsd:                   11182
 Max. memory used in cckext:                 41210 ( 8 integral passes)
 Max. memory used in cckint:                 77925 ( 1 integral passes)



 **********************************************************************************************************************************
 DATASETS  * FILE   NREC   LENGTH (MB)   RECORD NAMES
              1      21       19.64       500      610      700      900      950      970     1000      129      960     1100   
                                          VAR    BASINP    GEOM    SYMINP    ZMAT    AOBASIS   BASIS     P2S    ABASIS      S 
                                         1400     1410     1420     1200     1210     1080     1600     1650     1300     1700   
                                         EKIN       V       ECP      H0       H01     AOSYM     SMH    MOLCAS    ERIS     OPER   
                                         1380   
                                         JKOP   

              2       6        7.77       700     1000      520     4202     5202     2101   
                                         GEOM     BASIS   MCVARS     RHF     MCSCF     RHF  

 PROGRAMS   *        TOTAL  RCCSD(T)       RHF     MULTI       RHF       INT
 CPU TIMES  *         0.55      0.08      0.03      0.03      0.04      0.25
 REAL TIME  *         3.55 SEC
 DISK USED  *        34.11 MB      
 **********************************************************************************************************************************
 SETTING POSTHF(I)      =        -2.61252284  AU                              
                                                                                                                                                                                                                                                                

       SCF           POSTHF       EKIN          POT
    -2.53923039   -2.61252284   1.31362337   -1.84056344
                                                  

 RCCSD(T)/USERDEF energy=     -2.612522839410

        RCCSD(T)        RHF-SCF         MULTI           RHF-SCF 
     -2.61252284     -2.53923039     -2.53923039     -2.53929951
 **********************************************************************************************************************************
 Variable memory released
