
 Primary working directories    : /global/cscratch1/sd/aannabe
 Secondary working directories  : /global/cscratch1/sd/aannabe
 Wavefunction directory         : /global/homes/a/aannabe/wfu/
 Main file repository           : /global/cscratch1/sd/aannabe/

 SHA1      : 2873118e99aab1bc19f5b6fc1784693c06d15c95
 NAME      : 2015.1.8
 ARCHNAME  : linux/x86_64
 FC        : /opt/cray/pe/craype/2.5.5/bin/ftn
 BLASLIB   : -Wl,-_start-group /opt/intel/compilers_and_libraries_2016.3.210/linux/mkl/lib/intel64/libmkl_intel_ilp64.a /opt/intel/compilers_and_libraries_2016.3.210/linux/mkl/lib/intel64/libmkl_intel_thread.a /opt/intel/compilers_and_libraries_2016.3.210/linux/mkl/lib/intel64/libmkl_core.a -Wl,-_end-group
 id        : lbl

 Nodes     nprocs
 nid00447     1

 Using customized tuning parameters: mindgm=8; mindgv=16; mindgc=4; mindgr=1; noblas=0; minvec=7
 default implementation of scratch files=df  

 ***,B
 memory,512,m
 gthresh,twoint=1.e-12
 
 gprint,basis,orbitals
 gexpec,ekin,pot
 
 angstrom
 geometry={
 1                                                                               ! Number of atoms
 B 0.0 0.0 0.0
 }
 
 basis={
 Including file /global/homes/a/aannabe/docs/accurate/ccECP_Kh/pps/B.pp
 Including file /global/homes/a/aannabe/docs/accurate/ccECP_Kh/basis/aug-cc-pVnZ/B_qz.basis
 }
 
 {rhf
  start,atden
  wf,3,2,1
  occ,1,1,0,0,0,0,0,0
  open,1.2
  save,4202.2
 }
 {multi
  start,4202.2
  occ,1,1,1,0,1,0,0
  closed,1,0,0,0,0,0,0,0
  wf,3,2,1;state,1
  wf,3,3,1;state,1
  wf,3,5,1;state,1
  natorb,ci,print
  orbital,5202.2
 }
 {rhf,nitord=1,maxit=0
  start,5202.2
  wf,3,2,1
  occ,1,1,0,0,0,0,0,0
  open,1.2
 }
 
 scf(i)=energy
 
 _CC_NORM_MAX=2.0
 {rccsd(t)
 maxit,100
 core
 }
 posthf(i)=energy
 
 table,scf,posthf,ekin,pot
 save,4.csv,new
 
 

 Variables initialized (889), CPU time= 0.00 sec
 Commands  initialized (702), CPU time= 0.01 sec, 572 directives.
 Default parameters read. Elapsed time= 0.16 sec

 Checking input...
 Passed
1


                                         ***  PROGRAM SYSTEM MOLPRO  ***
                                       Copyright, TTI GmbH Stuttgart, 2015
                                    Version 2015.1 linked Sep  7 2016 23:09:38


 **********************************************************************************************************************************
 LABEL *   B                                                                             
  64 bit serial version                                                                  DATE: 30-Oct-18          TIME: 10:46:27  
 **********************************************************************************************************************************

 SHA1:             2873118e99aab1bc19f5b6fc1784693c06d15c95
 **********************************************************************************************************************************

 THRESHOLDS:

 ZERO    =  1.00D-12  ONEINT  =  1.00D-12  TWOINT  =  1.00D-12  PREFAC  =  1.00D-14  LOCALI  =  1.00D-09  EORDER  =  1.00D-04
 ENERGY  =  0.00D+00  ETEST   =  0.00D+00  EDENS   =  0.00D+00  THRDEDEF=  1.00D-06  GRADIENT=  1.00D-02  STEP    =  1.00D-03
 ORBITAL =  1.00D-05  CIVEC   =  1.00D-05  COEFF   =  1.00D-04  PRINTCI =  5.00D-02  PUNCHCI =  9.90D+01  OPTGRAD =  3.00D-04
 OPTENERG=  1.00D-06  OPTSTEP =  3.00D-04  THRGRAD =  1.00D-10  COMPRESS=  1.00D-11  VARMIN  =  1.00D-07  VARMAX  =  1.00D-03
 THRDOUB =  0.00D+00  THRDIV  =  1.00D-05  THRRED  =  1.00D-07  THRPSP  =  1.00D+00  THRDC   =  1.00D-10  THRCS   =  1.00D-10
 THRNRM  =  1.00D-08  THREQ   =  0.00D+00  THRDE   =  1.00D+00  THRREF  =  1.00D-05  SPARFAC =  1.00D+00  THRDLP  =  1.00D-07
 THRDIA  =  1.00D-10  THRDLS  =  1.00D-07  THRGPS  =  0.00D+00  THRKEX  =  0.00D+00  THRDIS  =  2.00D-01  THRVAR  =  1.00D-10
 THRLOC  =  1.00D-06  THRGAP  =  1.00D-06  THRLOCT = -1.00D+00  THRGAPT = -1.00D+00  THRORB  =  1.00D-06  THRMLTP =  0.00D+00
 THRCPQCI=  1.00D-10  KEXTA   =  0.00D+00  THRCOARS=  0.00D+00  SYMTOL  =  1.00D-06  GRADTOL =  1.00D-06  THROVL  =  1.00D-08
 THRORTH =  1.00D-08  GRID    =  1.00D-06  GRIDMAX =  1.00D-03  DTMAX   =  0.00D+00  THROCCDE=  1.00D-01  THROCCDE=  1.00D-01



 ZUNIT=ANG
 

Geometry recognized as XYZ


 Variable memory set to  512000000 words,  buffer space   230000 words

 SETTING BASIS          =    USERDEF


 Recomputing integrals since basis changed


 Using spherical harmonics



 PROGRAM * SEWARD (Integral evaluation for generally contracted gaussian basis sets)     Author: Roland Lindh, 1990

 Geometry written to block  1 of record 700

 Orientation using atomic masses  
 Molecule type: Atom
 Symmetry elements: X,Y,Z
 Rotational constants:       0.0000000      0.0000000      0.0000000 GHz  (calculated with average atomic masses)

 Point group  D2h 



 ATOMIC COORDINATES

 NR  ATOM    CHARGE       X              Y              Z

   1  B       3.00    0.000000000    0.000000000    0.000000000


          B   CORE POTENTIAL

          p POTENTIAL

 POWERS             1              3              2
 EXPONENTIALS   31.49298       22.56509       8.646690    
 COEFFICIENTS   3.000000       94.47895      -9.748000    

          s - p POTENTIAL

 POWERS             2
 EXPONENTIALS   4.062460    
 COEFFICIENTS   20.74800    


 BASIS DATA

   Nr Sym  Nuc  Type         Exponents   Contraction coefficients

    1.1 Ag    1  1s          11.760500    -0.003676
                              5.150520     0.025052
                              2.578276    -0.124923
                              1.290648    -0.066287
                              0.646080     0.100734
                              0.323418     0.337549
                              0.161898     0.430843
                              0.081044     0.248656
                              0.040569     0.031730
    2.1 Ag    1  1s           0.422217     1.000000
    3.1 Ag    1  1s           0.305133     1.000000
    4.1 Ag    1  1s           0.082968     1.000000
    5.1 Ag    1  1s           0.033187     1.000000
    6.1 Ag    1  3d0          1.142614     1.000000
    7.1 Ag    1  3d2+         1.142614     1.000000
    8.1 Ag    1  3d0          0.410733     1.000000
    9.1 Ag    1  3d2+         0.410733     1.000000
   10.1 Ag    1  3d0          0.149100     1.000000
   11.1 Ag    1  3d2+         0.149100     1.000000
   12.1 Ag    1  3d0          0.059640     1.000000
   13.1 Ag    1  3d2+         0.059640     1.000000
   14.1 Ag    1  5g0          0.710746     1.000000
   15.1 Ag    1  5g4+         0.710746     1.000000
   16.1 Ag    1  5g2+         0.710746     1.000000
   17.1 Ag    1  5g0          0.284298     1.000000
   18.1 Ag    1  5g4+         0.284298     1.000000
   19.1 Ag    1  5g2+         0.284298     1.000000
    1.2 B3u   1  2px          7.470701     0.004740
                              3.735743     0.037601
                              1.868068     0.051060
                              0.934132     0.145659
                              0.467115     0.223793
                              0.233582     0.319947
                              0.116803     0.285019
                              0.058408     0.144881
                              0.029207     0.017696
    2.2 B3u   1  2px          0.447031     1.000000
    3.2 B3u   1  2px          0.196614     1.000000
    4.2 B3u   1  2px          0.066445     1.000000
    5.2 B3u   1  2px          0.026578     1.000000
    6.2 B3u   1  4f1+         0.870011     1.000000
    7.2 B3u   1  4f3+         0.870011     1.000000
    8.2 B3u   1  4f1+         0.315902     1.000000
    9.2 B3u   1  4f3+         0.315902     1.000000
   10.2 B3u   1  4f1+         0.126361     1.000000
   11.2 B3u   1  4f3+         0.126361     1.000000
    1.3 B2u   1  2py          7.470701     0.004740
                              3.735743     0.037601
                              1.868068     0.051060
                              0.934132     0.145659
                              0.467115     0.223793
                              0.233582     0.319947
                              0.116803     0.285019
                              0.058408     0.144881
                              0.029207     0.017696
    2.3 B2u   1  2py          0.447031     1.000000
    3.3 B2u   1  2py          0.196614     1.000000
    4.3 B2u   1  2py          0.066445     1.000000
    5.3 B2u   1  2py          0.026578     1.000000
    6.3 B2u   1  4f1-         0.870011     1.000000
    7.3 B2u   1  4f3-         0.870011     1.000000
    8.3 B2u   1  4f1-         0.315902     1.000000
    9.3 B2u   1  4f3-         0.315902     1.000000
   10.3 B2u   1  4f1-         0.126361     1.000000
   11.3 B2u   1  4f3-         0.126361     1.000000
    1.4 B1g   1  3d2-         1.142614     1.000000
    2.4 B1g   1  3d2-         0.410733     1.000000
    3.4 B1g   1  3d2-         0.149100     1.000000
    4.4 B1g   1  3d2-         0.059640     1.000000
    5.4 B1g   1  5g2-         0.710746     1.000000
    6.4 B1g   1  5g4-         0.710746     1.000000
    7.4 B1g   1  5g2-         0.284298     1.000000
    8.4 B1g   1  5g4-         0.284298     1.000000
    1.5 B1u   1  2pz          7.470701     0.004740
                              3.735743     0.037601
                              1.868068     0.051060
                              0.934132     0.145659
                              0.467115     0.223793
                              0.233582     0.319947
                              0.116803     0.285019
                              0.058408     0.144881
                              0.029207     0.017696
    2.5 B1u   1  2pz          0.447031     1.000000
    3.5 B1u   1  2pz          0.196614     1.000000
    4.5 B1u   1  2pz          0.066445     1.000000
    5.5 B1u   1  2pz          0.026578     1.000000
    6.5 B1u   1  4f0          0.870011     1.000000
    7.5 B1u   1  4f2+         0.870011     1.000000
    8.5 B1u   1  4f0          0.315902     1.000000
    9.5 B1u   1  4f2+         0.315902     1.000000
   10.5 B1u   1  4f0          0.126361     1.000000
   11.5 B1u   1  4f2+         0.126361     1.000000
    1.6 B2g   1  3d1+         1.142614     1.000000
    2.6 B2g   1  3d1+         0.410733     1.000000
    3.6 B2g   1  3d1+         0.149100     1.000000
    4.6 B2g   1  3d1+         0.059640     1.000000
    5.6 B2g   1  5g1+         0.710746     1.000000
    6.6 B2g   1  5g3+         0.710746     1.000000
    7.6 B2g   1  5g1+         0.284298     1.000000
    8.6 B2g   1  5g3+         0.284298     1.000000
    1.7 B3g   1  3d1-         1.142614     1.000000
    2.7 B3g   1  3d1-         0.410733     1.000000
    3.7 B3g   1  3d1-         0.149100     1.000000
    4.7 B3g   1  3d1-         0.059640     1.000000
    5.7 B3g   1  5g1-         0.710746     1.000000
    6.7 B3g   1  5g3-         0.710746     1.000000
    7.7 B3g   1  5g1-         0.284298     1.000000
    8.7 B3g   1  5g3-         0.284298     1.000000
    1.8 Au    1  4f2-         0.870011     1.000000
    2.8 Au    1  4f2-         0.315902     1.000000
    3.8 Au    1  4f2-         0.126361     1.000000

 NUCLEAR CHARGE:                    3
 NUMBER OF PRIMITIVE AOS:         136
 NUMBER OF SYMMETRY AOS:          111
 NUMBER OF CONTRACTIONS:           79   (  19Ag  +  11B3u +  11B2u +   8B1g +  11B1u +   8B2g +   8B3g +   3Au  )
 NUMBER OF CORE ORBITALS:           0   (   0Ag  +   0B3u +   0B2u +   0B1g +   0B1u +   0B2g +   0B3g +   0Au  )
 NUMBER OF VALENCE ORBITALS:        4   (   1Ag  +   1B3u +   1B2u +   0B1g +   1B1u +   0B2g +   0B3g +   0Au  )


 NUCLEAR REPULSION ENERGY    0.00000000

 EXTRA SYMMETRY OF AOS IN SYMMETRY 1:   1 1 1 1 1 2 3 2 3 2   3 2 3 4 5 6 4 5 6
 EXTRA SYMMETRY OF AOS IN SYMMETRY 2:   1 1 1 1 1 2 3 2 3 2   3
 EXTRA SYMMETRY OF AOS IN SYMMETRY 3:   1 1 1 1 1 2 3 2 3 2   3
 EXTRA SYMMETRY OF AOS IN SYMMETRY 4:   1 1 1 1 2 3 2 3
 EXTRA SYMMETRY OF AOS IN SYMMETRY 5:   1 1 1 1 1 2 3 2 3 2   3
 EXTRA SYMMETRY OF AOS IN SYMMETRY 6:   1 1 1 1 2 3 2 3
 EXTRA SYMMETRY OF AOS IN SYMMETRY 7:   1 1 1 1 2 3 2 3

 Eigenvalues of metric

         1 0.142E-02 0.138E-01 0.108E+00 0.108E+00 0.112E+00 0.407E+00 0.407E+00 0.428E+00
         2 0.105E-01 0.559E-01 0.221E+00 0.221E+00 0.242E+00 0.841E+00 0.841E+00 0.116E+01
         3 0.105E-01 0.559E-01 0.221E+00 0.221E+00 0.242E+00 0.841E+00 0.841E+00 0.116E+01
         4 0.108E+00 0.407E+00 0.428E+00 0.428E+00 0.119E+01 0.157E+01 0.157E+01 0.230E+01
         5 0.105E-01 0.559E-01 0.221E+00 0.221E+00 0.242E+00 0.841E+00 0.841E+00 0.116E+01
         6 0.108E+00 0.407E+00 0.428E+00 0.428E+00 0.119E+01 0.157E+01 0.157E+01 0.230E+01
         7 0.108E+00 0.407E+00 0.428E+00 0.428E+00 0.119E+01 0.157E+01 0.157E+01 0.230E+01
         8 0.221E+00 0.841E+00 0.194E+01


 Contracted 2-electron integrals neglected if value below      1.0D-12
 AO integral compression algorithm  1   Integral accuracy      1.0D-12

     6.291 MB (compressed) written to integral file ( 65.5%)


 NUMBER OF SORTED TWO-ELECTRON INTEGRALS:     665704.     BUFFER LENGTH:  32768
 NUMBER OF SEGMENTS:   1  SEGMENT LENGTH:     665704      RECORD LENGTH: 524288

 Memory used in sort:       1.22 MW

 SORT1 READ     1222209. AND WROTE      500866. INTEGRALS IN      2 RECORDS. CPU TIME:     0.04 SEC, REAL TIME:     0.06 SEC
 SORT2 READ      500866. AND WROTE      665704. INTEGRALS IN     24 RECORDS. CPU TIME:     0.04 SEC, REAL TIME:     0.11 SEC

 FILE SIZES:   FILE 1:    25.5 MBYTE,  FILE 4:     8.4 MBYTE,   TOTAL:     33.9 MBYTE

 OPERATOR DM      FOR CENTER  0  COORDINATES:    0.000000    0.000000    0.000000
 OPERATOR EKIN    FOR CENTER  0  COORDINATES:    0.000000    0.000000    0.000000
 OPERATOR POT     FOR CENTER  0  COORDINATES:    0.000000    0.000000    0.000000


 **********************************************************************************************************************************
 DATASETS  * FILE   NREC   LENGTH (MB)   RECORD NAMES
              1      20       22.67       500      610      700      900      950      970     1000      129      960     1100   
                                          VAR    BASINP    GEOM    SYMINP    ZMAT    AOBASIS   BASIS     P2S    ABASIS      S 
                                         1400     1410     1420     1200     1210     1080     1600     1650     1300     1700   
                                         EKIN       V       ECP      H0       H01     AOSYM     SMH    MOLCAS    ERIS     OPER   

 PROGRAMS   *        TOTAL       INT
 CPU TIMES  *         0.66      0.53
 REAL TIME  *         2.18 SEC
 DISK USED  *        34.23 MB      
 **********************************************************************************************************************************


 PROGRAM * RHF-SCF (OPEN SHELL)       Authors: W. Meyer, H.-J. Werner


 NUMBER OF ELECTRONS:       2+    1-    SPACE SYMMETRY=2    SPIN SYMMETRY: Doublet 
 CONVERGENCE THRESHOLDS:    1.00E-05 (Density)    1.00E-07 (Energy)
 MAX. NUMBER OF ITERATIONS:       60
 INTERPOLATION TYPE:            DIIS
 INTERPOLATION STEPS:              2 (START)      1 (STEP)
 LEVEL SHIFTS:                 -0.60 (CLOSED) -0.30 (OPEN) 


 Singly occupied orbitals:      1.2

   Atom=B  basis=ECP2MWB_GUESS     lmin=0  lmax=1

 Orbital guess generated from atomic densities. Full valence occupancy:    1   1   1   0   1   0   0   0


 Molecular orbital dump at record        4202.2

 ITERATION    DDIFF          GRAD             ENERGY        2-EL.EN.            DIPOLE MOMENTS         DIIS   ORB.
    1      0.000D+00      0.000D+00        -2.51233846      2.205293    0.00000    0.00000    0.00000    0    start
    2      0.000D+00      0.119D-01        -2.52962947      2.337947    0.00000    0.00000    0.00000    1    diag,B
    3      0.131D-01      0.532D-02        -2.53695654      2.433099    0.00000    0.00000    0.00000    2    diag,B
    4      0.795D-02      0.243D-02        -2.53912303      2.474510    0.00000    0.00000    0.00000    3    diag,B
    5      0.681D-02      0.824D-03        -2.53929132      2.478669    0.00000    0.00000    0.00000    4    diag,B
    6      0.237D-02      0.229D-03        -2.53930319      2.480173    0.00000    0.00000    0.00000    5    diag,B
    7      0.689D-03      0.716D-04        -2.53930393      2.479931    0.00000    0.00000    0.00000    6    fixocc
    8      0.152D-03      0.176D-04        -2.53930397      2.479987    0.00000    0.00000    0.00000    7    diag,B
    9      0.797D-04      0.250D-05        -2.53930397      2.479989    0.00000    0.00000    0.00000    8    diag,B
   10      0.528D-05      0.791D-06        -2.53930397      2.479986    0.00000    0.00000    0.00000    0    orth

 Final alpha occupancy:   1   1   0   0   0   0   0   0
 Final beta  occupancy:   1   0   0   0   0   0   0   0

 !RHF STATE 1.2 Energy                 -2.539303974955
 Nuclear energy                         0.00000000
 One-electron energy                   -3.77929702
 Two-electron energy                    1.23999305
 Virial quotient                       -1.93315397
 !RHF STATE 1.2 Dipole moment           0.00000000     0.00000000     0.00000000
 Dipole moment /Debye                   0.00000000     0.00000000     0.00000000
 

 !RHF expec          <1.2|EKIN|1.2>     1.313554957406
 
 !RHF expec           <1.2|POT|1.2>    -1.840528270925

 ELECTRON ORBITALS
 =================


   Orb  Occ    Energy  Couls-En    Coefficients

                                   1 1s      1 1s      1 1s      1 1s      1 1s      1 3d0     1 3d2+    1 3d0     1 3d2+    1 3d0  
                                   1 3d2+    1 3d0     1 3d2+    1 5g0     1 5g4+    1 5g2+    1 5g0     1 5g4+    1 5g2+ 

   1.1   2    -0.4938   -1.8371  1.000131  0.000108 -0.000088 -0.000166 -0.000022 -0.000684  0.001185  0.000098 -0.000169 -0.002598
                                 0.004500 -0.001307  0.002264 -0.000002 -0.000004  0.000003 -0.000022 -0.000043  0.000032

                                   1 2px     1 2px     1 2px     1 2px     1 2px     1 4f1+    1 4f3+    1 4f1+    1 4f3+    1 4f1+ 
                                   1 4f3+ 

   1.2   +    -0.3118   -1.4045  0.999793  0.000051 -0.000135  0.000416 -0.000030  0.000023 -0.000030  0.000076 -0.000098 -0.000063
                                 0.000081

 HOMO      1.2    -0.311759 =      -8.4834eV
 LUMO      1.3     0.024609 =       0.6696eV
 LUMO-HOMO         0.336368 =       9.1530eV


 **********************************************************************************************************************************
 DATASETS  * FILE   NREC   LENGTH (MB)   RECORD NAMES
              1      20       22.67       500      610      700      900      950      970     1000      129      960     1100   
                                          VAR    BASINP    GEOM    SYMINP    ZMAT    AOBASIS   BASIS     P2S    ABASIS      S 
                                         1400     1410     1420     1200     1210     1080     1600     1650     1300     1700   
                                         EKIN       V       ECP      H0       H01     AOSYM     SMH    MOLCAS    ERIS     OPER   

              2       4        2.78       700     1000      520     4202   
                                         GEOM     BASIS   MCVARS     RHF  

 PROGRAMS   *        TOTAL       RHF       INT
 CPU TIMES  *         0.75      0.09      0.53
 REAL TIME  *         2.42 SEC
 DISK USED  *        34.23 MB      
 **********************************************************************************************************************************


 PROGRAM * MULTI (Direct Multiconfiguration SCF)       Authors: P.J. Knowles, H.-J. Werner (1984)     S.T. Elbert (1988)


 Number of closed-shell orbitals:   1 (   1   0   0   0   0   0   0   0 )
 Number of active  orbitals:        3 (   0   1   1   0   1   0   0   0 )
 Number of external orbitals:      75 (  18  10  10   8  10   8   8   3 )

 State symmetry 1

 Number of electrons:     1    Spin symmetry=Doublet   Space symmetry=2
 Number of states:        1
 Number of CSFs:          1   (1 determinants, 3 intermediate states)

 State symmetry 2

 Number of electrons:     1    Spin symmetry=Doublet   Space symmetry=3
 Number of states:        1
 Number of CSFs:          1   (1 determinants, 3 intermediate states)

 State symmetry 3

 Number of electrons:     1    Spin symmetry=Doublet   Space symmetry=5
 Number of states:        1
 Number of CSFs:          1   (1 determinants, 3 intermediate states)

 Molecular orbitals read from record     4202.2  Type=RHF/CANONICAL (state 1.2)
 *** IN SYMMETRY 1 ORBITAL  1 SYMMETRY CONTAMINATION OF 0.127D-01 HAS BEEN REMOVED

 EXTRA SYMMETRY OF MOS IN SYMMETRY 1:   1 1 2 3 1 3 2 4 5 6   3 2 1 2 3 4 5 6 1
 *** IN SYMMETRY 2 ORBITAL  1 SYMMETRY CONTAMINATION OF 0.370D-03 HAS BEEN REMOVED
 EXTRA SYMMETRY OF MOS IN SYMMETRY 2:   1 1 1 2 3 1 2 3 1 2   3
 *** IN SYMMETRY 3 ORBITAL  1 SYMMETRY CONTAMINATION OF 0.469D-02 HAS BEEN REMOVED
 EXTRA SYMMETRY OF MOS IN SYMMETRY 3:   1 1 1 2 3 1 2 3 1 2   3
 EXTRA SYMMETRY OF MOS IN SYMMETRY 4:   1 1 2 3 1 1 2 3
 *** IN SYMMETRY 5 ORBITAL  1 SYMMETRY CONTAMINATION OF 0.540D-02 HAS BEEN REMOVED
 EXTRA SYMMETRY OF MOS IN SYMMETRY 5:   1 1 1 2 3 1 2 3 1 2   3
 EXTRA SYMMETRY OF MOS IN SYMMETRY 6:   1 1 3 2 1 1 3 2
 EXTRA SYMMETRY OF MOS IN SYMMETRY 7:   1 1 2 3 1 1 2 3

 Wavefunction dump at record             5202.2

 Convergence thresholds  0.10E-01 (gradient)  0.10E-05 (energy)  0.10E-02 (step length)

 Weight factors for state symmetry  1:    0.33333
 Weight factors for state symmetry  2:    0.33333
 Weight factors for state symmetry  3:    0.33333

 Number of orbital rotations:       48   (     0 Core/Active     18 Core/Virtual   0 Active/Active     30 Active/Virtual)
 Total number of variables:         51


 ITER. MIC  NCI  NEG     ENERGY(VAR)     ENERGY(PROJ)   ENERGY CHANGE     GRAD(0)  GRAD(ORB)   GRAD(CI)     STEP       TIME

   1   37   12    0      -2.47986044      -2.53945624   -0.05959580    0.08776522 0.00000000 0.00000000  0.86D+00      0.03
   2   14   12    0      -2.53900365      -2.53922999   -0.00022634    0.01922051 0.00000000 0.00000000  0.15D-01      0.05
   3   16   12    0      -2.53923039      -2.53923039   -0.00000000    0.00006181 0.00000000 0.00000000  0.69D-04      0.06

 ** WVFN ****  CONVERGENCE REACHED, FINAL GRADIENT:  0.91D-09



 Results for state 1.2
 =====================

 !MCSCF STATE 1.2 Energy               -2.539230391972
 Nuclear energy                         0.00000000
 Kinetic energy                         1.31365191
 One electron energy                   -3.77940511
 Two electron energy                    1.24017472
 Virial ratio                           2.93295528

 !MCSCF STATE 1.2 Dipole moment         0.00000000     0.00000000     0.00000000
 Dipole moment /Debye                   0.00000000     0.00000000     0.00000000



 Results for state 1.3
 =====================

 !MCSCF STATE 1.3 Energy               -2.539230391972
 Nuclear energy                         0.00000000
 Kinetic energy                         1.31365191
 One electron energy                   -3.77940511
 Two electron energy                    1.24017472
 Virial ratio                           2.93295528

 !MCSCF STATE 1.3 Dipole moment         0.00000000     0.00000000     0.00000000
 Dipole moment /Debye                   0.00000000     0.00000000     0.00000000



 Results for state 1.5
 =====================

 !MCSCF STATE 1.5 Energy               -2.539230391972
 Nuclear energy                         0.00000000
 Kinetic energy                         1.31365191
 One electron energy                   -3.77940511
 Two electron energy                    1.24017472
 Virial ratio                           2.93295528

 !MCSCF STATE 1.5 Dipole moment         0.00000000     0.00000000     0.00000000
 Dipole moment /Debye                   0.00000000     0.00000000     0.00000000

 State-averaged charge density matrix saved on record  5202.2 (density set 1)

 !MCSCF expec        <1.2|EKIN|1.2>     1.313651907764
 !MCSCF expec        <1.3|EKIN|1.3>     1.313651908403
 !MCSCF expec        <1.5|EKIN|1.5>     1.313651908403

 !MCSCF expec         <1.2|POT|1.2>    -1.840574894206
 !MCSCF expec         <1.3|POT|1.3>    -1.840574894467
 !MCSCF expec         <1.5|POT|1.5>    -1.840574894467


 NATURAL ORBITALS (state averaged)
 =================================

   Orb     Occ        Energy       Coefficients

                                   1 1s      1 1s      1 1s      1 1s      1 1s      1 3d0     1 3d2+    1 3d0     1 3d2+    1 3d0  
                                   1 3d2+    1 3d0     1 3d2+    1 5g0     1 5g4+    1 5g2+    1 5g0     1 5g4+    1 5g2+ 

   1.1  2.00000    -0.493712     1.000077  0.000158 -0.000226 -0.000002  0.000002  0.000000  0.000000  0.000000  0.000000  0.000000
                                 0.000000  0.000000  0.000000  0.000000  0.000000  0.000000  0.000000  0.000000  0.000000

                                   1 2px     1 2px     1 2px     1 2px     1 2px     1 4f1+    1 4f3+    1 4f1+    1 4f3+    1 4f1+ 
                                   1 4f3+ 

   1.2  0.33333     0.024882     0.999954  0.000083 -0.000108  0.000123 -0.000035  0.000000  0.000000  0.000000  0.000000  0.000000
                                 0.000000

                                   1 2py     1 2py     1 2py     1 2py     1 2py     1 4f1-    1 4f3-    1 4f1-    1 4f3-    1 4f1- 
                                   1 4f3- 

   1.3  0.33333     0.024882     0.999954  0.000083 -0.000108  0.000123 -0.000035  0.000000  0.000000  0.000000  0.000000  0.000000
                                 0.000000

                                   1 2pz     1 2pz     1 2pz     1 2pz     1 2pz     1 4f0     1 4f2+    1 4f0     1 4f2+    1 4f0  
                                   1 4f2+ 

   1.5  0.33333     0.024882     0.999954  0.000083 -0.000108  0.000123 -0.000035  0.000000  0.000000  0.000000  0.000000  0.000000
                                 0.000000
 

 EXTRA SYMMETRY OF MOS IN SYMMETRY 1:   1 1 2 3 1 2 3 4 6 5   2 3 1 3 2 5 6 4 1
 EXTRA SYMMETRY OF MOS IN SYMMETRY 2:   1 1 1 3 2 1 2 3 1 3   2
 EXTRA SYMMETRY OF MOS IN SYMMETRY 3:   1 1 1 2 3 1 2 3 1 3   2
 EXTRA SYMMETRY OF MOS IN SYMMETRY 4:   1 1 2 3 1 1 3 2
 EXTRA SYMMETRY OF MOS IN SYMMETRY 5:   1 1 1 2 3 1 2 3 1 3   2
 EXTRA SYMMETRY OF MOS IN SYMMETRY 6:   1 1 3 2 1 1 2 3
 EXTRA SYMMETRY OF MOS IN SYMMETRY 7:   1 1 2 3 1 1 3 2

 Natural orbital dump (state averaged) at molpro section  5202.2    (Orbital set 2)


 CI vector for state symmetry 1
 ==============================

 a 0 0           1.0000000

 TOTAL ENERGIES                        -2.53923039

 CI vector for state symmetry 2
 ==============================

 0 a 0           1.0000000

 TOTAL ENERGIES                        -2.53923039

 CI vector for state symmetry 3
 ==============================

 0 0 a           1.0000000

 TOTAL ENERGIES                        -2.53923039



 **********************************************************************************************************************************
 DATASETS  * FILE   NREC   LENGTH (MB)   RECORD NAMES
              1      21       22.79       500      610      700      900      950      970     1000      129      960     1100   
                                          VAR    BASINP    GEOM    SYMINP    ZMAT    AOBASIS   BASIS     P2S    ABASIS      S 
                                         1400     1410     1420     1200     1210     1080     1600     1650     1300     1700   
                                         EKIN       V       ECP      H0       H01     AOSYM     SMH    MOLCAS    ERIS     OPER   
                                         1380   
                                         JKOP   

              2       5        5.31       700     1000      520     4202     5202   
                                         GEOM     BASIS   MCVARS     RHF     MCSCF   

 PROGRAMS   *        TOTAL     MULTI       RHF       INT
 CPU TIMES  *         0.84      0.09      0.09      0.53
 REAL TIME  *         3.36 SEC
 DISK USED  *        37.63 MB      
 **********************************************************************************************************************************


 PROGRAM * RHF-SCF (OPEN SHELL)       Authors: W. Meyer, H.-J. Werner


 NUMBER OF ELECTRONS:       2+    1-    SPACE SYMMETRY=2    SPIN SYMMETRY: Doublet 
 CONVERGENCE THRESHOLDS:    1.00E-05 (Density)    1.00E-07 (Energy)
 MAX. NUMBER OF ITERATIONS:        0
 INTERPOLATION TYPE:            DIIS
 INTERPOLATION STEPS:              2 (START)      1 (STEP)
 LEVEL SHIFTS:                 -0.60 (CLOSED) -0.30 (OPEN) 


 Singly occupied orbitals:      1.2
 Molecular orbitals read from record     5202.2  Type=MCSCF/NATURAL (state averaged)

 Molecular orbital dump at record        2101.2

 ITERATION    DDIFF          GRAD             ENERGY        2-EL.EN.            DIPOLE MOMENTS         DIIS   ORB.
    1      0.000D+00      0.000D+00        -2.53923039      2.480349    0.00000    0.00000    0.00000    0    start

 Final alpha occupancy:   1   1   0   0   0   0   0   0
 Final beta  occupancy:   1   0   0   0   0   0   0   0

 !RHF STATE 1.2 Energy                 -2.539230391972
 Nuclear energy                         0.00000000
 One-electron energy                   -3.77940511
 Two-electron energy                    1.24017472
 Virial quotient                       -1.93295528
 !RHF STATE 1.2 Dipole moment           0.00000000     0.00000000     0.00000000
 Dipole moment /Debye                   0.00000000     0.00000000     0.00000000
 

 !RHF expec          <1.2|EKIN|1.2>     1.313651907764
 
 !RHF expec           <1.2|POT|1.2>    -1.840574894206

 ELECTRON ORBITALS
 =================


   Orb  Occ    Energy  Couls-En    Coefficients

                                   1 1s      1 1s      1 1s      1 1s      1 1s      1 3d0     1 3d2+    1 3d0     1 3d2+    1 3d0  
                                   1 3d2+    1 3d0     1 3d2+    1 5g0     1 5g4+    1 5g2+    1 5g0     1 5g4+    1 5g2+ 

   1.1   2    -0.4937   -1.8370  1.000077  0.000158 -0.000226 -0.000002  0.000002  0.000000  0.000000  0.000000  0.000000  0.000000
                                 0.000000  0.000000  0.000000  0.000000  0.000000  0.000000  0.000000  0.000000  0.000000

                                   1 2px     1 2px     1 2px     1 2px     1 2px     1 4f1+    1 4f3+    1 4f1+    1 4f3+    1 4f1+ 
                                   1 4f3+ 

   1.2   +     0.0249   -1.0679  0.999954  0.000083 -0.000108  0.000123 -0.000035  0.000000  0.000000  0.000000  0.000000  0.000000
                                 0.000000

 HOMO      1.2     0.024882 =       0.6771eV
 LUMO      1.3     0.024882 =       0.6771eV
 LUMO-HOMO         0.000000 =       0.0000eV


 **********************************************************************************************************************************
 DATASETS  * FILE   NREC   LENGTH (MB)   RECORD NAMES
              1      21       22.79       500      610      700      900      950      970     1000      129      960     1100   
                                          VAR    BASINP    GEOM    SYMINP    ZMAT    AOBASIS   BASIS     P2S    ABASIS      S 
                                         1400     1410     1420     1200     1210     1080     1600     1650     1300     1700   
                                         EKIN       V       ECP      H0       H01     AOSYM     SMH    MOLCAS    ERIS     OPER   
                                         1380   
                                         JKOP   

              2       6        7.84       700     1000      520     4202     5202     2101   
                                         GEOM     BASIS   MCVARS     RHF     MCSCF     RHF  

 PROGRAMS   *        TOTAL       RHF     MULTI       RHF       INT
 CPU TIMES  *         0.85      0.01      0.09      0.09      0.53
 REAL TIME  *         3.47 SEC
 DISK USED  *        37.63 MB      
 **********************************************************************************************************************************
 SETTING SCF(I)         =        -2.53923039  AU                              
 SETTING _CC_NORM_MAX   =         2.00000000                                  


 PROGRAM * CCSD (Restricted open-shell coupled cluster)     Authors: C. Hampel, H.-J. Werner, 1991, M. Deegan, P.J. Knowles, 1992


 Convergence thresholds:  THRVAR = 1.00D-08  THRDEN = 1.00D-06

 CCSD(T)     terms to be evaluated (factor= 1.000)


 Number of closed-shell orbitals:   1 (   1   0   0   0   0   0   0   0 )
 Number of active  orbitals:        1 (   0   1   0   0   0   0   0   0 )
 Number of external orbitals:      77 (  18  10  11   8  11   8   8   3 )

 Memory could be reduced to 0.81 Mwords without degradation in triples

 Number of N-1 electron functions:               3
 Number of N-2 electron functions:               3
 Number of singly external CSFs:                47
 Number of doubly external CSFs:              2082
 Total number of CSFs:                        2129

 Molecular orbitals read from record     2101.2  Type=RHF/CANONICAL (state 1.2)

 Integral transformation finished. Total CPU:   0.00 sec, npass=  1  Memory used:   0.12 MW

 Starting RMP2 calculation

 Wavefunction is spin-projected

 ITER.      SQ.NORM     CORR.ENERGY   TOTAL ENERGY   ENERGY CHANGE        DEN1      VAR(S)    VAR(P)  DIIS     TIME
   1      1.03026170    -0.05309071    -2.59232111    -0.05309071    -0.00045824  0.20D-04  0.27D-03  1  1     0.01
   2      1.03110885    -0.05362526    -2.59285565    -0.00053455    -0.00000299  0.28D-07  0.17D-05  2  2     0.01
   3      1.03115108    -0.05364244    -2.59287283    -0.00001718    -0.00000002  0.28D-09  0.10D-07  3  3     0.01
   4      1.03115151    -0.05364250    -2.59287289    -0.00000006    -0.00000000  0.13D-11  0.41D-10  4  4     0.01

 Norm of t1 vector:      0.03836225      S-energy:    -0.00221554      T1 diagnostic:  0.00289672
 Norm of t2 vector:      0.17227840      P-energy:    -0.05142696
                                         Alpha-Beta:  -0.04778486
                                         Alpha-Alpha: -0.00364210
                                         Beta-Beta:    0.00000000

 Spin contamination <S**2-Sz**2-Sz>     0.00000000
  Reference energy                     -2.539230391972
  RHF-RMP2 correlation energy          -0.053642502731
 !RHF-RMP2 energy                      -2.592872894703
 (NB above energy spin projected)

 Starting RCCSD calculation

 ITER.      SQ.NORM     CORR.ENERGY   TOTAL ENERGY   ENERGY CHANGE        DEN1      VAR(S)    VAR(P)  DIIS     TIME
   1      1.04674290    -0.06232611    -2.60155650    -0.06232611    -0.00571882  0.37D-03  0.34D-02  1  1     0.03
   2      1.06832797    -0.07092951    -2.61015990    -0.00860340    -0.00047983  0.19D-04  0.28D-03  2  2     0.03
   3      1.07566265    -0.07269686    -2.61192725    -0.00176735    -0.00003552  0.17D-05  0.20D-04  3  3     0.04
   4      1.07777718    -0.07315656    -2.61238695    -0.00045971    -0.00000190  0.15D-06  0.10D-05  4  4     0.05
   5      1.07787563    -0.07315457    -2.61238496     0.00000199    -0.00000011  0.16D-07  0.61D-07  5  5     0.05
   6      1.07788144    -0.07315531    -2.61238570    -0.00000074    -0.00000001  0.14D-08  0.62D-08  6  6     0.06

 Norm of t1 vector:      0.05857943      S-energy:    -0.00283715      T1 diagnostic:  0.01117858
                                                                       D1 diagnostic:  0.01889265
 Norm of t2 vector:      0.27285507      P-energy:    -0.07031816
                                         Alpha-Beta:  -0.06648566
                                         Alpha-Alpha: -0.00383250
                                         Beta-Beta:    0.00000000

 Doubles amplitudes (print threshold =  0.500E-01):

         I         J         SYM. A    SYM. B    A         B      T(IJ, AB) [Alpha-Beta]

         1         1         3         3         1         1     -0.15008550
         1         1         5         5         1         1     -0.15008660

 Spin contamination <S**2-Sz**2-Sz>     0.00000000

 Memory could be reduced to 0.81 Mwords without degradation in triples
 

 RESULTS
 =======

  Reference energy                     -2.539230391972
  RCCSD singles energy                 -0.002837150265
  RCCSD pair energy                    -0.070318161430
  RCCSD correlation energy             -0.073155311695
  Triples (T) contribution             -0.001735100031
  Total correlation energy             -0.074890411726
 
  RHF-RCCSD energy                     -2.612385703667
  RHF-RCCSD[T] energy                  -2.614053468910
  RHF-RCCSD-T energy                   -2.614125134476
 !RHF-RCCSD(T) energy                  -2.614120803697

 Program statistics:

 Available memory in ccsd:               511999848
 Min. memory needed in ccsd:                 30464
 Max. memory used in ccsd:                   31244
 Max. memory used in cckext:                 56128 ( 6 integral passes)
 Max. memory used in cckint:                123465 ( 1 integral passes)



 **********************************************************************************************************************************
 DATASETS  * FILE   NREC   LENGTH (MB)   RECORD NAMES
              1      21       22.79       500      610      700      900      950      970     1000      129      960     1100   
                                          VAR    BASINP    GEOM    SYMINP    ZMAT    AOBASIS   BASIS     P2S    ABASIS      S 
                                         1400     1410     1420     1200     1210     1080     1600     1650     1300     1700   
                                         EKIN       V       ECP      H0       H01     AOSYM     SMH    MOLCAS    ERIS     OPER   
                                         1380   
                                         JKOP   

              2       6        7.84       700     1000      520     4202     5202     2101   
                                         GEOM     BASIS   MCVARS     RHF     MCSCF     RHF  

 PROGRAMS   *        TOTAL  RCCSD(T)       RHF     MULTI       RHF       INT
 CPU TIMES  *         0.98      0.13      0.01      0.09      0.09      0.53
 REAL TIME  *         4.30 SEC
 DISK USED  *        37.63 MB      
 **********************************************************************************************************************************
 SETTING POSTHF(I)      =        -2.61412080  AU                              
                                                                                                                                                                                                                                                                

       SCF           POSTHF       EKIN          POT
    -2.53923039   -2.61412080   1.31365191   -1.84057489
                                                  

 RCCSD(T)/USERDEF energy=     -2.614120803697

        RCCSD(T)        MULTI           RHF-SCF 
     -2.61412080     -2.53923039     -2.53930397
 **********************************************************************************************************************************
 Variable memory released
