
 Primary working directories    : /global/cscratch1/sd/aannabe
 Secondary working directories  : /global/cscratch1/sd/aannabe
 Wavefunction directory         : /global/homes/a/aannabe/wfu/
 Main file repository           : /global/cscratch1/sd/aannabe/

 SHA1      : 2873118e99aab1bc19f5b6fc1784693c06d15c95
 NAME      : 2015.1.8
 ARCHNAME  : linux/x86_64
 FC        : /opt/cray/pe/craype/2.5.5/bin/ftn
 BLASLIB   : -Wl,-_start-group /opt/intel/compilers_and_libraries_2016.3.210/linux/mkl/lib/intel64/libmkl_intel_ilp64.a /opt/intel/compilers_and_libraries_2016.3.210/linux/mkl/lib/intel64/libmkl_intel_thread.a /opt/intel/compilers_and_libraries_2016.3.210/linux/mkl/lib/intel64/libmkl_core.a -Wl,-_end-group
 id        : lbl

 Nodes     nprocs
 nid00482     1

 Using customized tuning parameters: mindgm=8; mindgv=16; mindgc=4; mindgr=1; noblas=0; minvec=7
 default implementation of scratch files=df  

 ***,Al
 memory,8,g
 gthresh,twoint=1.e-12
 
 gprint,basis,orbitals
 gexpec,ekin,pot
 
 angstrom
 geometry={
 1                                                                               ! Number of atoms
 Al 0.0 0.0 0.0
 }
 
 basis={
 Including file /global/homes/a/aannabe/docs/accurate/ccECP_Kh/pps/Al.pp
 Including file /global/homes/a/aannabe/docs/accurate/ccECP_Kh/basis/aug-cc-pVnZ/Al_dz.basis
 }
 
 {rhf
  start,atden
  wf,3,2,1
  occ,1,1,0,0,0,0,0,0
  open,1.2
  save,4202.2
 }
 {multi
  start,4202.2
  occ,1,1,1,0,1,0,0
  closed,1,0,0,0,0,0,0,0
  wf,3,2,1;state,1
  wf,3,3,1;state,1
  wf,3,5,1;state,1
  natorb,ci,print
  orbital,5202.2
 }
 {rhf,nitord=1,maxit=0
  start,5202.2
  wf,3,2,1
  occ,1,1,0,0,0,0,0,0
  open,1.2
 }
 
 scf(i)=energy
 
 _CC_NORM_MAX=2.0
 {fci
 maxit,100
 core
 }
 posthf(i)=energy
 
 table,scf,posthf,ekin,pot
 save,2.csv,new
 
 

 Variables initialized (889), CPU time= 0.00 sec
 Commands  initialized (702), CPU time= 0.01 sec, 572 directives.
 Default parameters read. Elapsed time= 0.12 sec

 Checking input...
 Passed
1


                                         ***  PROGRAM SYSTEM MOLPRO  ***
                                       Copyright, TTI GmbH Stuttgart, 2015
                                    Version 2015.1 linked Sep  7 2016 23:09:38


 **********************************************************************************************************************************
 LABEL *   Al                                                                            
  64 bit serial version                                                                  DATE: 30-Oct-18          TIME: 15:07:13  
 **********************************************************************************************************************************

 SHA1:             2873118e99aab1bc19f5b6fc1784693c06d15c95
 **********************************************************************************************************************************

 THRESHOLDS:

 ZERO    =  1.00D-12  ONEINT  =  1.00D-12  TWOINT  =  1.00D-12  PREFAC  =  1.00D-14  LOCALI  =  1.00D-09  EORDER  =  1.00D-04
 ENERGY  =  0.00D+00  ETEST   =  0.00D+00  EDENS   =  0.00D+00  THRDEDEF=  1.00D-06  GRADIENT=  1.00D-02  STEP    =  1.00D-03
 ORBITAL =  1.00D-05  CIVEC   =  1.00D-05  COEFF   =  1.00D-04  PRINTCI =  5.00D-02  PUNCHCI =  9.90D+01  OPTGRAD =  3.00D-04
 OPTENERG=  1.00D-06  OPTSTEP =  3.00D-04  THRGRAD =  1.00D-10  COMPRESS=  1.00D-11  VARMIN  =  1.00D-07  VARMAX  =  1.00D-03
 THRDOUB =  0.00D+00  THRDIV  =  1.00D-05  THRRED  =  1.00D-07  THRPSP  =  1.00D+00  THRDC   =  1.00D-10  THRCS   =  1.00D-10
 THRNRM  =  1.00D-08  THREQ   =  0.00D+00  THRDE   =  1.00D+00  THRREF  =  1.00D-05  SPARFAC =  1.00D+00  THRDLP  =  1.00D-07
 THRDIA  =  1.00D-10  THRDLS  =  1.00D-07  THRGPS  =  0.00D+00  THRKEX  =  0.00D+00  THRDIS  =  2.00D-01  THRVAR  =  1.00D-10
 THRLOC  =  1.00D-06  THRGAP  =  1.00D-06  THRLOCT = -1.00D+00  THRGAPT = -1.00D+00  THRORB  =  1.00D-06  THRMLTP =  0.00D+00
 THRCPQCI=  1.00D-10  KEXTA   =  0.00D+00  THRCOARS=  0.00D+00  SYMTOL  =  1.00D-06  GRADTOL =  1.00D-06  THROVL  =  1.00D-08
 THRORTH =  1.00D-08  GRID    =  1.00D-06  GRIDMAX =  1.00D-03  DTMAX   =  0.00D+00  THROCCDE=  1.00D-01  THROCCDE=  1.00D-01



 ZUNIT=ANG
 

Geometry recognized as XYZ


 Variable memory set to 8000000000 words,  buffer space   230000 words

 SETTING BASIS          =    USERDEF


 Recomputing integrals since basis changed


 Using spherical harmonics



 PROGRAM * SEWARD (Integral evaluation for generally contracted gaussian basis sets)     Author: Roland Lindh, 1990

 Geometry written to block  1 of record 700

 Orientation using atomic masses  
 Molecule type: Atom
 Symmetry elements: X,Y,Z
 Rotational constants:       0.0000000      0.0000000      0.0000000 GHz  (calculated with average atomic masses)

 Point group  D2h 



 ATOMIC COORDINATES

 NR  ATOM    CHARGE       X              Y              Z

   1  AL      3.00    0.000000000    0.000000000    0.000000000


          AL  CORE POTENTIAL

          d POTENTIAL

 POWERS             1              3              2
 EXPONENTIALS   5.073893       8.607001       3.027490    
 COEFFICIENTS   3.000000       15.22168      -11.16568    

          s - d POTENTIAL

 POWERS             2              2
 EXPONENTIALS   7.863954       2.061358    
 COEFFICIENTS   14.87951       20.74686    

          p - d POTENTIAL

 POWERS             2              2
 EXPONENTIALS   3.125175       1.414930    
 COEFFICIENTS   7.786227       7.109015    


 BASIS DATA

   Nr Sym  Nuc  Type         Exponents   Contraction coefficients

    1.1 Ag    1  1s          57.235801    -0.000002
                             25.924172    -0.000006
                             11.741998     0.000395
                              5.318377    -0.003539
                              2.408886     0.040296
                              1.091072    -0.240905
                              0.494186    -0.050811
                              0.223835     0.400848
                              0.101383     0.564749
                              0.045920     0.214083
    2.1 Ag    1  1s           0.035747     1.000000
    3.1 Ag    1  1s           0.023040     1.000000
    4.1 Ag    1  3d0          0.356404     1.000000
    5.1 Ag    1  3d2+         0.356404     1.000000
    6.1 Ag    1  3d0          0.115816     1.000000
    7.1 Ag    1  3d2+         0.115816     1.000000
    1.2 B3u   1  2px          8.647956    -0.000159
                              4.468163    -0.000538
                              2.308578     0.006271
                              1.192780    -0.051237
                              0.616277     0.014611
                              0.318413     0.144648
                              0.164516     0.299819
                              0.085001     0.373586
                              0.043918     0.253917
                              0.022691     0.063644
    2.2 B3u   1  2px          0.215318     1.000000
    3.2 B3u   1  2px          0.201871     1.000000
    1.3 B2u   1  2py          8.647956    -0.000159
                              4.468163    -0.000538
                              2.308578     0.006271
                              1.192780    -0.051237
                              0.616277     0.014611
                              0.318413     0.144648
                              0.164516     0.299819
                              0.085001     0.373586
                              0.043918     0.253917
                              0.022691     0.063644
    2.3 B2u   1  2py          0.215318     1.000000
    3.3 B2u   1  2py          0.201871     1.000000
    1.4 B1g   1  3d2-         0.356404     1.000000
    2.4 B1g   1  3d2-         0.115816     1.000000
    1.5 B1u   1  2pz          8.647956    -0.000159
                              4.468163    -0.000538
                              2.308578     0.006271
                              1.192780    -0.051237
                              0.616277     0.014611
                              0.318413     0.144648
                              0.164516     0.299819
                              0.085001     0.373586
                              0.043918     0.253917
                              0.022691     0.063644
    2.5 B1u   1  2pz          0.215318     1.000000
    3.5 B1u   1  2pz          0.201871     1.000000
    1.6 B2g   1  3d1+         0.356404     1.000000
    2.6 B2g   1  3d1+         0.115816     1.000000
    1.7 B3g   1  3d1-         0.356404     1.000000
    2.7 B3g   1  3d1-         0.115816     1.000000

 NUCLEAR CHARGE:                    3
 NUMBER OF PRIMITIVE AOS:          60
 NUMBER OF SYMMETRY AOS:           58
 NUMBER OF CONTRACTIONS:           22   (   7Ag  +   3B3u +   3B2u +   2B1g +   3B1u +   2B2g +   2B3g +   0Au  )
 NUMBER OF CORE ORBITALS:           0   (   0Ag  +   0B3u +   0B2u +   0B1g +   0B1u +   0B2g +   0B3g +   0Au  )
 NUMBER OF VALENCE ORBITALS:        4   (   1Ag  +   1B3u +   1B2u +   0B1g +   1B1u +   0B2g +   0B3g +   0Au  )


 NUCLEAR REPULSION ENERGY    0.00000000

 EXTRA SYMMETRY OF AOS IN SYMMETRY 1:   1 1 1 2 3 2 3

 Eigenvalues of metric

         1 0.129E-01 0.302E+00 0.409E+00 0.409E+00 0.159E+01 0.159E+01 0.268E+01
         2 0.611E-03 0.187E+00 0.281E+01
         3 0.611E-03 0.187E+00 0.281E+01
         4 0.409E+00 0.159E+01
         5 0.611E-03 0.187E+00 0.281E+01
         6 0.409E+00 0.159E+01
         7 0.409E+00 0.159E+01


 Contracted 2-electron integrals neglected if value below      1.0D-12
 AO integral compression algorithm  1   Integral accuracy      1.0D-12

     0.262 MB (compressed) written to integral file (100.0%)


 NUMBER OF SORTED TWO-ELECTRON INTEGRALS:       5272.     BUFFER LENGTH:  32768
 NUMBER OF SEGMENTS:   1  SEGMENT LENGTH:       5272      RECORD LENGTH: 524288

 Memory used in sort:       0.56 MW

 SORT1 READ       12220. AND WROTE        4734. INTEGRALS IN      1 RECORDS. CPU TIME:     0.00 SEC, REAL TIME:     0.01 SEC
 SORT2 READ        4734. AND WROTE        5272. INTEGRALS IN      1 RECORDS. CPU TIME:     0.00 SEC, REAL TIME:     0.01 SEC

 FILE SIZES:   FILE 1:    19.3 MBYTE,  FILE 4:     4.2 MBYTE,   TOTAL:     23.6 MBYTE

 OPERATOR DM      FOR CENTER  0  COORDINATES:    0.000000    0.000000    0.000000
 OPERATOR EKIN    FOR CENTER  0  COORDINATES:    0.000000    0.000000    0.000000
 OPERATOR POT     FOR CENTER  0  COORDINATES:    0.000000    0.000000    0.000000


 **********************************************************************************************************************************
 DATASETS  * FILE   NREC   LENGTH (MB)   RECORD NAMES
              1      20       19.12       500      610      700      900      950      970     1000      129      960     1100   
                                          VAR    BASINP    GEOM    SYMINP    ZMAT    AOBASIS   BASIS     P2S    ABASIS      S 
                                         1400     1410     1420     1200     1210     1080     1600     1650     1300     1700   
                                         EKIN       V       ECP      H0       H01     AOSYM     SMH    MOLCAS    ERIS     OPER   

 PROGRAMS   *        TOTAL       INT
 CPU TIMES  *         1.89      1.78
 REAL TIME  *        12.56 SEC
 DISK USED  *        23.83 MB      
 **********************************************************************************************************************************


 PROGRAM * RHF-SCF (OPEN SHELL)       Authors: W. Meyer, H.-J. Werner


 NUMBER OF ELECTRONS:       2+    1-    SPACE SYMMETRY=2    SPIN SYMMETRY: Doublet 
 CONVERGENCE THRESHOLDS:    1.00E-05 (Density)    1.00E-07 (Energy)
 MAX. NUMBER OF ITERATIONS:       60
 INTERPOLATION TYPE:            DIIS
 INTERPOLATION STEPS:              2 (START)      1 (STEP)
 LEVEL SHIFTS:                 -0.60 (CLOSED) -0.30 (OPEN) 


 Singly occupied orbitals:      1.2

   Atom=AL basis=ECP10MWB_GUESS    lmin=0  lmax=1

 Orbital guess generated from atomic densities. Full valence occupancy:    1   1   1   0   1   0   0   0


 Molecular orbital dump at record        4202.2

 ITERATION    DDIFF          GRAD             ENERGY        2-EL.EN.            DIPOLE MOMENTS         DIIS   ORB.
    1      0.000D+00      0.000D+00        -1.87119301      1.714236    0.00000    0.00000    0.00000    0    start
    2      0.000D+00      0.645D-02        -1.87339112      1.739396    0.00000    0.00000    0.00000    1    diag,B
    3      0.173D+00      0.373D-02        -1.87468936      1.771208    0.00000    0.00000    0.00000    2    diag,B
    4      0.155D+00      0.927D-03        -1.87475237      1.776175    0.00000    0.00000    0.00000    3    diag,B
    5      0.266D-01      0.136D-03        -1.87475304      1.775735    0.00000    0.00000    0.00000    4    diag,B
    6      0.806D-03      0.683D-04        -1.87475326      1.775713    0.00000    0.00000    0.00000    5    diag,B
    7      0.770D-03      0.162D-04        -1.87475327      1.775656    0.00000    0.00000    0.00000    6    fixocc
    8      0.199D-03      0.278D-05        -1.87475327      1.775670    0.00000    0.00000    0.00000    7    diag,B
    9      0.161D-04      0.290D-06        -1.87475327      1.775671    0.00000    0.00000    0.00000    8    diag,B
   10      0.369D-05      0.371D-06        -1.87475327      1.775671    0.00000    0.00000    0.00000    0    orth

 Final alpha occupancy:   1   1   0   0   0   0   0
 Final beta  occupancy:   1   0   0   0   0   0   0

 !RHF STATE 1.2 Energy                 -1.874753266355
 Nuclear energy                         0.00000000
 One-electron energy                   -2.76258866
 Two-electron energy                    0.88783540
 Virial quotient                       -2.89492648
 !RHF STATE 1.2 Dipole moment           0.00000000     0.00000000     0.00000000
 Dipole moment /Debye                   0.00000000     0.00000000     0.00000000
 

 !RHF expec          <1.2|EKIN|1.2>     0.647599611999
 
 !RHF expec           <1.2|POT|1.2>    -1.258484681545

 ELECTRON ORBITALS
 =================


   Orb  Occ    Energy  Couls-En    Coefficients

                                   1 1s      1 1s      1 1s      1 3d0     1 3d2+    1 3d0     1 3d2+ 

   1.1   2    -0.3903   -1.4014  1.065004 -0.186719  0.128568  0.001228 -0.002126 -0.004423  0.007661

                                   1 2px     1 2px     1 2px  

   1.2   +    -0.2062   -0.9467  1.007311  0.109968 -0.115997

 HOMO      1.2    -0.206223 =      -5.6116eV
 LUMO      1.3     0.022048 =       0.6000eV
 LUMO-HOMO         0.228271 =       6.2116eV


 **********************************************************************************************************************************
 DATASETS  * FILE   NREC   LENGTH (MB)   RECORD NAMES
              1      20       19.12       500      610      700      900      950      970     1000      129      960     1100   
                                          VAR    BASINP    GEOM    SYMINP    ZMAT    AOBASIS   BASIS     P2S    ABASIS      S 
                                         1400     1410     1420     1200     1210     1080     1600     1650     1300     1700   
                                         EKIN       V       ECP      H0       H01     AOSYM     SMH    MOLCAS    ERIS     OPER   

              2       4        2.75       700     1000      520     4202   
                                         GEOM     BASIS   MCVARS     RHF  

 PROGRAMS   *        TOTAL       RHF       INT
 CPU TIMES  *         1.92      0.03      1.78
 REAL TIME  *        12.74 SEC
 DISK USED  *        23.83 MB      
 **********************************************************************************************************************************


 PROGRAM * MULTI (Direct Multiconfiguration SCF)       Authors: P.J. Knowles, H.-J. Werner (1984)     S.T. Elbert (1988)


 Number of closed-shell orbitals:   1 (   1   0   0   0   0   0   0   0 )
 Number of active  orbitals:        3 (   0   1   1   0   1   0   0   0 )
 Number of external orbitals:      18 (   6   2   2   2   2   2   2   0 )

 State symmetry 1

 Number of electrons:     1    Spin symmetry=Doublet   Space symmetry=2
 Number of states:        1
 Number of CSFs:          1   (1 determinants, 3 intermediate states)

 State symmetry 2

 Number of electrons:     1    Spin symmetry=Doublet   Space symmetry=3
 Number of states:        1
 Number of CSFs:          1   (1 determinants, 3 intermediate states)

 State symmetry 3

 Number of electrons:     1    Spin symmetry=Doublet   Space symmetry=5
 Number of states:        1
 Number of CSFs:          1   (1 determinants, 3 intermediate states)

 Molecular orbitals read from record     4202.2  Type=RHF/CANONICAL (state 1.2)
 *** IN SYMMETRY 1 ORBITAL  1 SYMMETRY CONTAMINATION OF 0.111D-01 HAS BEEN REMOVED

 EXTRA SYMMETRY OF MOS IN SYMMETRY 1:   1 1 3 2 1 2 3

 Wavefunction dump at record             5202.2

 Convergence thresholds  0.10E-01 (gradient)  0.10E-05 (energy)  0.10E-02 (step length)

 Weight factors for state symmetry  1:    0.33333
 Weight factors for state symmetry  2:    0.33333
 Weight factors for state symmetry  3:    0.33333

 Number of orbital rotations:       12   (     0 Core/Active      6 Core/Virtual   0 Active/Active      6 Active/Virtual)
 Total number of variables:         15


 ITER. MIC  NCI  NEG     ENERGY(VAR)     ENERGY(PROJ)   ENERGY CHANGE     GRAD(0)  GRAD(ORB)   GRAD(CI)     STEP       TIME

   1   16   12    0      -1.86855313      -1.87469303   -0.00613991    0.02514629 0.00000000 0.00000000  0.25D+00      0.02
   2   12   12    0      -1.87469093      -1.87469205   -0.00000112    0.00098932 0.00000000 0.00000000  0.13D-02      0.03
   3   13   12    0      -1.87469205      -1.87469205   -0.00000000    0.00000010 0.00000000 0.00000000  0.28D-06      0.04

 ** WVFN ****  CONVERGENCE REACHED, FINAL GRADIENT:  0.36D-14



 Results for state 1.2
 =====================

 !MCSCF STATE 1.2 Energy               -1.874692045085
 Nuclear energy                         0.00000000
 Kinetic energy                         0.64751454
 One electron energy                   -2.76263229
 Two electron energy                    0.88794025
 Virial ratio                           3.89521226

 !MCSCF STATE 1.2 Dipole moment         0.00000000     0.00000000     0.00000000
 Dipole moment /Debye                   0.00000000     0.00000000     0.00000000



 Results for state 1.3
 =====================

 !MCSCF STATE 1.3 Energy               -1.874692045085
 Nuclear energy                         0.00000000
 Kinetic energy                         0.64751454
 One electron energy                   -2.76263229
 Two electron energy                    0.88794025
 Virial ratio                           3.89521226

 !MCSCF STATE 1.3 Dipole moment         0.00000000     0.00000000     0.00000000
 Dipole moment /Debye                   0.00000000     0.00000000     0.00000000



 Results for state 1.5
 =====================

 !MCSCF STATE 1.5 Energy               -1.874692045085
 Nuclear energy                         0.00000000
 Kinetic energy                         0.64751454
 One electron energy                   -2.76263229
 Two electron energy                    0.88794025
 Virial ratio                           3.89521226

 !MCSCF STATE 1.5 Dipole moment         0.00000000     0.00000000     0.00000000
 Dipole moment /Debye                   0.00000000     0.00000000     0.00000000

 State-averaged charge density matrix saved on record  5202.2 (density set 1)

 !MCSCF expec        <1.2|EKIN|1.2>     0.647514542764
 !MCSCF expec        <1.3|EKIN|1.3>     0.647514542764
 !MCSCF expec        <1.5|EKIN|1.5>     0.647514542764

 !MCSCF expec         <1.2|POT|1.2>    -1.258481764065
 !MCSCF expec         <1.3|POT|1.3>    -1.258481764065
 !MCSCF expec         <1.5|POT|1.5>    -1.258481764065


 NATURAL ORBITALS (state averaged)
 =================================

   Orb     Occ        Energy       Coefficients

                                   1 1s      1 1s      1 1s      1 3d0     1 3d2+    1 3d0     1 3d2+ 

   1.1  2.00000    -0.390323     1.064882 -0.186384  0.128388  0.000000  0.000000  0.000000  0.000000

                                   1 2px     1 2px     1 2px  

   1.2  0.33333     0.004771     1.007476  0.111719 -0.117901

                                   1 2py     1 2py     1 2py  

   1.3  0.33333     0.004771     1.007476  0.111719 -0.117901

                                   1 2pz     1 2pz     1 2pz  

   1.5  0.33333     0.004771     1.007476  0.111719 -0.117901
 

 Natural orbital dump (state averaged) at molpro section  5202.2    (Orbital set 2)


 CI vector for state symmetry 1
 ==============================

 a 0 0           1.0000000

 TOTAL ENERGIES                        -1.87469205

 CI vector for state symmetry 2
 ==============================

 0 a 0           1.0000000

 TOTAL ENERGIES                        -1.87469205

 CI vector for state symmetry 3
 ==============================

 0 0 a           1.0000000

 TOTAL ENERGIES                        -1.87469205



 **********************************************************************************************************************************
 DATASETS  * FILE   NREC   LENGTH (MB)   RECORD NAMES
              1      21       19.13       500      610      700      900      950      970     1000      129      960     1100   
                                          VAR    BASINP    GEOM    SYMINP    ZMAT    AOBASIS   BASIS     P2S    ABASIS      S 
                                         1400     1410     1420     1200     1210     1080     1600     1650     1300     1700   
                                         EKIN       V       ECP      H0       H01     AOSYM     SMH    MOLCAS    ERIS     OPER   
                                         1380   
                                         JKOP   

              2       5        5.24       700     1000      520     4202     5202   
                                         GEOM     BASIS   MCVARS     RHF     MCSCF   

 PROGRAMS   *        TOTAL     MULTI       RHF       INT
 CPU TIMES  *         1.98      0.05      0.03      1.78
 REAL TIME  *        13.77 SEC
 DISK USED  *        33.51 MB      
 **********************************************************************************************************************************


 PROGRAM * RHF-SCF (OPEN SHELL)       Authors: W. Meyer, H.-J. Werner


 NUMBER OF ELECTRONS:       2+    1-    SPACE SYMMETRY=2    SPIN SYMMETRY: Doublet 
 CONVERGENCE THRESHOLDS:    1.00E-05 (Density)    1.00E-07 (Energy)
 MAX. NUMBER OF ITERATIONS:        0
 INTERPOLATION TYPE:            DIIS
 INTERPOLATION STEPS:              2 (START)      1 (STEP)
 LEVEL SHIFTS:                 -0.60 (CLOSED) -0.30 (OPEN) 


 Singly occupied orbitals:      1.2
 Molecular orbitals read from record     5202.2  Type=MCSCF/NATURAL (state averaged)

 Molecular orbital dump at record        2101.2

 ITERATION    DDIFF          GRAD             ENERGY        2-EL.EN.            DIPOLE MOMENTS         DIIS   ORB.
    1      0.000D+00      0.000D+00        -1.87469205      1.775880    0.00000    0.00000    0.00000    0    start

 Final alpha occupancy:   1   1   0   0   0   0   0
 Final beta  occupancy:   1   0   0   0   0   0   0

 !RHF STATE 1.2 Energy                 -1.874692045085
 Nuclear energy                         0.00000000
 One-electron energy                   -2.76263229
 Two-electron energy                    0.88794025
 Virial quotient                       -2.89521226
 !RHF STATE 1.2 Dipole moment           0.00000000     0.00000000     0.00000000
 Dipole moment /Debye                   0.00000000     0.00000000     0.00000000
 

 !RHF expec          <1.2|EKIN|1.2>     0.647514542764
 
 !RHF expec           <1.2|POT|1.2>    -1.258481764065

 ELECTRON ORBITALS
 =================


   Orb  Occ    Energy  Couls-En    Coefficients

                                   1 1s      1 1s      1 1s      1 3d0     1 3d2+    1 3d0     1 3d2+ 

   1.1   2    -0.3903   -1.4014  1.064882 -0.186384  0.128388  0.000000  0.000000  0.000000  0.000000

                                   1 2px     1 2px     1 2px  

   1.2   +     0.0048   -0.7357  1.007476  0.111719 -0.117901

 HOMO      1.2     0.004771 =       0.1298eV
 LUMO      1.3     0.004771 =       0.1298eV
 LUMO-HOMO        -0.000000 =      -0.0000eV


 **********************************************************************************************************************************
 DATASETS  * FILE   NREC   LENGTH (MB)   RECORD NAMES
              1      21       19.13       500      610      700      900      950      970     1000      129      960     1100   
                                          VAR    BASINP    GEOM    SYMINP    ZMAT    AOBASIS   BASIS     P2S    ABASIS      S 
                                         1400     1410     1420     1200     1210     1080     1600     1650     1300     1700   
                                         EKIN       V       ECP      H0       H01     AOSYM     SMH    MOLCAS    ERIS     OPER   
                                         1380   
                                         JKOP   

              2       6        7.74       700     1000      520     4202     5202     2101   
                                         GEOM     BASIS   MCVARS     RHF     MCSCF     RHF  

 PROGRAMS   *        TOTAL       RHF     MULTI       RHF       INT
 CPU TIMES  *         2.00      0.02      0.05      0.03      1.78
 REAL TIME  *        13.93 SEC
 DISK USED  *        33.51 MB      
 **********************************************************************************************************************************
 SETTING SCF(I)         =        -1.87469205  AU                              
 SETTING _CC_NORM_MAX   =         2.00000000                                  


 PROGRAM * FCI (Full CI)     Author: P.J. Knowles, 1984

 ***  Initialisation ***
 
 Molecular orbitals read from record     2101.2  Type=RHF/CANONICAL (state 1.2)
 
 Frozen orbitals:              0 (  0  0  0  0  0  0  0  0)
 Active orbitals:             22 (  7  3  3  2  3  2  2  0)
 Active electrons:             3
 Spin quantum number:          0.5
 Orbital pairs:                    55      33      33      27      33      27      27      18
 Strings:                          33      33      33      27      33      27      27      18
                                    7       3       3       2       3       2       2       0
 Determinants:                            690             660             660             615
                                          660             615             615             567

 Load integrals                2.0 sec
 Transform integrals           2.0 sec
 Storage for integrals:           9793
 Remaining memory:           *********

 Core energy:               0.00000000
 Run Hamiltonian processor DAVIDSON
 Symmetry:                   2
 Trial vector:                  0.00
 Result vector:                 0.00
 Maximum iterations:          100
 Convergence threshold:         0.0000100
 RHS vector:                    0.00
 Hamiltonian shift:             0.0000000
 Output threshold:              0.0500000
 Options:                        0
 Number of roots:             1

 Hamiltonian diagonaliser entered at time      2.02

 Initial configuration generated:
       1      1.0000000     -1.8746920

 It  Tr    CPU  Convergence   Energy       Pop     dE(next)

  1   1    2.0  1.00000000    -1.87469205
                                           0.13 -0.06684042 -0.06504762
  2   1    2.0  0.25935549    -1.92557196
                                           0.19 -0.00457015 -0.00394202
  3   1    2.0  0.06257123    -1.92927393
                                           0.27 -0.00073202 -0.00059310
  4   1    2.0  0.02225675    -1.92986657
                                           0.34 -0.00015113 -0.00012785
  5   1    2.0  0.00972858    -1.92999264
                                           0.28 -0.00002766 -0.00002407
  6   1    2.0  0.00421066    -1.93001692
                                           0.28 -0.00000424 -0.00000369
  7   1    2.0  0.00172329    -1.93002057
                                           0.27 -0.00000068 -0.00000059
  8   1    2.0  0.00069886    -1.93002115
                                           0.28 -0.00000011 -0.00000010
  9   1    2.0  0.00029062    -1.93002125
                                           0.27 -0.00000002 -0.00000001
 10   1    2.0  0.00010841    -1.93002126
                                           0.29 -0.00000000 -0.00000000
 11   1    2.0  0.00004495    -1.93002126
                                           0.30 -0.00000000 -0.00000000
 12   1    2.0  0.00001869    -1.93002126
                                           0.27 -0.00000000 -0.00000000
 13   1    2.0  0.00000748    -1.93002127


RESULTS FOR STATE 1.2
=====================

 Correlation energy                    -0.055329219950
 !FCI STATE 1.2 Energy                 -1.930021265036
 CI Vector (threshold= 0.500E-01)
       0.959824724632  1  8  1
      -0.074128153350  1  3  8
      -0.074128263827  1 14 11
       0.120162131548  8 11 11
      -0.074128111905  1 19 16
       0.120161756723  8 16 16
 /EOF
 !FCI STATE 1.2 Dipole moment           0.00000000     0.00000000     0.00000000
 Dipole moment /Debye                   0.00000000     0.00000000     0.00000000
 

 !FCI expec          <1.2|EKIN|1.2>     0.705606292458
 
 !FCI expec           <1.2|POT|1.2>    -1.265925525648


 **********************************************************************************************************************************
 DATASETS  * FILE   NREC   LENGTH (MB)   RECORD NAMES
              1      21       19.13       500      610      700      900      950      970     1000      129      960     1100   
                                          VAR    BASINP    GEOM    SYMINP    ZMAT    AOBASIS   BASIS     P2S    ABASIS      S 
                                         1400     1410     1420     1200     1210     1080     1600     1650     1300     1700   
                                         EKIN       V       ECP      H0       H01     AOSYM     SMH    MOLCAS    ERIS     OPER   
                                         1380   
                                         JKOP   

              2       6        7.74       700     1000      520     4202     5202     2101   
                                         GEOM     BASIS   MCVARS     RHF     MCSCF     RHF  

 PROGRAMS   *        TOTAL       FCI       RHF     MULTI       RHF       INT
 CPU TIMES  *         2.04      0.04      0.02      0.05      0.03      1.78
 REAL TIME  *        14.16 SEC
 DISK USED  *        33.51 MB      
 **********************************************************************************************************************************
 SETTING POSTHF(I)      =        -1.93002127  AU                              
                                                                                                                                                                                                                                                                

       SCF           POSTHF       EKIN          POT
    -1.87469205   -1.93002127   0.70560629   -1.26592553
                                                  

 FCI/USERDEF energy=     -1.930021265036

        FCI             RHF-SCF         MULTI           RHF-SCF 
     -1.93002127     -1.87469205     -1.87469205     -1.87475327
 **********************************************************************************************************************************
 Variable memory released
