
 Primary working directories    : /global/cscratch1/sd/aannabe
 Secondary working directories  : /global/cscratch1/sd/aannabe
 Wavefunction directory         : /global/homes/a/aannabe/wfu/
 Main file repository           : /global/cscratch1/sd/aannabe/

 SHA1      : 2873118e99aab1bc19f5b6fc1784693c06d15c95
 NAME      : 2015.1.8
 ARCHNAME  : linux/x86_64
 FC        : /opt/cray/pe/craype/2.5.5/bin/ftn
 BLASLIB   : -Wl,-_start-group /opt/intel/compilers_and_libraries_2016.3.210/linux/mkl/lib/intel64/libmkl_intel_ilp64.a /opt/intel/compilers_and_libraries_2016.3.210/linux/mkl/lib/intel64/libmkl_intel_thread.a /opt/intel/compilers_and_libraries_2016.3.210/linux/mkl/lib/intel64/libmkl_core.a -Wl,-_end-group
 id        : lbl

 Nodes     nprocs
 nid00482     1

 Using customized tuning parameters: mindgm=8; mindgv=16; mindgc=4; mindgr=1; noblas=0; minvec=7
 default implementation of scratch files=df  

 ***,Al
 memory,8,g
 gthresh,twoint=1.e-12
 
 gprint,basis,orbitals
 gexpec,ekin,pot
 
 angstrom
 geometry={
 1                                                                               ! Number of atoms
 Al 0.0 0.0 0.0
 }
 
 basis={
 Including file /global/homes/a/aannabe/docs/accurate/ccECP_Kh/pps/Al.pp
 Including file /global/homes/a/aannabe/docs/accurate/ccECP_Kh/basis/aug-cc-pVnZ/Al_5z.basis
 }
 
 {rhf
  start,atden
  wf,3,2,1
  occ,1,1,0,0,0,0,0,0
  open,1.2
  save,4202.2
 }
 {multi
  start,4202.2
  occ,1,1,1,0,1,0,0
  closed,1,0,0,0,0,0,0,0
  wf,3,2,1;state,1
  wf,3,3,1;state,1
  wf,3,5,1;state,1
  natorb,ci,print
  orbital,5202.2
 }
 {rhf,nitord=1,maxit=0
  start,5202.2
  wf,3,2,1
  occ,1,1,0,0,0,0,0,0
  open,1.2
 }
 
 scf(i)=energy
 
 _CC_NORM_MAX=2.0
 {fci
 maxit,100
 core
 }
 posthf(i)=energy
 
 table,scf,posthf,ekin,pot
 save,5.csv,new
 
 

 Variables initialized (889), CPU time= 0.01 sec
 Commands  initialized (702), CPU time= 0.01 sec, 572 directives.
 Default parameters read. Elapsed time= 0.18 sec

 Checking input...
 Passed
1


                                         ***  PROGRAM SYSTEM MOLPRO  ***
                                       Copyright, TTI GmbH Stuttgart, 2015
                                    Version 2015.1 linked Sep  7 2016 23:09:38


 **********************************************************************************************************************************
 LABEL *   Al                                                                            
  64 bit serial version                                                                  DATE: 30-Oct-18          TIME: 15:09:12  
 **********************************************************************************************************************************

 SHA1:             2873118e99aab1bc19f5b6fc1784693c06d15c95
 **********************************************************************************************************************************

 THRESHOLDS:

 ZERO    =  1.00D-12  ONEINT  =  1.00D-12  TWOINT  =  1.00D-12  PREFAC  =  1.00D-14  LOCALI  =  1.00D-09  EORDER  =  1.00D-04
 ENERGY  =  0.00D+00  ETEST   =  0.00D+00  EDENS   =  0.00D+00  THRDEDEF=  1.00D-06  GRADIENT=  1.00D-02  STEP    =  1.00D-03
 ORBITAL =  1.00D-05  CIVEC   =  1.00D-05  COEFF   =  1.00D-04  PRINTCI =  5.00D-02  PUNCHCI =  9.90D+01  OPTGRAD =  3.00D-04
 OPTENERG=  1.00D-06  OPTSTEP =  3.00D-04  THRGRAD =  1.00D-10  COMPRESS=  1.00D-11  VARMIN  =  1.00D-07  VARMAX  =  1.00D-03
 THRDOUB =  0.00D+00  THRDIV  =  1.00D-05  THRRED  =  1.00D-07  THRPSP  =  1.00D+00  THRDC   =  1.00D-10  THRCS   =  1.00D-10
 THRNRM  =  1.00D-08  THREQ   =  0.00D+00  THRDE   =  1.00D+00  THRREF  =  1.00D-05  SPARFAC =  1.00D+00  THRDLP  =  1.00D-07
 THRDIA  =  1.00D-10  THRDLS  =  1.00D-07  THRGPS  =  0.00D+00  THRKEX  =  0.00D+00  THRDIS  =  2.00D-01  THRVAR  =  1.00D-10
 THRLOC  =  1.00D-06  THRGAP  =  1.00D-06  THRLOCT = -1.00D+00  THRGAPT = -1.00D+00  THRORB  =  1.00D-06  THRMLTP =  0.00D+00
 THRCPQCI=  1.00D-10  KEXTA   =  0.00D+00  THRCOARS=  0.00D+00  SYMTOL  =  1.00D-06  GRADTOL =  1.00D-06  THROVL  =  1.00D-08
 THRORTH =  1.00D-08  GRID    =  1.00D-06  GRIDMAX =  1.00D-03  DTMAX   =  0.00D+00  THROCCDE=  1.00D-01  THROCCDE=  1.00D-01



 ZUNIT=ANG
 

Geometry recognized as XYZ


 Variable memory set to 8000000000 words,  buffer space   230000 words

 SETTING BASIS          =    USERDEF


 Recomputing integrals since basis changed


 Using spherical harmonics



 PROGRAM * SEWARD (Integral evaluation for generally contracted gaussian basis sets)     Author: Roland Lindh, 1990

 Geometry written to block  1 of record 700

 Orientation using atomic masses  
 Molecule type: Atom
 Symmetry elements: X,Y,Z
 Rotational constants:       0.0000000      0.0000000      0.0000000 GHz  (calculated with average atomic masses)

 Point group  D2h 



 ATOMIC COORDINATES

 NR  ATOM    CHARGE       X              Y              Z

   1  AL      3.00    0.000000000    0.000000000    0.000000000


          AL  CORE POTENTIAL

          d POTENTIAL

 POWERS             1              3              2
 EXPONENTIALS   5.073893       8.607001       3.027490    
 COEFFICIENTS   3.000000       15.22168      -11.16568    

          s - d POTENTIAL

 POWERS             2              2
 EXPONENTIALS   7.863954       2.061358    
 COEFFICIENTS   14.87951       20.74686    

          p - d POTENTIAL

 POWERS             2              2
 EXPONENTIALS   3.125175       1.414930    
 COEFFICIENTS   7.786227       7.109015    


 BASIS DATA

   Nr Sym  Nuc  Type         Exponents   Contraction coefficients

    1.1 Ag    1  1s          57.235801    -0.000002
                             25.924172    -0.000006
                             11.741998     0.000395
                              5.318377    -0.003539
                              2.408886     0.040296
                              1.091072    -0.240905
                              0.494186    -0.050811
                              0.223835     0.400848
                              0.101383     0.564749
                              0.045920     0.214083
    2.1 Ag    1  1s           0.952210     1.000000
    3.1 Ag    1  1s           0.381122     1.000000
    4.1 Ag    1  1s           0.152544     1.000000
    5.1 Ag    1  1s           0.061056     1.000000
    6.1 Ag    1  1s           0.024438     1.000000
    7.1 Ag    1  3d0          1.820368     1.000000
    8.1 Ag    1  3d2+         1.820368     1.000000
    9.1 Ag    1  3d0          0.806016     1.000000
   10.1 Ag    1  3d2+         0.806016     1.000000
   11.1 Ag    1  3d0          0.356885     1.000000
   12.1 Ag    1  3d2+         0.356885     1.000000
   13.1 Ag    1  3d0          0.158020     1.000000
   14.1 Ag    1  3d2+         0.158020     1.000000
   15.1 Ag    1  3d0          0.069968     1.000000
   16.1 Ag    1  3d2+         0.069968     1.000000
   17.1 Ag    1  5g0          0.619971     1.000000
   18.1 Ag    1  5g4+         0.619971     1.000000
   19.1 Ag    1  5g2+         0.619971     1.000000
   20.1 Ag    1  5g0          0.328127     1.000000
   21.1 Ag    1  5g4+         0.328127     1.000000
   22.1 Ag    1  5g2+         0.328127     1.000000
   23.1 Ag    1  5g0          0.173665     1.000000
   24.1 Ag    1  5g4+         0.173665     1.000000
   25.1 Ag    1  5g2+         0.173665     1.000000
    1.2 B3u   1  2px          8.647956    -0.000159
                              4.468163    -0.000538
                              2.308578     0.006271
                              1.192780    -0.051237
                              0.616277     0.014611
                              0.318413     0.144648
                              0.164516     0.299819
                              0.085001     0.373586
                              0.043918     0.253917
                              0.022691     0.063644
    2.2 B3u   1  2px          0.506489     1.000000
    3.2 B3u   1  2px          0.235935     1.000000
    4.2 B3u   1  2px          0.109904     1.000000
    5.2 B3u   1  2px          0.051196     1.000000
    6.2 B3u   1  2px          0.023848     1.000000
    7.2 B3u   1  4f1+         0.670523     1.000000
    8.2 B3u   1  4f3+         0.670523     1.000000
    9.2 B3u   1  4f1+         0.359448     1.000000
   10.2 B3u   1  4f3+         0.359448     1.000000
   11.2 B3u   1  4f1+         0.192690     1.000000
   12.2 B3u   1  4f3+         0.192690     1.000000
   13.2 B3u   1  4f1+         0.103296     1.000000
   14.2 B3u   1  4f3+         0.103296     1.000000
   15.2 B3u   1  6h1+         0.832784     1.000000
   16.2 B3u   1  6h3+         0.832784     1.000000
   17.2 B3u   1  6h5+         0.832784     1.000000
   18.2 B3u   1  6h1+         0.276616     1.000000
   19.2 B3u   1  6h3+         0.276616     1.000000
   20.2 B3u   1  6h5+         0.276616     1.000000
    1.3 B2u   1  2py          8.647956    -0.000159
                              4.468163    -0.000538
                              2.308578     0.006271
                              1.192780    -0.051237
                              0.616277     0.014611
                              0.318413     0.144648
                              0.164516     0.299819
                              0.085001     0.373586
                              0.043918     0.253917
                              0.022691     0.063644
    2.3 B2u   1  2py          0.506489     1.000000
    3.3 B2u   1  2py          0.235935     1.000000
    4.3 B2u   1  2py          0.109904     1.000000
    5.3 B2u   1  2py          0.051196     1.000000
    6.3 B2u   1  2py          0.023848     1.000000
    7.3 B2u   1  4f1-         0.670523     1.000000
    8.3 B2u   1  4f3-         0.670523     1.000000
    9.3 B2u   1  4f1-         0.359448     1.000000
   10.3 B2u   1  4f3-         0.359448     1.000000
   11.3 B2u   1  4f1-         0.192690     1.000000
   12.3 B2u   1  4f3-         0.192690     1.000000
   13.3 B2u   1  4f1-         0.103296     1.000000
   14.3 B2u   1  4f3-         0.103296     1.000000
   15.3 B2u   1  6h1-         0.832784     1.000000
   16.3 B2u   1  6h3-         0.832784     1.000000
   17.3 B2u   1  6h5-         0.832784     1.000000
   18.3 B2u   1  6h1-         0.276616     1.000000
   19.3 B2u   1  6h3-         0.276616     1.000000
   20.3 B2u   1  6h5-         0.276616     1.000000
    1.4 B1g   1  3d2-         1.820368     1.000000
    2.4 B1g   1  3d2-         0.806016     1.000000
    3.4 B1g   1  3d2-         0.356885     1.000000
    4.4 B1g   1  3d2-         0.158020     1.000000
    5.4 B1g   1  3d2-         0.069968     1.000000
    6.4 B1g   1  5g2-         0.619971     1.000000
    7.4 B1g   1  5g4-         0.619971     1.000000
    8.4 B1g   1  5g2-         0.328127     1.000000
    9.4 B1g   1  5g4-         0.328127     1.000000
   10.4 B1g   1  5g2-         0.173665     1.000000
   11.4 B1g   1  5g4-         0.173665     1.000000
    1.5 B1u   1  2pz          8.647956    -0.000159
                              4.468163    -0.000538
                              2.308578     0.006271
                              1.192780    -0.051237
                              0.616277     0.014611
                              0.318413     0.144648
                              0.164516     0.299819
                              0.085001     0.373586
                              0.043918     0.253917
                              0.022691     0.063644
    2.5 B1u   1  2pz          0.506489     1.000000
    3.5 B1u   1  2pz          0.235935     1.000000
    4.5 B1u   1  2pz          0.109904     1.000000
    5.5 B1u   1  2pz          0.051196     1.000000
    6.5 B1u   1  2pz          0.023848     1.000000
    7.5 B1u   1  4f0          0.670523     1.000000
    8.5 B1u   1  4f2+         0.670523     1.000000
    9.5 B1u   1  4f0          0.359448     1.000000
   10.5 B1u   1  4f2+         0.359448     1.000000
   11.5 B1u   1  4f0          0.192690     1.000000
   12.5 B1u   1  4f2+         0.192690     1.000000
   13.5 B1u   1  4f0          0.103296     1.000000
   14.5 B1u   1  4f2+         0.103296     1.000000
   15.5 B1u   1  6h2+         0.832784     1.000000
   16.5 B1u   1  6h4+         0.832784     1.000000
   17.5 B1u   1  6h0          0.832784     1.000000
   18.5 B1u   1  6h2+         0.276616     1.000000
   19.5 B1u   1  6h4+         0.276616     1.000000
   20.5 B1u   1  6h0          0.276616     1.000000
    1.6 B2g   1  3d1+         1.820368     1.000000
    2.6 B2g   1  3d1+         0.806016     1.000000
    3.6 B2g   1  3d1+         0.356885     1.000000
    4.6 B2g   1  3d1+         0.158020     1.000000
    5.6 B2g   1  3d1+         0.069968     1.000000
    6.6 B2g   1  5g1+         0.619971     1.000000
    7.6 B2g   1  5g3+         0.619971     1.000000
    8.6 B2g   1  5g1+         0.328127     1.000000
    9.6 B2g   1  5g3+         0.328127     1.000000
   10.6 B2g   1  5g1+         0.173665     1.000000
   11.6 B2g   1  5g3+         0.173665     1.000000
    1.7 B3g   1  3d1-         1.820368     1.000000
    2.7 B3g   1  3d1-         0.806016     1.000000
    3.7 B3g   1  3d1-         0.356885     1.000000
    4.7 B3g   1  3d1-         0.158020     1.000000
    5.7 B3g   1  3d1-         0.069968     1.000000
    6.7 B3g   1  5g1-         0.619971     1.000000
    7.7 B3g   1  5g3-         0.619971     1.000000
    8.7 B3g   1  5g1-         0.328127     1.000000
    9.7 B3g   1  5g3-         0.328127     1.000000
   10.7 B3g   1  5g1-         0.173665     1.000000
   11.7 B3g   1  5g3-         0.173665     1.000000
    1.8 Au    1  4f2-         0.670523     1.000000
    2.8 Au    1  4f2-         0.359448     1.000000
    3.8 Au    1  4f2-         0.192690     1.000000
    4.8 Au    1  4f2-         0.103296     1.000000
    5.8 Au    1  6h4-         0.832784     1.000000
    6.8 Au    1  6h2-         0.832784     1.000000
    7.8 Au    1  6h4-         0.276616     1.000000
    8.8 Au    1  6h2-         0.276616     1.000000

 NUCLEAR CHARGE:                    3
 NUMBER OF PRIMITIVE AOS:         217
 NUMBER OF SYMMETRY AOS:          162
 NUMBER OF CONTRACTIONS:          126   (  25Ag  +  20B3u +  20B2u +  11B1g +  20B1u +  11B2g +  11B3g +   8Au  )
 NUMBER OF CORE ORBITALS:           0   (   0Ag  +   0B3u +   0B2u +   0B1g +   0B1u +   0B2g +   0B3g +   0Au  )
 NUMBER OF VALENCE ORBITALS:        4   (   1Ag  +   1B3u +   1B2u +   0B1g +   1B1u +   0B2g +   0B3g +   0Au  )


 NUCLEAR REPULSION ENERGY    0.00000000

 EXTRA SYMMETRY OF AOS IN SYMMETRY 1:   1 1 1 1 1 1 2 3 2 3   2 3 2 3 2 3 4 5 6 4   5 6 4 5 6
 EXTRA SYMMETRY OF AOS IN SYMMETRY 2:   1 1 1 1 1 1 2 3 2 3   2 3 2 3 4 5 6 4 5 6
 EXTRA SYMMETRY OF AOS IN SYMMETRY 3:   1 1 1 1 1 1 2 3 2 3   2 3 2 3 4 5 6 4 5 6
 EXTRA SYMMETRY OF AOS IN SYMMETRY 4:   1 1 1 1 1 2 3 2 3 2   3
 EXTRA SYMMETRY OF AOS IN SYMMETRY 5:   1 1 1 1 1 1 2 3 2 3   2 3 2 3 4 5 6 4 5 6
 EXTRA SYMMETRY OF AOS IN SYMMETRY 6:   1 1 1 1 1 2 3 2 3 2   3
 EXTRA SYMMETRY OF AOS IN SYMMETRY 7:   1 1 1 1 1 2 3 2 3 2   3
 EXTRA SYMMETRY OF AOS IN SYMMETRY 8:   1 1 1 1 2 3 2 3

 Eigenvalues of metric

         1 0.357E-04 0.929E-02 0.322E-01 0.322E-01 0.596E-01 0.860E-01 0.860E-01 0.860E-01
         2 0.233E-03 0.103E-01 0.247E-01 0.247E-01 0.713E-01 0.207E+00 0.207E+00 0.373E+00
         3 0.233E-03 0.103E-01 0.247E-01 0.247E-01 0.713E-01 0.207E+00 0.207E+00 0.373E+00
         4 0.322E-01 0.860E-01 0.860E-01 0.153E+00 0.545E+00 0.648E+00 0.648E+00 0.146E+01
         5 0.233E-03 0.103E-01 0.247E-01 0.247E-01 0.713E-01 0.207E+00 0.207E+00 0.373E+00
         6 0.322E-01 0.860E-01 0.860E-01 0.153E+00 0.545E+00 0.648E+00 0.648E+00 0.146E+01
         7 0.322E-01 0.860E-01 0.860E-01 0.153E+00 0.545E+00 0.648E+00 0.648E+00 0.146E+01
         8 0.247E-01 0.207E+00 0.610E+00 0.610E+00 0.992E+00 0.139E+01 0.139E+01 0.278E+01


 Contracted 2-electron integrals neglected if value below      1.0D-12
 AO integral compression algorithm  1   Integral accuracy      1.0D-12

     30.933 MB (compressed) written to integral file ( 55.4%)


 NUMBER OF SORTED TWO-ELECTRON INTEGRALS:    4156552.     BUFFER LENGTH:  32768
 NUMBER OF SEGMENTS:   1  SEGMENT LENGTH:    4156552      RECORD LENGTH: 524288

 Memory used in sort:       4.71 MW

 SORT1 READ     6989366. AND WROTE     2907704. INTEGRALS IN      9 RECORDS. CPU TIME:     0.23 SEC, REAL TIME:     0.34 SEC
 SORT2 READ     2907704. AND WROTE     4156552. INTEGRALS IN    118 RECORDS. CPU TIME:     0.23 SEC, REAL TIME:     0.43 SEC

 FILE SIZES:   FILE 1:    50.4 MBYTE,  FILE 4:    37.8 MBYTE,   TOTAL:     88.2 MBYTE

 OPERATOR DM      FOR CENTER  0  COORDINATES:    0.000000    0.000000    0.000000
 OPERATOR EKIN    FOR CENTER  0  COORDINATES:    0.000000    0.000000    0.000000
 OPERATOR POT     FOR CENTER  0  COORDINATES:    0.000000    0.000000    0.000000


 **********************************************************************************************************************************
 DATASETS  * FILE   NREC   LENGTH (MB)   RECORD NAMES
              1      20       37.99       500      610      700      900      950      970     1000      129      960     1100   
                                          VAR    BASINP    GEOM    SYMINP    ZMAT    AOBASIS   BASIS     P2S    ABASIS      S 
                                         1400     1410     1420     1200     1210     1080     1600     1650     1300     1700   
                                         EKIN       V       ECP      H0       H01     AOSYM     SMH    MOLCAS    ERIS     OPER   

 PROGRAMS   *        TOTAL       INT
 CPU TIMES  *         4.15      4.03
 REAL TIME  *        17.81 SEC
 DISK USED  *        88.48 MB      
 **********************************************************************************************************************************


 PROGRAM * RHF-SCF (OPEN SHELL)       Authors: W. Meyer, H.-J. Werner


 NUMBER OF ELECTRONS:       2+    1-    SPACE SYMMETRY=2    SPIN SYMMETRY: Doublet 
 CONVERGENCE THRESHOLDS:    1.00E-05 (Density)    1.00E-07 (Energy)
 MAX. NUMBER OF ITERATIONS:       60
 INTERPOLATION TYPE:            DIIS
 INTERPOLATION STEPS:              2 (START)      1 (STEP)
 LEVEL SHIFTS:                 -0.60 (CLOSED) -0.30 (OPEN) 


 Singly occupied orbitals:      1.2

   Atom=AL basis=ECP10MWB_GUESS    lmin=0  lmax=1

 Orbital guess generated from atomic densities. Full valence occupancy:    1   1   1   0   1   0   0   0


 Molecular orbital dump at record        4202.2

 ITERATION    DDIFF          GRAD             ENERGY        2-EL.EN.            DIPOLE MOMENTS         DIIS   ORB.
    1      0.000D+00      0.000D+00        -1.86912094      1.647892    0.00000    0.00000    0.00000    0    start
    2      0.000D+00      0.346D-02        -1.87301703      1.687383    0.00000    0.00000    0.00000    1    diag,B
    3      0.256D-02      0.210D-02        -1.87605616      1.733285    0.00000    0.00000    0.00000    2    diag,B
    4      0.304D-02      0.103D-02        -1.87700216      1.755723    0.00000    0.00000    0.00000    3    diag,B
    5      0.242D-02      0.357D-03        -1.87706873      1.758172    0.00000    0.00000    0.00000    4    diag,B
    6      0.956D-03      0.101D-03        -1.87707299      1.758999    0.00000    0.00000    0.00000    5    diag,B
    7      0.353D-03      0.338D-04        -1.87707328      1.758880    0.00000    0.00000    0.00000    6    fixocc
    8      0.443D-04      0.131D-04        -1.87707332      1.758911    0.00000    0.00000    0.00000    7    diag,B
    9      0.558D-04      0.114D-05        -1.87707332      1.758901    0.00000    0.00000    0.00000    8    diag,B
   10      0.190D-05      0.473D-06        -1.87707332      1.758900    0.00000    0.00000    0.00000    0    orth

 Final alpha occupancy:   1   1   0   0   0   0   0   0
 Final beta  occupancy:   1   0   0   0   0   0   0   0

 !RHF STATE 1.2 Energy                 -1.877073322484
 Nuclear energy                         0.00000000
 One-electron energy                   -2.75652331
 Two-electron energy                    0.87944998
 Virial quotient                       -2.92507889
 !RHF STATE 1.2 Dipole moment           0.00000000     0.00000000     0.00000000
 Dipole moment /Debye                   0.00000000     0.00000000     0.00000000
 

 !RHF expec          <1.2|EKIN|1.2>     0.641717162585
 
 !RHF expec           <1.2|POT|1.2>    -1.245875065695

 ELECTRON ORBITALS
 =================


   Orb  Occ    Energy  Couls-En    Coefficients

                                   1 1s      1 1s      1 1s      1 1s      1 1s      1 1s      1 3d0     1 3d2+    1 3d0     1 3d2+ 
                                   1 3d0     1 3d2+    1 3d0     1 3d2+    1 3d0     1 3d2+    1 5g0     1 5g4+    1 5g2+    1 5g0  
                                   1 5g4+    1 5g2+    1 5g0     1 5g4+    1 5g2+ 

   1.1   2    -0.3939   -1.4017  0.674580 -0.102417  0.044655  0.206446  0.136091  0.005368 -0.000083  0.000144 -0.000244  0.000423
                                 0.000446 -0.000772  0.000284 -0.000492 -0.005309  0.009195 -0.000006 -0.000012  0.000009  0.000020
                                 0.000040 -0.000030 -0.000057 -0.000112  0.000085

                                   1 2px     1 2px     1 2px     1 2px     1 2px     1 2px     1 4f1+    1 4f3+    1 4f1+    1 4f3+ 
                                   1 4f1+    1 4f3+    1 4f1+    1 4f3+    1 6h1+    1 6h3+    1 6h5+    1 6h1+    1 6h3+    1 6h5+ 


   1.2   +    -0.2098   -0.9507  0.751915  0.004548  0.067445  0.098279  0.089428  0.020258  0.000009 -0.000012  0.000006 -0.000008
                                 0.000170 -0.000219 -0.000140  0.000180  0.000000 -0.000000  0.000000 -0.000001  0.000001 -0.000001

 HOMO      1.2    -0.209806 =      -5.7091eV
 LUMO      1.3     0.009638 =       0.2623eV
 LUMO-HOMO         0.219444 =       5.9714eV


 **********************************************************************************************************************************
 DATASETS  * FILE   NREC   LENGTH (MB)   RECORD NAMES
              1      20       37.99       500      610      700      900      950      970     1000      129      960     1100   
                                          VAR    BASINP    GEOM    SYMINP    ZMAT    AOBASIS   BASIS     P2S    ABASIS      S 
                                         1400     1410     1420     1200     1210     1080     1600     1650     1300     1700   
                                         EKIN       V       ECP      H0       H01     AOSYM     SMH    MOLCAS    ERIS     OPER   

              2       4        2.83       700     1000      520     4202   
                                         GEOM     BASIS   MCVARS     RHF  

 PROGRAMS   *        TOTAL       RHF       INT
 CPU TIMES  *         4.40      0.25      4.03
 REAL TIME  *        18.22 SEC
 DISK USED  *        88.48 MB      
 **********************************************************************************************************************************


 PROGRAM * MULTI (Direct Multiconfiguration SCF)       Authors: P.J. Knowles, H.-J. Werner (1984)     S.T. Elbert (1988)


 Number of closed-shell orbitals:   1 (   1   0   0   0   0   0   0   0 )
 Number of active  orbitals:        3 (   0   1   1   0   1   0   0   0 )
 Number of external orbitals:     122 (  24  19  19  11  19  11  11   8 )

 State symmetry 1

 Number of electrons:     1    Spin symmetry=Doublet   Space symmetry=2
 Number of states:        1
 Number of CSFs:          1   (1 determinants, 3 intermediate states)

 State symmetry 2

 Number of electrons:     1    Spin symmetry=Doublet   Space symmetry=3
 Number of states:        1
 Number of CSFs:          1   (1 determinants, 3 intermediate states)

 State symmetry 3

 Number of electrons:     1    Spin symmetry=Doublet   Space symmetry=5
 Number of states:        1
 Number of CSFs:          1   (1 determinants, 3 intermediate states)

 Molecular orbitals read from record     4202.2  Type=RHF/CANONICAL (state 1.2)
 *** IN SYMMETRY 1 ORBITAL  1 SYMMETRY CONTAMINATION OF 0.150D-01 HAS BEEN REMOVED

 EXTRA SYMMETRY OF MOS IN SYMMETRY 1:   1 1 3 2 1 3 2 4 5 6   2 3 1 4 5 6 2 3 4 5   6 1 2 3 1
 *** IN SYMMETRY 2 ORBITAL  1 SYMMETRY CONTAMINATION OF 0.724D-03 HAS BEEN REMOVED
 EXTRA SYMMETRY OF MOS IN SYMMETRY 2:   1 1 1 2 3 1 2 3 5 6   4 2 3 1 2 3 5 6 1 4
 *** IN SYMMETRY 3 ORBITAL  1 SYMMETRY CONTAMINATION OF 0.828D-02 HAS BEEN REMOVED
 EXTRA SYMMETRY OF MOS IN SYMMETRY 3:   1 1 1 2 3 1 2 3 4 5   6 2 3 1 2 3 4 1 5 6
 EXTRA SYMMETRY OF MOS IN SYMMETRY 4:   1 1 2 3 1 2 3 1 2 3   1
 *** IN SYMMETRY 5 ORBITAL  1 SYMMETRY CONTAMINATION OF 0.952D-02 HAS BEEN REMOVED
 EXTRA SYMMETRY OF MOS IN SYMMETRY 5:   1 1 1 2 3 1 2 3 6 5   4 2 3 1 2 3 6 1 5 4
 EXTRA SYMMETRY OF MOS IN SYMMETRY 6:   1 1 3 2 1 3 2 1 3 2   1
 EXTRA SYMMETRY OF MOS IN SYMMETRY 7:   1 1 2 3 1 2 3 1 2 3   1
 EXTRA SYMMETRY OF MOS IN SYMMETRY 8:   1 1 3 2 1 1 3 2

 Wavefunction dump at record             5202.2

 Convergence thresholds  0.10E-01 (gradient)  0.10E-05 (energy)  0.10E-02 (step length)

 Weight factors for state symmetry  1:    0.33333
 Weight factors for state symmetry  2:    0.33333
 Weight factors for state symmetry  3:    0.33333

 Number of orbital rotations:       81   (     0 Core/Active     24 Core/Virtual   0 Active/Active     57 Active/Virtual)
 Total number of variables:         84


 ITER. MIC  NCI  NEG     ENERGY(VAR)     ENERGY(PROJ)   ENERGY CHANGE     GRAD(0)  GRAD(ORB)   GRAD(CI)     STEP       TIME

   1   37   12    0      -1.85749741      -1.87700907   -0.01951166    0.03873727 0.00000000 0.00000000  0.61D+00      0.06
   2   15   12    0      -1.87697248      -1.87699143   -0.00001896    0.00460128 0.00000000 0.00000000  0.51D-02      0.10
   3   15   12    0      -1.87699144      -1.87699144   -0.00000000    0.00000467 0.00000000 0.00000000  0.11D-04      0.15

 ** WVFN ****  CONVERGENCE REACHED, FINAL GRADIENT:  0.90D-11



 Results for state 1.2
 =====================

 !MCSCF STATE 1.2 Energy               -1.876991441132
 Nuclear energy                         0.00000000
 Kinetic energy                         0.64167693
 One electron energy                   -2.75662347
 Two electron energy                    0.87963203
 Virial ratio                           3.92513469

 !MCSCF STATE 1.2 Dipole moment         0.00000000     0.00000000     0.00000000
 Dipole moment /Debye                   0.00000000     0.00000000     0.00000000



 Results for state 1.3
 =====================

 !MCSCF STATE 1.3 Energy               -1.876991441132
 Nuclear energy                         0.00000000
 Kinetic energy                         0.64167693
 One electron energy                   -2.75662347
 Two electron energy                    0.87963203
 Virial ratio                           3.92513469

 !MCSCF STATE 1.3 Dipole moment         0.00000000     0.00000000     0.00000000
 Dipole moment /Debye                   0.00000000     0.00000000     0.00000000



 Results for state 1.5
 =====================

 !MCSCF STATE 1.5 Energy               -1.876991441132
 Nuclear energy                         0.00000000
 Kinetic energy                         0.64167693
 One electron energy                   -2.75662347
 Two electron energy                    0.87963203
 Virial ratio                           3.92513469

 !MCSCF STATE 1.5 Dipole moment         0.00000000     0.00000000     0.00000000
 Dipole moment /Debye                   0.00000000     0.00000000     0.00000000

 State-averaged charge density matrix saved on record  5202.2 (density set 1)

 !MCSCF expec        <1.2|EKIN|1.2>     0.641676927298
 !MCSCF expec        <1.3|EKIN|1.3>     0.641676927299
 !MCSCF expec        <1.5|EKIN|1.5>     0.641676927299

 !MCSCF expec         <1.2|POT|1.2>    -1.245889649566
 !MCSCF expec         <1.3|POT|1.3>    -1.245889649567
 !MCSCF expec         <1.5|POT|1.5>    -1.245889649567


 NATURAL ORBITALS (state averaged)
 =================================

   Orb     Occ        Energy       Coefficients

                                   1 1s      1 1s      1 1s      1 1s      1 1s      1 1s      1 3d0     1 3d2+    1 3d0     1 3d2+ 
                                   1 3d0     1 3d2+    1 3d0     1 3d2+    1 3d0     1 3d2+    1 5g0     1 5g4+    1 5g2+    1 5g0  
                                   1 5g4+    1 5g2+    1 5g0     1 5g4+    1 5g2+ 

   1.1  2.00000    -0.393852     0.674589 -0.102409  0.044740  0.206064  0.136424  0.005400  0.000000  0.000000  0.000000  0.000000
                                 0.000000  0.000000  0.000000  0.000000  0.000000  0.000000  0.000000  0.000000  0.000000  0.000000
                                 0.000000  0.000000  0.000000  0.000000  0.000000

                                   1 2px     1 2px     1 2px     1 2px     1 2px     1 2px     1 4f1+    1 4f3+    1 4f1+    1 4f3+ 
                                   1 4f1+    1 4f3+    1 4f1+    1 4f3+    1 6h1+    1 6h3+    1 6h5+    1 6h1+    1 6h3+    1 6h5+ 


   1.2  0.33333     0.001386     0.751859  0.004500  0.067587  0.098573  0.088987  0.020375  0.000000  0.000000  0.000000  0.000000
                                 0.000000  0.000000  0.000000  0.000000  0.000000  0.000000  0.000000  0.000000  0.000000  0.000000

                                   1 2py     1 2py     1 2py     1 2py     1 2py     1 2py     1 4f1-    1 4f3-    1 4f1-    1 4f3- 
                                   1 4f1-    1 4f3-    1 4f1-    1 4f3-    1 6h1-    1 6h3-    1 6h5-    1 6h1-    1 6h3-    1 6h5- 


   1.3  0.33333     0.001386     0.751859  0.004500  0.067587  0.098573  0.088987  0.020375  0.000000  0.000000  0.000000  0.000000
                                 0.000000  0.000000  0.000000  0.000000  0.000000  0.000000  0.000000  0.000000  0.000000  0.000000

                                   1 2pz     1 2pz     1 2pz     1 2pz     1 2pz     1 2pz     1 4f0     1 4f2+    1 4f0     1 4f2+ 
                                   1 4f0     1 4f2+    1 4f0     1 4f2+    1 6h2+    1 6h4+    1 6h0     1 6h2+    1 6h4+    1 6h0  


   1.5  0.33333     0.001386     0.751859  0.004500  0.067587  0.098573  0.088987  0.020375  0.000000  0.000000  0.000000  0.000000
                                 0.000000  0.000000  0.000000  0.000000  0.000000  0.000000  0.000000  0.000000  0.000000  0.000000
 

 EXTRA SYMMETRY OF MOS IN SYMMETRY 1:   1 1 2 3 1 2 3 6 4 5   2 3 1 5 6 4 2 3 5 6   4 1 3 2 1
 EXTRA SYMMETRY OF MOS IN SYMMETRY 2:   1 1 1 2 3 1 2 3 5 6   4 2 3 1 2 3 1 5 4 6
 EXTRA SYMMETRY OF MOS IN SYMMETRY 3:   1 1 1 2 3 1 2 3 5 6   4 2 3 1 2 3 1 5 4 6
 EXTRA SYMMETRY OF MOS IN SYMMETRY 4:   1 1 2 3 1 3 2 1 3 2   1
 EXTRA SYMMETRY OF MOS IN SYMMETRY 5:   1 1 1 2 3 1 2 3 6 5   4 2 3 1 2 3 1 6 4 5
 EXTRA SYMMETRY OF MOS IN SYMMETRY 7:   1 1 3 2 1 3 2 1 3 2   1
 EXTRA SYMMETRY OF MOS IN SYMMETRY 8:   1 1 2 3 1 1 3 2

 Natural orbital dump (state averaged) at molpro section  5202.2    (Orbital set 2)


 CI vector for state symmetry 1
 ==============================

 a 0 0           1.0000000

 TOTAL ENERGIES                        -1.87699144

 CI vector for state symmetry 2
 ==============================

 0 a 0           1.0000000

 TOTAL ENERGIES                        -1.87699144

 CI vector for state symmetry 3
 ==============================

 0 0 a           1.0000000

 TOTAL ENERGIES                        -1.87699144



 **********************************************************************************************************************************
 DATASETS  * FILE   NREC   LENGTH (MB)   RECORD NAMES
              1      21       38.29       500      610      700      900      950      970     1000      129      960     1100   
                                          VAR    BASINP    GEOM    SYMINP    ZMAT    AOBASIS   BASIS     P2S    ABASIS      S 
                                         1400     1410     1420     1200     1210     1080     1600     1650     1300     1700   
                                         EKIN       V       ECP      H0       H01     AOSYM     SMH    MOLCAS    ERIS     OPER   
                                         1380   
                                         JKOP   

              2       5        5.40       700     1000      520     4202     5202   
                                         GEOM     BASIS   MCVARS     RHF     MCSCF   

 PROGRAMS   *        TOTAL     MULTI       RHF       INT
 CPU TIMES  *         4.60      0.20      0.25      4.03
 REAL TIME  *        19.36 SEC
 DISK USED  *        88.48 MB      
 **********************************************************************************************************************************


 PROGRAM * RHF-SCF (OPEN SHELL)       Authors: W. Meyer, H.-J. Werner


 NUMBER OF ELECTRONS:       2+    1-    SPACE SYMMETRY=2    SPIN SYMMETRY: Doublet 
 CONVERGENCE THRESHOLDS:    1.00E-05 (Density)    1.00E-07 (Energy)
 MAX. NUMBER OF ITERATIONS:        0
 INTERPOLATION TYPE:            DIIS
 INTERPOLATION STEPS:              2 (START)      1 (STEP)
 LEVEL SHIFTS:                 -0.60 (CLOSED) -0.30 (OPEN) 


 Singly occupied orbitals:      1.2
 Molecular orbitals read from record     5202.2  Type=MCSCF/NATURAL (state averaged)

 Molecular orbital dump at record        2101.2

 ITERATION    DDIFF          GRAD             ENERGY        2-EL.EN.            DIPOLE MOMENTS         DIIS   ORB.
    1      0.000D+00      0.000D+00        -1.87699144      1.759264    0.00000    0.00000    0.00000    0    start

 Final alpha occupancy:   1   1   0   0   0   0   0   0
 Final beta  occupancy:   1   0   0   0   0   0   0   0

 !RHF STATE 1.2 Energy                 -1.876991441132
 Nuclear energy                         0.00000000
 One-electron energy                   -2.75662347
 Two-electron energy                    0.87963203
 Virial quotient                       -2.92513469
 !RHF STATE 1.2 Dipole moment           0.00000000     0.00000000     0.00000000
 Dipole moment /Debye                   0.00000000     0.00000000     0.00000000
 

 !RHF expec          <1.2|EKIN|1.2>     0.641676927298
 
 !RHF expec           <1.2|POT|1.2>    -1.245889649566

 ELECTRON ORBITALS
 =================


   Orb  Occ    Energy  Couls-En    Coefficients

                                   1 1s      1 1s      1 1s      1 1s      1 1s      1 1s      1 3d0     1 3d2+    1 3d0     1 3d2+ 
                                   1 3d0     1 3d2+    1 3d0     1 3d2+    1 3d0     1 3d2+    1 5g0     1 5g4+    1 5g2+    1 5g0  
                                   1 5g4+    1 5g2+    1 5g0     1 5g4+    1 5g2+ 

   1.1   2    -0.3939   -1.4017  0.674589 -0.102409  0.044740  0.206064  0.136424  0.005400  0.000000  0.000000  0.000000  0.000000
                                 0.000000  0.000000  0.000000  0.000000  0.000000  0.000000  0.000000  0.000000  0.000000  0.000000
                                 0.000000  0.000000  0.000000  0.000000  0.000000

                                   1 2px     1 2px     1 2px     1 2px     1 2px     1 2px     1 4f1+    1 4f3+    1 4f1+    1 4f3+ 
                                   1 4f1+    1 4f3+    1 4f1+    1 4f3+    1 6h1+    1 6h3+    1 6h5+    1 6h1+    1 6h3+    1 6h5+ 


   1.2   +     0.0014   -0.7396  0.751859  0.004500  0.067587  0.098573  0.088987  0.020375  0.000000  0.000000  0.000000  0.000000
                                 0.000000  0.000000  0.000000  0.000000  0.000000  0.000000  0.000000  0.000000  0.000000  0.000000

 HOMO      1.2     0.001386 =       0.0377eV
 LUMO      1.3     0.001386 =       0.0377eV
 LUMO-HOMO         0.000000 =       0.0000eV


 **********************************************************************************************************************************
 DATASETS  * FILE   NREC   LENGTH (MB)   RECORD NAMES
              1      21       38.29       500      610      700      900      950      970     1000      129      960     1100   
                                          VAR    BASINP    GEOM    SYMINP    ZMAT    AOBASIS   BASIS     P2S    ABASIS      S 
                                         1400     1410     1420     1200     1210     1080     1600     1650     1300     1700   
                                         EKIN       V       ECP      H0       H01     AOSYM     SMH    MOLCAS    ERIS     OPER   
                                         1380   
                                         JKOP   

              2       6        8.00       700     1000      520     4202     5202     2101   
                                         GEOM     BASIS   MCVARS     RHF     MCSCF     RHF  

 PROGRAMS   *        TOTAL       RHF     MULTI       RHF       INT
 CPU TIMES  *         4.64      0.04      0.20      0.25      4.03
 REAL TIME  *        19.48 SEC
 DISK USED  *        88.48 MB      
 **********************************************************************************************************************************
 SETTING SCF(I)         =        -1.87699144  AU                              
 SETTING _CC_NORM_MAX   =         2.00000000                                  


 PROGRAM * FCI (Full CI)     Author: P.J. Knowles, 1984

 ***  Initialisation ***
 
 Molecular orbitals read from record     2101.2  Type=RHF/CANONICAL (state 1.2)
 
 Frozen orbitals:              0 (  0  0  0  0  0  0  0  0)
 Active orbitals:            126 ( 25 20 20 11 20 11 11  8)
 Active electrons:             3
 Spin quantum number:          0.5
 Orbital pairs:                  1189    1028    1028     956    1028     956     956     860
 Strings:                        1063    1028    1028     956    1028     956     956     860
                                   25      20      20      11      20      11      11       8
 Determinants:                         126683          124924          124924          123169
                                       124924          123169          123169          121288

 Load integrals                4.7 sec
 Transform integrals           7.3 sec
 Storage for integrals:        8097359
 Remaining memory:           *********

 Core energy:               0.00000000
 Run Hamiltonian processor DAVIDSON
 Symmetry:                   2
 Trial vector:                  0.00
 Result vector:                 0.00
 Maximum iterations:          100
 Convergence threshold:         0.0000100
 RHS vector:                    0.00
 Hamiltonian shift:             0.0000000
 Output threshold:              0.0500000
 Options:                        0
 Number of roots:             1

 Hamiltonian diagonaliser entered at time     18.52

 Initial configuration generated:
       1      1.0000000     -1.8769914

 It  Tr    CPU  Convergence   Energy       Pop     dE(next)

  1   1   24.6  1.00000000    -1.87699144
                                           0.01 -0.07535538 -0.07522608
  2   1   30.8  0.24894555    -1.93269248
                                           0.04 -0.00458613 -0.00445755
  3   1   42.2  0.06123487    -1.93689591
                                           0.07 -0.00035403 -0.00034017
  4   1   57.6  0.01531677    -1.93721935
                                           0.12 -0.00002988 -0.00002820
  5   1   76.0  0.00454508    -1.93724775
                                           0.15 -0.00000307 -0.00000285
  6   1   93.4  0.00154299    -1.93725052
                                           0.17 -0.00000049 -0.00000044
  7   1  112.8  0.00064732    -1.93725097
                                           0.21 -0.00000008 -0.00000007
  8   1  135.4  0.00026923    -1.93725104
                                           0.23 -0.00000001 -0.00000001
  9   1  159.0  0.00007983    -1.93725105
                                           0.25 -0.00000000 -0.00000000
 10   1  180.9  0.00003932    -1.93725106
                                           0.25 -0.00000000 -0.00000000
 11   1  214.0  0.00001201    -1.93725106
                                           0.23 -0.00000000 -0.00000000
 12   1  247.4  0.00000526    -1.93725106


RESULTS FOR STATE 1.2
=====================

 Correlation energy                    -0.060259615183
 !FCI STATE 1.2 Energy                 -1.937251056315
 CI Vector (threshold= 0.500E-01)
       0.959574474435  1 26  1
      -0.057255822983  1  4 26
      -0.057255848756  1 66 46
       0.116767948536 26 46 46
      -0.057255824070  1 97 77
       0.116767904765 26 77 77
 /EOF
 !FCI STATE 1.2 Dipole moment           0.00000000     0.00000000     0.00000000
 Dipole moment /Debye                   0.00000000     0.00000000     0.00000000
 

 !FCI expec          <1.2|EKIN|1.2>     0.706077518754
 
 !FCI expec           <1.2|POT|1.2>    -1.257402276130


 **********************************************************************************************************************************
 DATASETS  * FILE   NREC   LENGTH (MB)   RECORD NAMES
              1      21       38.29       500      610      700      900      950      970     1000      129      960     1100   
                                          VAR    BASINP    GEOM    SYMINP    ZMAT    AOBASIS   BASIS     P2S    ABASIS      S 
                                         1400     1410     1420     1200     1210     1080     1600     1650     1300     1700   
                                         EKIN       V       ECP      H0       H01     AOSYM     SMH    MOLCAS    ERIS     OPER   
                                         1380   
                                         JKOP   

              2       6        8.00       700     1000      520     4202     5202     2101   
                                         GEOM     BASIS   MCVARS     RHF     MCSCF     RHF  

 PROGRAMS   *        TOTAL       FCI       RHF     MULTI       RHF       INT
 CPU TIMES  *       247.41    242.77      0.04      0.20      0.25      4.03
 REAL TIME  *       265.46 SEC
 DISK USED  *        88.48 MB      
 **********************************************************************************************************************************
 SETTING POSTHF(I)      =        -1.93725106  AU                              
                                                                                                                                                                                                                                                                

       SCF           POSTHF       EKIN          POT
    -1.87699144   -1.93725106   0.70607752   -1.25740228
                                                  

 FCI/USERDEF energy=     -1.937251056315

        FCI             RHF-SCF         MULTI           RHF-SCF 
     -1.93725106     -1.87699144     -1.87699144     -1.87707332
 **********************************************************************************************************************************
 Variable memory released
