----- GAMESS execution script 'rungms' -----
This job is running on host login3.stampede2.tacc.utexas.edu
under operating system Linux at Wed Jan 16 16:02:38 CST 2019
Available scratch disk space (Kbyte units) at beginning of the job is
Filesystem     1K-blocks    Used Available Use% Mounted on
/dev/md2        73411824 1786292  67889676   3% /tmp
GAMESS temporary binary files will be written to /tmp
GAMESS supplementary output files will be written to /work/04843/aannabe/stampede2/docs/accurate/sref_qmcpack/He_core/Ar/TZ
Copying input file Ar.inp to your run's scratch directory...

 Distributed Data Interface kickoff program.
 Initiating 1 compute processes on 1 nodes to run the following command:
 /work/04843/aannabe/stampede2/codes/gamess-mcb/gamess/gamess.00.x Ar 

          ******************************************************
          *         GAMESS VERSION =  1 MAY 2013 (R1)          *
          *             FROM IOWA STATE UNIVERSITY             *
          * M.W.SCHMIDT, K.K.BALDRIDGE, J.A.BOATZ, S.T.ELBERT, *
          *   M.S.GORDON, J.H.JENSEN, S.KOSEKI, N.MATSUNAGA,   *
          *          K.A.NGUYEN, S.J.SU, T.L.WINDUS,           *
          *       TOGETHER WITH M.DUPUIS, J.A.MONTGOMERY       *
          *         J.COMPUT.CHEM.  14, 1347-1363(1993)        *
          **************** 64 BIT INTEL VERSION ****************

  SINCE 1993, STUDENTS AND POSTDOCS WORKING AT IOWA STATE UNIVERSITY
  AND ALSO IN THEIR VARIOUS JOBS AFTER LEAVING ISU HAVE MADE IMPORTANT
  CONTRIBUTIONS TO THE CODE:
     IVANA ADAMOVIC, CHRISTINE AIKENS, YURI ALEXEEV, POOJA ARORA,
     ANDREY ASADCHEV, ROB BELL, PRADIPTA BANDYOPADHYAY, JONATHAN BENTZ,
     BRETT BODE, GALINA CHABAN, WEI CHEN, CHEOL HO CHOI, PAUL DAY,
     ALBERT DEFUSCO, TIM DUDLEY, DMITRI FEDOROV, GRAHAM FLETCHER,
     MARK FREITAG, KURT GLAESEMANN, DAN KEMP, GRANT MERRILL,
     NORIYUKI MINEZAWA, JONATHAN MULLIN, TAKESHI NAGATA,
     SEAN NEDD, HEATHER NETZLOFF, BOSILJKA NJEGIC, RYAN OLSON, MIKE PAK,
     JIM SHOEMAKER, LYUDMILA SLIPCHENKO, SAROM SOK, JIE SONG,
     TETSUYA TAKETSUGU, SIMON WEBB, SOOHAENG YOO, FEDERICO ZAHARIEV

  ADDITIONAL CODE HAS BEEN PROVIDED BY COLLABORATORS IN OTHER GROUPS:
     IOWA STATE UNIVERSITY:
          JOE IVANIC, LAIMUTIS BYTAUTAS, KLAUS RUEDENBERG
     UNIVERSITY OF TOKYO: KIMIHIKO HIRAO, TAKAHITO NAKAJIMA,
          TAKAO TSUNEDA, MUNEAKI KAMIYA, SUSUMU YANAGISAWA,
          KIYOSHI YAGI, MAHITO CHIBA, SEIKEN TOKURA, NAOAKI KAWAKAMI
     UNIVERSITY OF AARHUS: FRANK JENSEN
     UNIVERSITY OF IOWA: VISVALDAS KAIRYS, HUI LI
     NATIONAL INST. OF STANDARDS AND TECHNOLOGY: WALT STEVENS, DAVID GARMER
     UNIVERSITY OF PISA: BENEDETTA MENNUCCI, JACOPO TOMASI
     UNIVERSITY OF MEMPHIS: HENRY KURTZ, PRAKASHAN KORAMBATH
     UNIVERSITY OF ALBERTA: TOBY ZENG, MARIUSZ KLOBUKOWSKI
     UNIVERSITY OF NEW ENGLAND: MARK SPACKMAN
     MIE UNIVERSITY: HIROAKI UMEDA
     MICHIGAN STATE UNIVERSITY:
          KAROL KOWALSKI, MARTA WLOCH, JEFFREY GOUR, JESSE LUTZ,
          WEI LI, PIOTR PIECUCH
     UNIVERSITY OF SILESIA: MONIKA MUSIAL, STANISLAW KUCHARSKI
     FACULTES UNIVERSITAIRES NOTRE-DAME DE LA PAIX:
          OLIVIER QUINET, BENOIT CHAMPAGNE
     UNIVERSITY OF CALIFORNIA - SANTA BARBARA: BERNARD KIRTMAN
     INSTITUTE FOR MOLECULAR SCIENCE:
          KAZUYA ISHIMURA, MICHIO KATOUDA, AND SHIGERU NAGASE
     UNIVERSITY OF NOTRE DAME: DAN CHIPMAN
     KYUSHU UNIVERSITY:
          HARUYUKI NAKANO,
          FENG LONG GU, JACEK KORCHOWIEC, MARCIN MAKOWSKI, AND YURIKO AOKI,
          HIROTOSHI MORI AND EISAKU MIYOSHI
     PENNSYLVANIA STATE UNIVERSITY:
          TZVETELIN IORDANOV, CHET SWALINA, JONATHAN SKONE,
          SHARON HAMMES-SCHIFFER
     WASEDA UNIVERSITY:
          MASATO KOBAYASHI, TOMOKO AKAMA, TSUGUKI TOUMA,
          TAKESHI YOSHIKAWA, YASUHIRO IKABATA, HIROMI NAKAI
     NANJING UNIVERSITY: SHUHUA LI
     UNIVERSITY OF NEBRASKA:
          PEIFENG SU, DEJUN SI, NANDUN THELLAMUREGE, YALI WANG, HUI LI
     UNIVERSITY OF ZURICH:
          ROBERTO PEVERATI, KIM BALDRIDGE
     N. COPERNICUS UNIVERSITY AND JACKSON STATE UNIVERSITY:
          MARIA BARYSZ

 EXECUTION OF GAMESS BEGUN Wed Jan 16 16:02:38 2019

            ECHO OF THE FIRST FEW INPUT CARDS -
 INPUT CARD> $CONTRL                                                                        
 INPUT CARD>     SCFTYP=ROHF                                                                
 INPUT CARD>     MULT=1                                                                     
 INPUT CARD>     ICHARG=0                                                                   
 INPUT CARD>     RUNTYP=ENERGY                                                              
 INPUT CARD>     MAXIT=150                                                                  
 INPUT CARD>     ECP=READ                                                                   
 INPUT CARD>     ISPHER=1                                                                   
 INPUT CARD> $END                                                                           
 INPUT CARD>                                                                                
 INPUT CARD> $SYSTEM                                                                        
 INPUT CARD>     KDIAG=3                                                                    
 INPUT CARD> $END                                                                           
 INPUT CARD>                                                                                
 INPUT CARD> $GUESS                                                                         
 INPUT CARD>    GUESS=HUCKEL                                                                
 INPUT CARD> $END                                                                           
 INPUT CARD>                                                                                
 INPUT CARD>                                                                                
 INPUT CARD> $DATA                                                                          
 INPUT CARD>                                                                                
 INPUT CARD>C1                                                                              
 INPUT CARD>Ar 18    0. 0. 0.                                                               
 INPUT CARD>S   12                                                                          
 INPUT CARD>  1     400.805381    0.00009200                                                
 INPUT CARD>  2     194.251428   -0.00125400                                                
 INPUT CARD>  3      94.144487    0.02887900                                                
 INPUT CARD>  4      45.627384   -0.17710600                                                
 INPUT CARD>  5      22.113437   -0.07716500                                                
 INPUT CARD>  6      10.717338    0.21018700                                                
 INPUT CARD>  7       5.194187    0.55436900                                                
 INPUT CARD>  8       2.517377    0.35907000                                                
 INPUT CARD>  9       1.220054    0.04076900                                                
 INPUT CARD> 10       0.591302    0.00508700                                                
 INPUT CARD> 11       0.286576   -0.00064400                                                
 INPUT CARD> 12       0.138890    0.00053300                                                
 INPUT CARD>S   12                                                                          
 INPUT CARD>  1     400.805381    0.00001900                                                
 INPUT CARD>  2     194.251428    0.00011400                                                
 INPUT CARD>  3      94.144487   -0.00869300                                                
 INPUT CARD>  4      45.627384    0.06117500                                                
 INPUT CARD>  5      22.113437    0.02679200                                                
 INPUT CARD>  6      10.717338   -0.07778000                                                
 INPUT CARD>  7       5.194187   -0.29074700                                                
 INPUT CARD>  8       2.517377   -0.32003600                                                
 INPUT CARD>  9       1.220054    0.12393300                                                
 INPUT CARD> 10       0.591302    0.53916300                                                
 INPUT CARD> 11       0.286576    0.45626000                                                
 INPUT CARD> 12       0.138890    0.13189200                                                
 INPUT CARD>S   1                                                                           
    1000000 WORDS OF MEMORY AVAILABLE


     RUN TITLE
     ---------
                                                                                 

 THE POINT GROUP OF THE MOLECULE IS C1      
 THE ORDER OF THE PRINCIPAL AXIS IS     0

 ATOM      ATOMIC                      COORDINATES (BOHR)
           CHARGE         X                   Y                   Z
 AR         18.0     0.0000000000        0.0000000000        0.0000000000

          INTERNUCLEAR DISTANCES (ANGS.)
          ------------------------------

                1 AR    

   1 AR      0.0000000  

  * ... LESS THAN  3.000


     ATOMIC BASIS SET
     ----------------
 THE CONTRACTED PRIMITIVE FUNCTIONS HAVE BEEN UNNORMALIZED
 THE CONTRACTED BASIS FUNCTIONS ARE NOW NORMALIZED TO UNITY

  SHELL TYPE  PRIMITIVE        EXPONENT          CONTRACTION COEFFICIENT(S)

 AR        

      1   S       1           400.8053810    0.000091999987
      1   S       2           194.2514280   -0.001253999827
      1   S       3            94.1444870    0.028878996009
      1   S       4            45.6273840   -0.177105975527
      1   S       5            22.1134370   -0.077164989337
      1   S       6            10.7173380    0.210186970956
      1   S       7             5.1941870    0.554368923397
      1   S       8             2.5173770    0.359069950384
      1   S       9             1.2200540    0.040768994367
      1   S      10             0.5913020    0.005086999297
      1   S      11             0.2865760   -0.000643999911
      1   S      12             0.1388900    0.000532999926

      2   S      13           400.8053810    0.000019000001
      2   S      14           194.2514280    0.000114000005
      2   S      15            94.1444870   -0.008693000396
      2   S      16            45.6273840    0.061175002784
      2   S      17            22.1134370    0.026792001219
      2   S      18            10.7173380   -0.077780003540
      2   S      19             5.1941870   -0.290747013232
      2   S      20             2.5173770   -0.320036014565
      2   S      21             1.2200540    0.123933005640
      2   S      22             0.5913020    0.539163024538
      2   S      23             0.2865760    0.456260020765
      2   S      24             0.1388900    0.131892006002

      3   S      25            19.1858370    1.000000000000

      4   S      26             3.7307550    1.000000000000

      5   S      27             1.3137660    1.000000000000

      6   S      28             0.2210750    1.000000000000

      7   P      29            71.8456930    0.014239001813
      7   P      30            38.3187860    0.103178013134
      7   P      31            20.4372630    0.185184023573
      7   P      32            10.9001820    0.276357035179
      7   P      33             5.8135950    0.318130040496
      7   P      34             3.1006710    0.211494026922
      7   P      35             1.6537380    0.061926007883
      7   P      36             0.8820190    0.005821000741
      7   P      37             0.4704230    0.000838000107
      7   P      38             0.2508990   -0.000047000006
      7   P      39             0.1338170    0.000077000010
      7   P      40             0.0713710   -0.000018000002

      8   P      41            71.8456930    0.004144998598
      8   P      42            38.3187860    0.028799990261
      8   P      43            20.4372630    0.051915982445
      8   P      44            10.9001820    0.084355971475
      8   P      45             5.8135950    0.103302965068
      8   P      46             3.1006710    0.059762979791
      8   P      47             1.6537380   -0.098523966684
      8   P      48             0.8820190   -0.272870907729
      8   P      49             0.4704230   -0.342111884315
      8   P      50             0.2508990   -0.289316902167
      8   P      51             0.1338170   -0.143328951533
      8   P      52             0.0713710   -0.032494989012

      9   P      53            10.1820770    1.000000000000

     10   P      54             4.1156850    1.000000000000

     11   P      55             1.2733460    1.000000000000

     12   P      56             0.1716140    1.000000000000

     13   D      57            21.1448170    1.000000000000

     14   D      58             6.6674560    1.000000000000

     15   D      59             1.2423230    1.000000000000

     16   D      60             0.4049430    1.000000000000

     17   F      61            14.2261600    1.000000000000

     18   F      62             0.8857520    1.000000000000

 TOTAL NUMBER OF BASIS SET SHELLS             =   18
 NUMBER OF CARTESIAN GAUSSIAN BASIS FUNCTIONS =   68
 NOTE: THIS RUN WILL RESTRICT THE MO VARIATION SPACE TO SPHERICAL HARMONICS.
 THE NUMBER OF ORBITALS KEPT IN THE VARIATIONAL SPACE WILL BE PRINTED LATER.
 NUMBER OF ELECTRONS                          =   18
 CHARGE OF MOLECULE                           =    0
 SPIN MULTIPLICITY                            =    1
 NUMBER OF OCCUPIED ORBITALS (ALPHA)          =    9
 NUMBER OF OCCUPIED ORBITALS (BETA )          =    9
 TOTAL NUMBER OF ATOMS                        =    1
 THE NUCLEAR REPULSION ENERGY IS        0.0000000000
 NOTE THIS RUN IS USING CORE POTENTIALS, AND THE NUMBER OF ELECTRONS,
 OCCUPIED ORBITALS, AND NUCLEAR REPULSION ENERGY WILL BE ADJUSTED BELOW
 AFTER REMOVAL OF THE CORE CHARGES.

 THIS MOLECULE IS RECOGNIZED AS BEING LINEAR,
 ORBITAL LZ DEGENERACY TOLERANCE ETOLLZ= 1.00E-06

     $CONTRL OPTIONS
     ---------------
 SCFTYP=ROHF         RUNTYP=ENERGY       EXETYP=RUN     
 MPLEVL=       0     CITYP =NONE         CCTYP =NONE         VBTYP =NONE    
 DFTTYP=NONE         TDDFT =NONE    
 MULT  =       1     ICHARG=       0     NZVAR =       0     COORD =UNIQUE  
 PP    =READ         RELWFN=NONE         LOCAL =NONE         NUMGRD=       F
 ISPHER=       1     NOSYM =       0     MAXIT =     150     UNITS =ANGS    
 PLTORB=       F     MOLPLT=       F     AIMPAC=       F     FRIEND=        
 NPRINT=       7     IREST =       0     GEOM  =INPUT   
 NORMF =       0     NORMP =       0     ITOL  =      20     ICUT  =       9
 INTTYP=BEST         GRDTYP=BEST         QMTTOL= 1.0E-06

     $SYSTEM OPTIONS
     ---------------
  REPLICATED MEMORY=     1000000 WORDS (ON EVERY NODE).
 DISTRIBUTED MEMDDI=           0 MILLION WORDS IN AGGREGATE,
 MEMDDI DISTRIBUTED OVER   1 PROCESSORS IS           0 WORDS/PROCESSOR.
 TOTAL MEMORY REQUESTED ON EACH PROCESSOR=     1000000 WORDS.
 TIMLIM=      525600.00 MINUTES, OR     365.0 DAYS.
 PARALL= F  BALTYP=  DLB     KDIAG=    3  COREFL= F
 MXSEQ2=     300 MXSEQ3=     150

          --------------
          ECP POTENTIALS
          --------------

 PARAMETERS FOR "AR-CCECP" ON ATOM    1 WITH ZCORE   2 AND LMAX  1 ARE
 FOR L= 1      COEFF    N           ZETA
    1       16.00000    1       23.43134
    2      374.90139    3       26.73587
    3     -178.03952    2       26.00333
 FOR L= 0      COEFF    N           ZETA
    1       25.06921    2      135.62052
    2      332.15184    2       60.47105

 THE ECP RUN REMOVES    2 CORE ELECTRONS, AND THE SAME NUMBER OF PROTONS.
 NUMBER OF ELECTRONS KEPT IN THE CALCULATION IS =   16
 NUMBER OF OCCUPIED ORBITALS (ALPHA) KEPT IS    =    8
 NUMBER OF OCCUPIED ORBITALS (BETA ) KEPT IS    =    8
 THE ADJUSTED NUCLEAR REPULSION ENERGY=        0.0000000000
          ECP ANGULAR INTS.........     0.00 SECONDS

          ----------------
          PROPERTIES INPUT
          ----------------

     MOMENTS            FIELD           POTENTIAL          DENSITY
 IEMOM =       1   IEFLD =       0   IEPOT =       0   IEDEN =       0
 WHERE =COMASS     WHERE =NUCLEI     WHERE =NUCLEI     WHERE =NUCLEI  
 OUTPUT=BOTH       OUTPUT=BOTH       OUTPUT=BOTH       OUTPUT=BOTH    
 IEMINT=       0   IEFINT=       0                     IEDINT=       0
                                                       MORB  =       0
          EXTRAPOLATION IN EFFECT
          SOSCF IN EFFECT
 ORBITAL PRINTING OPTION: NPREO=     1    68     2     1

     -------------------------------
     INTEGRAL TRANSFORMATION OPTIONS
     -------------------------------
     NWORD  =            0
     CUTOFF = 1.0E-09     MPTRAN =       0
     DIRTRF =       F     AOINTS =DUP     

          ----------------------
          INTEGRAL INPUT OPTIONS
          ----------------------
 NOPK  =       1 NORDER=       0 SCHWRZ=       F

     ------------------------------------------
     THE POINT GROUP IS C1 , NAXIS= 0, ORDER= 1
     ------------------------------------------

 -- VARIATIONAL SPACE WILL BE RESTRICTED TO PURE SPHERICAL HARMONICS ONLY --
 AFTER EXCLUDING CONTAMINANT COMBINATIONS FROM THE CARTESIAN GAUSSIAN BASIS
 SET, THE NUMBER OF SPHERICAL HARMONICS KEPT IN THE VARIATION SPACE IS   58

     DIMENSIONS OF THE SYMMETRY SUBSPACES ARE
 A   =   58

 ..... DONE SETTING UP THE RUN .....
 STEP CPU TIME =     0.01 TOTAL CPU TIME =        0.0 (    0.0 MIN)
 TOTAL WALL CLOCK TIME=        0.0 SECONDS, CPU UTILIZATION IS  50.00%

          ********************
          1 ELECTRON INTEGRALS
          ********************
 TIME TO DO ORDINARY INTEGRALS=      0.00
 TIME TO DO      ECP INTEGRALS=      0.00
 ...... END OF ONE-ELECTRON INTEGRALS ......
 STEP CPU TIME =     0.00 TOTAL CPU TIME =        0.0 (    0.0 MIN)
 TOTAL WALL CLOCK TIME=        0.2 SECONDS, CPU UTILIZATION IS   6.25%

          -------------
          GUESS OPTIONS
          -------------
          GUESS =HUCKEL            NORB  =       0          NORDER=       0
          MIX   =       F          PRTMO =       F          PUNMO =       F
          TOLZ  = 1.0E-08          TOLE  = 1.0E-05
          SYMDEN=       F          PURIFY=       F

 INITIAL GUESS ORBITALS GENERATED BY HUCKEL   ROUTINE.
 HUCKEL GUESS REQUIRES     34899 WORDS.

 STATISTICS FOR GENERATION OF SYMMETRY ORBITAL -Q- MATRIX
 NUMBER OF CARTESIAN ATOMIC ORBITALS=         68
 NUMBER OF SPHERICAL CONTAMINANTS DROPPED=    10
 NUMBER OF LINEARLY DEPENDENT MOS DROPPED=     0
 TOTAL NUMBER OF MOS IN VARIATION SPACE=      58

 SYMMETRIES FOR INITIAL GUESS ORBITALS FOLLOW.  ALPHA SET(S).
     8 ORBITALS ARE OCCUPIED (    4 CORE ORBITALS).
     5=A        6=A        7=A        8=A        9=A       10=A       11=A   
    12=A       13=A       14=A       15=A       16=A       17=A       18=A   

 SYMMETRIES FOR INITIAL GUESS ORBITALS FOLLOW.   BETA SET(S).
     8 ORBITALS ARE OCCUPIED (    4 CORE ORBITALS).
     5=A        6=A        7=A        8=A        9=A       10=A       11=A   
    12=A       13=A       14=A       15=A       16=A       17=A       18=A   
 ...... END OF INITIAL ORBITAL SELECTION ......
 STEP CPU TIME =     0.00 TOTAL CPU TIME =        0.0 (    0.0 MIN)
 TOTAL WALL CLOCK TIME=        0.2 SECONDS, CPU UTILIZATION IS   5.26%

                    ----------------------
                    AO INTEGRAL TECHNOLOGY
                    ----------------------
     S,P,L SHELL ROTATED AXIS INTEGRALS, REPROGRAMMED BY
        KAZUYA ISHIMURA (IMS) AND JOSE SIERRA (SYNSTAR).
     S,P,D,L SHELL ROTATED AXIS INTEGRALS PROGRAMMED BY
        KAZUYA ISHIMURA (INSTITUTE FOR MOLECULAR SCIENCE).
     S,P,D,F,G SHELL TO TOTAL QUARTET ANGULAR MOMENTUM SUM 5,
        ERIC PROGRAM BY GRAHAM FLETCHER (ELORET AND NASA ADVANCED
        SUPERCOMPUTING DIVISION, AMES RESEARCH CENTER).
     S,P,D,F,G,L SHELL GENERAL RYS QUADRATURE PROGRAMMED BY
        MICHEL DUPUIS (PACIFIC NORTHWEST NATIONAL LABORATORY).

          --------------------
          2 ELECTRON INTEGRALS
          --------------------

 THE -PK- OPTION IS OFF, THE INTEGRALS ARE NOT IN SUPERMATRIX FORM.
 STORING   15000 INTEGRALS/RECORD ON DISK, USING 12 BYTES/INTEGRAL.
 TWO ELECTRON INTEGRAL EVALUATION REQUIRES   99271 WORDS OF MEMORY.
 II,JST,KST,LST =  1  1  1  1 NREC =         1 INTLOC =    1
 II,JST,KST,LST =  2  1  1  1 NREC =         1 INTLOC =    2
 II,JST,KST,LST =  3  1  1  1 NREC =         1 INTLOC =    7
 II,JST,KST,LST =  4  1  1  1 NREC =         1 INTLOC =   22
 II,JST,KST,LST =  5  1  1  1 NREC =         1 INTLOC =   56
 II,JST,KST,LST =  6  1  1  1 NREC =         1 INTLOC =  121
 II,JST,KST,LST =  7  1  1  1 NREC =         1 INTLOC =  232
 II,JST,KST,LST =  8  1  1  1 NREC =         1 INTLOC =  367
 II,JST,KST,LST =  9  1  1  1 NREC =         1 INTLOC =  730
 II,JST,KST,LST = 10  1  1  1 NREC =         1 INTLOC = 1429
 II,JST,KST,LST = 11  1  1  1 NREC =         1 INTLOC = 2635
 II,JST,KST,LST = 12  1  1  1 NREC =         1 INTLOC = 4582
 II,JST,KST,LST = 13  1  1  1 NREC =         1 INTLOC = 7567
 II,JST,KST,LST = 14  1  1  1 NREC =         2 INTLOC = 1264
 II,JST,KST,LST = 15  1  1  1 NREC =         3 INTLOC = 2200
 II,JST,KST,LST = 16  1  1  1 NREC =         4 INTLOC =13075
 II,JST,KST,LST = 17  1  1  1 NREC =         7 INTLOC = 7597
 II,JST,KST,LST = 18  1  1  1 NREC =        14 INTLOC = 3071
 TOTAL NUMBER OF NONZERO TWO-ELECTRON INTEGRALS =              365199
         25 INTEGRAL RECORDS WERE STORED ON DISK FILE  8.
  ...... END OF TWO-ELECTRON INTEGRALS .....
 STEP CPU TIME =     0.32 TOTAL CPU TIME =        0.3 (    0.0 MIN)
 TOTAL WALL CLOCK TIME=        0.5 SECONDS, CPU UTILIZATION IS  63.46%

          ---------------------------
                 ROHF SCF CALCULATION
          ---------------------------

     NUCLEAR ENERGY =         0.0000000000
     MAXIT =150     NPUNCH=  2     MULT=  1
     EXTRAP=T  DAMP=F  SHIFT=F  RSTRCT=F  DIIS=F  SOSCF=T
     DENSITY MATRIX CONV=  1.00E-05
     ROHF CANONICALIZATION PARAMETERS
             C-C     O-O     V-V
     ALPHA -0.5000  0.5000  1.5000
     BETA   1.5000  0.5000 -0.5000
     SOSCF WILL OPTIMIZE     400 ORBITAL ROTATION ANGLES. SOGTOL= 2.500E-01
     MEMORY REQUIRED FOR UHF/ROHF ITERS=     75036 WORDS.

 ITER EX      TOTAL ENERGY        E CHANGE  DENSITY CHANGE    ORB. GRAD 
   1  0     -213.8752662359  -213.8752662359   0.729780349   0.000000000
          ---------------START SECOND ORDER SCF---------------
   2  1     -214.8900294229    -1.0147631870   0.021082348   0.101251181
   3  2     -214.8920922176    -0.0020627947   0.006120063   0.008035565
   4  3     -214.8921592749    -0.0000670572   0.001035086   0.001154896
   5  4     -214.8921597926    -0.0000005178   0.000091266   0.000085867
   6  5     -214.8921597971    -0.0000000045   0.000009779   0.000002102
   7  6     -214.8921597971    -0.0000000000   0.000002328   0.000000331

          -----------------
          DENSITY CONVERGED
          -----------------
     TIME TO FORM FOCK OPERATORS=       0.0 SECONDS (       0.0 SEC/ITER)
     TIME TO SOLVE SCF EQUATIONS=       0.0 SECONDS (       0.0 SEC/ITER)

 FINAL ROHF ENERGY IS     -214.8921597971 AFTER   7 ITERATIONS

          --------------------
          SPIN SZ   =    0.000
          S-SQUARED =   -0.000
          --------------------

 LZ VALUE ANALYSIS FOR THE MOS
 ----------------------------------------
 MO     1 (    1) HAS LZ(WEIGHT)= 0.00(100.0%) 
 MO     2 (    2) HAS LZ(WEIGHT)=-1.00( 50.0%)  1.00( 50.0%) 
 MO     3 (    2) HAS LZ(WEIGHT)=-1.00( 50.0%)  1.00( 50.0%) 
 MO     4 (    2) HAS LZ(WEIGHT)= 0.00(100.0%) 
 MO     5 (    3) HAS LZ(WEIGHT)= 0.00(100.0%) 
 MO     6 (    4) HAS LZ(WEIGHT)=-1.00( 50.0%)  1.00( 50.0%) 
 MO     7 (    4) HAS LZ(WEIGHT)=-1.00( 50.0%)  1.00( 50.0%) 
 MO     8 (    4) HAS LZ(WEIGHT)= 0.00(100.0%) 
 MO     9 (    5) HAS LZ(WEIGHT)=-1.00( 50.0%)  1.00( 50.0%) 
 MO    10 (    5) HAS LZ(WEIGHT)=-1.00( 50.0%)  1.00( 50.0%) 
 MO    11 (    5) HAS LZ(WEIGHT)= 0.00(100.0%) 
 MO    12 (    6) HAS LZ(WEIGHT)=-1.00( 50.0%)  1.00( 50.0%) 
 MO    13 (    6) HAS LZ(WEIGHT)=-2.00( 50.0%)  2.00( 50.0%) 
 MO    14 (    6) HAS LZ(WEIGHT)=-1.00( 50.0%)  1.00( 50.0%) 
 MO    15 (    6) HAS LZ(WEIGHT)= 0.00(100.0%) 
 MO    16 (    6) HAS LZ(WEIGHT)=-2.00( 50.0%)  2.00( 50.0%) 
 MO    17 (    7) HAS LZ(WEIGHT)= 0.00(100.0%) 
 MO    18 (    8) HAS LZ(WEIGHT)= 0.00(100.0%) 
 MO    19 (    8) HAS LZ(WEIGHT)=-2.00( 50.0%)  2.00( 50.0%) 
 MO    20 (    8) HAS LZ(WEIGHT)=-2.00( 50.0%)  2.00( 50.0%) 
 MO    21 (    8) HAS LZ(WEIGHT)=-1.00( 50.0%)  1.00( 50.0%) 
 MO    22 (    8) HAS LZ(WEIGHT)=-1.00( 50.0%)  1.00( 50.0%) 
 MO    23 (    9) HAS LZ(WEIGHT)=-2.00( 50.0%)  2.00( 50.0%) 
 MO    24 (    9) HAS LZ(WEIGHT)=-2.00( 50.0%)  2.00( 50.0%) 
 MO    25 (    9) HAS LZ(WEIGHT)=-1.00( 50.0%)  1.00( 50.0%) 
 MO    26 (    9) HAS LZ(WEIGHT)=-3.00( 50.0%)  3.00( 50.0%) 
 MO    27 (    9) HAS LZ(WEIGHT)=-1.00( 50.0%)  1.00( 50.0%) 
 MO    28 (    9) HAS LZ(WEIGHT)= 0.00(100.0%) 
 MO    29 (    9) HAS LZ(WEIGHT)=-3.00( 50.0%)  3.00( 50.0%) 
 MO    30 (   10) HAS LZ(WEIGHT)=-1.00( 50.0%)  1.00( 50.0%) 
 MO    31 (   10) HAS LZ(WEIGHT)=-1.00( 50.0%)  1.00( 50.0%) 
 MO    32 (   10) HAS LZ(WEIGHT)= 0.00(100.0%) 
 MO    33 (   11) HAS LZ(WEIGHT)= 0.00(100.0%) 
 MO    34 (   12) HAS LZ(WEIGHT)=-1.00( 50.0%)  1.00( 50.0%) 
 MO    35 (   12) HAS LZ(WEIGHT)=-1.00( 50.0%)  1.00( 50.0%) 
 MO    36 (   12) HAS LZ(WEIGHT)=-2.00( 50.0%)  2.00( 50.0%) 
 MO    37 (   12) HAS LZ(WEIGHT)=-2.00( 50.0%)  2.00( 50.0%) 
 MO    38 (   12) HAS LZ(WEIGHT)= 0.00(100.0%) 
 MO    39 (   13) HAS LZ(WEIGHT)=-1.00( 50.0%)  1.00( 50.0%) 
 MO    40 (   13) HAS LZ(WEIGHT)= 0.00(100.0%) 
 MO    41 (   13) HAS LZ(WEIGHT)=-1.00( 50.0%)  1.00( 50.0%) 
 MO    42 (   14) HAS LZ(WEIGHT)= 0.00(100.0%) 
 MO    43 (   15) HAS LZ(WEIGHT)=-3.00( 50.0%)  3.00( 50.0%) 
 MO    44 (   15) HAS LZ(WEIGHT)=-1.00( 50.0%)  1.00( 50.0%) 
 MO    45 (   15) HAS LZ(WEIGHT)=-3.00( 50.0%)  3.00( 50.0%) 
 MO    46 (   15) HAS LZ(WEIGHT)=-2.00( 50.0%)  2.00( 50.0%) 
 MO    47 (   15) HAS LZ(WEIGHT)= 0.00(100.0%) 
 MO    48 (   15) HAS LZ(WEIGHT)=-1.00( 50.0%)  1.00( 50.0%) 
 MO    49 (   15) HAS LZ(WEIGHT)=-2.00( 50.0%)  2.00( 50.0%) 
 MO    50 (   16) HAS LZ(WEIGHT)=-2.00( 50.0%)  2.00( 50.0%) 
 MO    51 (   16) HAS LZ(WEIGHT)=-2.00( 50.0%)  2.00( 50.0%) 
 MO    52 (   16) HAS LZ(WEIGHT)=-1.00( 50.0%)  1.00( 50.0%) 
 MO    53 (   16) HAS LZ(WEIGHT)= 0.00(100.0%) 
 MO    54 (   16) HAS LZ(WEIGHT)=-1.00( 50.0%)  1.00( 50.0%) 
 MO    55 (   17) HAS LZ(WEIGHT)=-1.00( 50.0%)  1.00( 50.0%) 
 MO    56 (   17) HAS LZ(WEIGHT)=-1.00( 50.0%)  1.00( 50.0%) 
 MO    57 (   17) HAS LZ(WEIGHT)= 0.00(100.0%) 
 MO    58 (   18) HAS LZ(WEIGHT)= 0.00(100.0%) 

          ------------
          EIGENVECTORS
          ------------

                      1          2          3          4          5
                  -12.4289    -9.7726    -9.7726    -9.7726    -1.2868
                     A          A          A          A          A   
    1  AR 1  S    0.999983   0.000000   0.000000   0.000000   0.000073
    2  AR 1  S   -0.000005   0.000000   0.000000   0.000000   1.000176
    3  AR 1  S   -0.000005   0.000000   0.000000   0.000000   0.000003
    4  AR 1  S    0.000024   0.000000   0.000000   0.000000   0.000030
    5  AR 1  S   -0.000007   0.000000   0.000000   0.000000  -0.000060
    6  AR 1  S    0.000008   0.000000   0.000000   0.000000  -0.000164
    7  AR 1  X    0.000000   0.000000   0.999996   0.000000   0.000000
    8  AR 1  Y    0.000000   0.999996   0.000000   0.000000   0.000000
    9  AR 1  Z    0.000000   0.000000   0.000000   0.999996   0.000000
   10  AR 1  X    0.000000   0.000000   0.000003   0.000000   0.000000
   11  AR 1  Y    0.000000   0.000003   0.000000   0.000000   0.000000
   12  AR 1  Z    0.000000   0.000000   0.000000   0.000003   0.000000
   13  AR 1  X    0.000000   0.000000   0.000004   0.000000   0.000000
   14  AR 1  Y    0.000000   0.000004   0.000000   0.000000   0.000000
   15  AR 1  Z    0.000000   0.000000   0.000000   0.000004   0.000000
   16  AR 1  X    0.000000   0.000000  -0.000001   0.000000   0.000000
   17  AR 1  Y    0.000000  -0.000001   0.000000   0.000000   0.000000
   18  AR 1  Z    0.000000   0.000000   0.000000  -0.000001   0.000000
   19  AR 1  X    0.000000   0.000000   0.000003   0.000000   0.000000
   20  AR 1  Y    0.000000   0.000003   0.000000   0.000000   0.000000
   21  AR 1  Z    0.000000   0.000000   0.000000   0.000003   0.000000
   22  AR 1  X    0.000000   0.000000   0.000001   0.000000   0.000000
   23  AR 1  Y    0.000000   0.000001   0.000000   0.000000   0.000000
   24  AR 1  Z    0.000000   0.000000   0.000000   0.000001   0.000000
   25  AR 1 XX    0.000000   0.000000   0.000000   0.000000   0.000000
   26  AR 1 YY    0.000000   0.000000   0.000000   0.000000   0.000000
   27  AR 1 ZZ    0.000000   0.000000   0.000000   0.000000   0.000000
   28  AR 1 XY    0.000000   0.000000   0.000000   0.000000   0.000000
   29  AR 1 XZ    0.000000   0.000000   0.000000   0.000000   0.000000
   30  AR 1 YZ    0.000000   0.000000   0.000000   0.000000   0.000000
   31  AR 1 XX    0.000000   0.000000   0.000000   0.000000   0.000000
   32  AR 1 YY    0.000000   0.000000   0.000000   0.000000   0.000000
   33  AR 1 ZZ    0.000000   0.000000   0.000000   0.000000   0.000000
   34  AR 1 XY    0.000000   0.000000   0.000000   0.000000   0.000000
   35  AR 1 XZ    0.000000   0.000000   0.000000   0.000000   0.000000
   36  AR 1 YZ    0.000000   0.000000   0.000000   0.000000   0.000000
   37  AR 1 XX    0.000000   0.000000   0.000000   0.000000   0.000000
   38  AR 1 YY    0.000000   0.000000   0.000000   0.000000   0.000000
   39  AR 1 ZZ    0.000000   0.000000   0.000000   0.000000   0.000000
   40  AR 1 XY    0.000000   0.000000   0.000000   0.000000   0.000000
   41  AR 1 XZ    0.000000   0.000000   0.000000   0.000000   0.000000
   42  AR 1 YZ    0.000000   0.000000   0.000000   0.000000   0.000000
   43  AR 1 XX    0.000000   0.000000   0.000000   0.000000   0.000000
   44  AR 1 YY    0.000000   0.000000   0.000000   0.000000   0.000000
   45  AR 1 ZZ    0.000000   0.000000   0.000000   0.000000   0.000000
   46  AR 1 XY    0.000000   0.000000   0.000000   0.000000   0.000000
   47  AR 1 XZ    0.000000   0.000000   0.000000   0.000000   0.000000
   48  AR 1 YZ    0.000000   0.000000   0.000000   0.000000   0.000000
   49  AR 1 XXX   0.000000   0.000000   0.000000   0.000000   0.000000
   50  AR 1 YYY   0.000000   0.000000   0.000000   0.000000   0.000000
   51  AR 1 ZZZ   0.000000   0.000000   0.000000   0.000000   0.000000
   52  AR 1 XXY   0.000000   0.000000   0.000000   0.000000   0.000000
   53  AR 1 XXZ   0.000000   0.000000   0.000000   0.000000   0.000000
   54  AR 1 YYX   0.000000   0.000000   0.000000   0.000000   0.000000
   55  AR 1 YYZ   0.000000   0.000000   0.000000   0.000000   0.000000
   56  AR 1 ZZX   0.000000   0.000000   0.000000   0.000000   0.000000
   57  AR 1 ZZY   0.000000   0.000000   0.000000   0.000000   0.000000
   58  AR 1 XYZ   0.000000   0.000000   0.000000   0.000000   0.000000
   59  AR 1 XXX   0.000000   0.000000   0.000000   0.000000   0.000000
   60  AR 1 YYY   0.000000   0.000000   0.000000   0.000000   0.000000
   61  AR 1 ZZZ   0.000000   0.000000   0.000000   0.000000   0.000000
   62  AR 1 XXY   0.000000   0.000000   0.000000   0.000000   0.000000
   63  AR 1 XXZ   0.000000   0.000000   0.000000   0.000000   0.000000
   64  AR 1 YYX   0.000000   0.000000   0.000000   0.000000   0.000000
   65  AR 1 YYZ   0.000000   0.000000   0.000000   0.000000   0.000000
   66  AR 1 ZZX   0.000000   0.000000   0.000000   0.000000   0.000000
   67  AR 1 ZZY   0.000000   0.000000   0.000000   0.000000   0.000000
   68  AR 1 XYZ   0.000000   0.000000   0.000000   0.000000   0.000000

                      6          7          8          9         10
                   -0.5909    -0.5909    -0.5909     0.6384     0.6384
                     A          A          A          A          A   
    1  AR 1  S    0.000000   0.000000   0.000000   0.000000   0.000000
    2  AR 1  S    0.000000   0.000000   0.000000   0.000000   0.000000
    3  AR 1  S    0.000000   0.000000   0.000000   0.000000   0.000000
    4  AR 1  S    0.000000   0.000000   0.000000   0.000000   0.000000
    5  AR 1  S    0.000000   0.000000   0.000000   0.000000   0.000000
    6  AR 1  S    0.000000   0.000000   0.000000   0.000000   0.000000
    7  AR 1  X    0.000002   0.000000   0.000000  -0.446030   0.000000
    8  AR 1  Y    0.000000   0.000002   0.000000   0.000000  -0.446030
    9  AR 1  Z    0.000000   0.000000   0.000002   0.000000   0.000000
   10  AR 1  X    0.999987   0.000000   0.000000   2.275402   0.000000
   11  AR 1  Y    0.000000   0.999987   0.000000   0.000000   2.275402
   12  AR 1  Z    0.000000   0.000000   0.999987   0.000000   0.000000
   13  AR 1  X   -0.000001   0.000000   0.000000   0.005320   0.000000
   14  AR 1  Y    0.000000  -0.000001   0.000000   0.000000   0.005320
   15  AR 1  Z    0.000000   0.000000  -0.000001   0.000000   0.000000
   16  AR 1  X    0.000003   0.000000   0.000000  -0.058833   0.000000
   17  AR 1  Y    0.000000   0.000003   0.000000   0.000000  -0.058833
   18  AR 1  Z    0.000000   0.000000   0.000003   0.000000   0.000000
   19  AR 1  X   -0.000005   0.000000   0.000000   0.607031   0.000000
   20  AR 1  Y    0.000000  -0.000005   0.000000   0.000000   0.607031
   21  AR 1  Z    0.000000   0.000000  -0.000005   0.000000   0.000000
   22  AR 1  X   -0.000012   0.000000   0.000000   2.268852   0.000000
   23  AR 1  Y    0.000000  -0.000012   0.000000   0.000000   2.268852
   24  AR 1  Z    0.000000   0.000000  -0.000012   0.000000   0.000000
   25  AR 1 XX    0.000000   0.000000   0.000000   0.000000   0.000000
   26  AR 1 YY    0.000000   0.000000   0.000000   0.000000   0.000000
   27  AR 1 ZZ    0.000000   0.000000   0.000000   0.000000   0.000000
   28  AR 1 XY    0.000000   0.000000   0.000000   0.000000   0.000000
   29  AR 1 XZ    0.000000   0.000000   0.000000   0.000000   0.000000
   30  AR 1 YZ    0.000000   0.000000   0.000000   0.000000   0.000000
   31  AR 1 XX    0.000000   0.000000   0.000000   0.000000   0.000000
   32  AR 1 YY    0.000000   0.000000   0.000000   0.000000   0.000000
   33  AR 1 ZZ    0.000000   0.000000   0.000000   0.000000   0.000000
   34  AR 1 XY    0.000000   0.000000   0.000000   0.000000   0.000000
   35  AR 1 XZ    0.000000   0.000000   0.000000   0.000000   0.000000
   36  AR 1 YZ    0.000000   0.000000   0.000000   0.000000   0.000000
   37  AR 1 XX    0.000000   0.000000   0.000000   0.000000   0.000000
   38  AR 1 YY    0.000000   0.000000   0.000000   0.000000   0.000000
   39  AR 1 ZZ    0.000000   0.000000   0.000000   0.000000   0.000000
   40  AR 1 XY    0.000000   0.000000   0.000000   0.000000   0.000000
   41  AR 1 XZ    0.000000   0.000000   0.000000   0.000000   0.000000
   42  AR 1 YZ    0.000000   0.000000   0.000000   0.000000   0.000000
   43  AR 1 XX    0.000000   0.000000   0.000000   0.000000   0.000000
   44  AR 1 YY    0.000000   0.000000   0.000000   0.000000   0.000000
   45  AR 1 ZZ    0.000000   0.000000   0.000000   0.000000   0.000000
   46  AR 1 XY    0.000000   0.000000   0.000000   0.000000   0.000000
   47  AR 1 XZ    0.000000   0.000000   0.000000   0.000000   0.000000
   48  AR 1 YZ    0.000000   0.000000   0.000000   0.000000   0.000000
   49  AR 1 XXX   0.000000   0.000000   0.000000   0.000000   0.000000
   50  AR 1 YYY   0.000000   0.000000   0.000000   0.000000   0.000000
   51  AR 1 ZZZ   0.000000   0.000000   0.000000   0.000000   0.000000
   52  AR 1 XXY   0.000000   0.000000   0.000000   0.000000   0.000000
   53  AR 1 XXZ   0.000000   0.000000   0.000000   0.000000   0.000000
   54  AR 1 YYX   0.000000   0.000000   0.000000   0.000000   0.000000
   55  AR 1 YYZ   0.000000   0.000000   0.000000   0.000000   0.000000
   56  AR 1 ZZX   0.000000   0.000000   0.000000   0.000000   0.000000
   57  AR 1 ZZY   0.000000   0.000000   0.000000   0.000000   0.000000
   58  AR 1 XYZ   0.000000   0.000000   0.000000   0.000000   0.000000
   59  AR 1 XXX   0.000000   0.000000   0.000000   0.000000   0.000000
   60  AR 1 YYY   0.000000   0.000000   0.000000   0.000000   0.000000
   61  AR 1 ZZZ   0.000000   0.000000   0.000000   0.000000   0.000000
   62  AR 1 XXY   0.000000   0.000000   0.000000   0.000000   0.000000
   63  AR 1 XXZ   0.000000   0.000000   0.000000   0.000000   0.000000
   64  AR 1 YYX   0.000000   0.000000   0.000000   0.000000   0.000000
   65  AR 1 YYZ   0.000000   0.000000   0.000000   0.000000   0.000000
   66  AR 1 ZZX   0.000000   0.000000   0.000000   0.000000   0.000000
   67  AR 1 ZZY   0.000000   0.000000   0.000000   0.000000   0.000000
   68  AR 1 XYZ   0.000000   0.000000   0.000000   0.000000   0.000000

                     11         12         13         14         15
                    0.6384     0.6906     0.6906     0.6906     0.6906
                     A          A          A          A          A   
    1  AR 1  S    0.000000   0.000000   0.000000   0.000000   0.000000
    2  AR 1  S    0.000000   0.000000   0.000000   0.000000   0.000000
    3  AR 1  S    0.000000   0.000000   0.000000   0.000000   0.000000
    4  AR 1  S    0.000000   0.000000   0.000000   0.000000   0.000000
    5  AR 1  S    0.000000   0.000000   0.000000   0.000000   0.000000
    6  AR 1  S    0.000000   0.000000   0.000000   0.000000   0.000000
    7  AR 1  X    0.000000   0.000000   0.000000   0.000000   0.000000
    8  AR 1  Y    0.000000   0.000000   0.000000   0.000000   0.000000
    9  AR 1  Z   -0.446030   0.000000   0.000000   0.000000   0.000000
   10  AR 1  X    0.000000   0.000000   0.000000   0.000000   0.000000
   11  AR 1  Y    0.000000   0.000000   0.000000   0.000000   0.000000
   12  AR 1  Z    2.275402   0.000000   0.000000   0.000000   0.000000
   13  AR 1  X    0.000000   0.000000   0.000000   0.000000   0.000000
   14  AR 1  Y    0.000000   0.000000   0.000000   0.000000   0.000000
   15  AR 1  Z    0.005320   0.000000   0.000000   0.000000   0.000000
   16  AR 1  X    0.000000   0.000000   0.000000   0.000000   0.000000
   17  AR 1  Y    0.000000   0.000000   0.000000   0.000000   0.000000
   18  AR 1  Z   -0.058833   0.000000   0.000000   0.000000   0.000000
   19  AR 1  X    0.000000   0.000000   0.000000   0.000000   0.000000
   20  AR 1  Y    0.000000   0.000000   0.000000   0.000000   0.000000
   21  AR 1  Z    0.607031   0.000000   0.000000   0.000000   0.000000
   22  AR 1  X    0.000000   0.000000   0.000000   0.000000   0.000000
   23  AR 1  Y    0.000000   0.000000   0.000000   0.000000   0.000000
   24  AR 1  Z    2.268852   0.000000   0.000000   0.000000   0.000000
   25  AR 1 XX    0.000000   0.000000   0.000000   0.000000  -0.001731
   26  AR 1 YY    0.000000   0.000000   0.000000   0.000000  -0.001731
   27  AR 1 ZZ    0.000000   0.000000   0.000000   0.000000   0.003463
   28  AR 1 XY    0.000000   0.000000   0.003463   0.000000   0.000000
   29  AR 1 XZ    0.000000   0.000000   0.000000   0.003463   0.000000
   30  AR 1 YZ    0.000000   0.003463   0.000000   0.000000   0.000000
   31  AR 1 XX    0.000000   0.000000   0.000000   0.000000  -0.030458
   32  AR 1 YY    0.000000   0.000000   0.000000   0.000000  -0.030458
   33  AR 1 ZZ    0.000000   0.000000   0.000000   0.000000   0.060915
   34  AR 1 XY    0.000000   0.000000   0.060915   0.000000   0.000000
   35  AR 1 XZ    0.000000   0.000000   0.000000   0.060915   0.000000
   36  AR 1 YZ    0.000000   0.060915   0.000000   0.000000   0.000000
   37  AR 1 XX    0.000000   0.000000   0.000000   0.000000  -0.108233
   38  AR 1 YY    0.000000   0.000000   0.000000   0.000000  -0.108233
   39  AR 1 ZZ    0.000000   0.000000   0.000000   0.000000   0.216466
   40  AR 1 XY    0.000000   0.000000   0.216466   0.000000   0.000000
   41  AR 1 XZ    0.000000   0.000000   0.000000   0.216466   0.000000
   42  AR 1 YZ    0.000000   0.216466   0.000000   0.000000   0.000000
   43  AR 1 XX    0.000000   0.000000   0.000000   0.000000  -0.423135
   44  AR 1 YY    0.000000   0.000000   0.000000   0.000000  -0.423135
   45  AR 1 ZZ    0.000000   0.000000   0.000000   0.000000   0.846269
   46  AR 1 XY    0.000000   0.000000   0.846269   0.000000   0.000000
   47  AR 1 XZ    0.000000   0.000000   0.000000   0.846269   0.000000
   48  AR 1 YZ    0.000000   0.846269   0.000000   0.000000   0.000000
   49  AR 1 XXX   0.000000   0.000000   0.000000   0.000000   0.000000
   50  AR 1 YYY   0.000000   0.000000   0.000000   0.000000   0.000000
   51  AR 1 ZZZ   0.000000   0.000000   0.000000   0.000000   0.000000
   52  AR 1 XXY   0.000000   0.000000   0.000000   0.000000   0.000000
   53  AR 1 XXZ   0.000000   0.000000   0.000000   0.000000   0.000000
   54  AR 1 YYX   0.000000   0.000000   0.000000   0.000000   0.000000
   55  AR 1 YYZ   0.000000   0.000000   0.000000   0.000000   0.000000
   56  AR 1 ZZX   0.000000   0.000000   0.000000   0.000000   0.000000
   57  AR 1 ZZY   0.000000   0.000000   0.000000   0.000000   0.000000
   58  AR 1 XYZ   0.000000   0.000000   0.000000   0.000000   0.000000
   59  AR 1 XXX   0.000000   0.000000   0.000000   0.000000   0.000000
   60  AR 1 YYY   0.000000   0.000000   0.000000   0.000000   0.000000
   61  AR 1 ZZZ   0.000000   0.000000   0.000000   0.000000   0.000000
   62  AR 1 XXY   0.000000   0.000000   0.000000   0.000000   0.000000
   63  AR 1 XXZ   0.000000   0.000000   0.000000   0.000000   0.000000
   64  AR 1 YYX   0.000000   0.000000   0.000000   0.000000   0.000000
   65  AR 1 YYZ   0.000000   0.000000   0.000000   0.000000   0.000000
   66  AR 1 ZZX   0.000000   0.000000   0.000000   0.000000   0.000000
   67  AR 1 ZZY   0.000000   0.000000   0.000000   0.000000   0.000000
   68  AR 1 XYZ   0.000000   0.000000   0.000000   0.000000   0.000000

                     16         17         18         19         20
                    0.6906     0.7603     2.3378     2.3378     2.3378
                     A          A          A          A          A   
    1  AR 1  S    0.000000  -1.231271   0.000000   0.000000   0.000000
    2  AR 1  S    0.000000  -4.262262   0.000000   0.000000   0.000000
    3  AR 1  S    0.000000  -0.004752   0.000000   0.000000   0.000000
    4  AR 1  S    0.000000  -0.926296   0.000000   0.000000   0.000000
    5  AR 1  S    0.000000   0.912258   0.000000   0.000000   0.000000
    6  AR 1  S    0.000000   4.273464   0.000000   0.000000   0.000000
    7  AR 1  X    0.000000   0.000000   0.000000   0.000000   0.000000
    8  AR 1  Y    0.000000   0.000000   0.000000   0.000000   0.000000
    9  AR 1  Z    0.000000   0.000000   0.000000   0.000000   0.000000
   10  AR 1  X    0.000000   0.000000   0.000000   0.000000   0.000000
   11  AR 1  Y    0.000000   0.000000   0.000000   0.000000   0.000000
   12  AR 1  Z    0.000000   0.000000   0.000000   0.000000   0.000000
   13  AR 1  X    0.000000   0.000000   0.000000   0.000000   0.000000
   14  AR 1  Y    0.000000   0.000000   0.000000   0.000000   0.000000
   15  AR 1  Z    0.000000   0.000000   0.000000   0.000000   0.000000
   16  AR 1  X    0.000000   0.000000   0.000000   0.000000   0.000000
   17  AR 1  Y    0.000000   0.000000   0.000000   0.000000   0.000000
   18  AR 1  Z    0.000000   0.000000   0.000000   0.000000   0.000000
   19  AR 1  X    0.000000   0.000000   0.000000   0.000000   0.000000
   20  AR 1  Y    0.000000   0.000000   0.000000   0.000000   0.000000
   21  AR 1  Z    0.000000   0.000000   0.000000   0.000000   0.000000
   22  AR 1  X    0.000000   0.000000   0.000000   0.000000   0.000000
   23  AR 1  Y    0.000000   0.000000   0.000000   0.000000   0.000000
   24  AR 1  Z    0.000000   0.000000   0.000000   0.000000   0.000000
   25  AR 1 XX    0.002999   0.000000  -0.008483   0.014693   0.000000
   26  AR 1 YY   -0.002999   0.000000  -0.008483  -0.014693   0.000000
   27  AR 1 ZZ    0.000000   0.000000   0.016967   0.000000   0.000000
   28  AR 1 XY    0.000000   0.000000   0.000000   0.000000   0.016967
   29  AR 1 XZ    0.000000   0.000000   0.000000   0.000000   0.000000
   30  AR 1 YZ    0.000000   0.000000   0.000000   0.000000   0.000000
   31  AR 1 XX    0.052754   0.000000  -0.069720   0.120759   0.000000
   32  AR 1 YY   -0.052754   0.000000  -0.069720  -0.120759   0.000000
   33  AR 1 ZZ    0.000000   0.000000   0.139441   0.000000   0.000000
   34  AR 1 XY    0.000000   0.000000   0.000000   0.000000   0.139441
   35  AR 1 XZ    0.000000   0.000000   0.000000   0.000000   0.000000
   36  AR 1 YZ    0.000000   0.000000   0.000000   0.000000   0.000000
   37  AR 1 XX    0.187465   0.000000  -0.569806   0.986933   0.000000
   38  AR 1 YY   -0.187465   0.000000  -0.569806  -0.986933   0.000000
   39  AR 1 ZZ    0.000000   0.000000   1.139612   0.000000   0.000000
   40  AR 1 XY    0.000000   0.000000   0.000000   0.000000   1.139612
   41  AR 1 XZ    0.000000   0.000000   0.000000   0.000000   0.000000
   42  AR 1 YZ    0.000000   0.000000   0.000000   0.000000   0.000000
   43  AR 1 XX    0.732891   0.000000   0.443989  -0.769012   0.000000
   44  AR 1 YY   -0.732891   0.000000   0.443989   0.769012   0.000000
   45  AR 1 ZZ    0.000000   0.000000  -0.887979   0.000000   0.000000
   46  AR 1 XY    0.000000   0.000000   0.000000   0.000000  -0.887979
   47  AR 1 XZ    0.000000   0.000000   0.000000   0.000000   0.000000
   48  AR 1 YZ    0.000000   0.000000   0.000000   0.000000   0.000000
   49  AR 1 XXX   0.000000   0.000000   0.000000   0.000000   0.000000
   50  AR 1 YYY   0.000000   0.000000   0.000000   0.000000   0.000000
   51  AR 1 ZZZ   0.000000   0.000000   0.000000   0.000000   0.000000
   52  AR 1 XXY   0.000000   0.000000   0.000000   0.000000   0.000000
   53  AR 1 XXZ   0.000000   0.000000   0.000000   0.000000   0.000000
   54  AR 1 YYX   0.000000   0.000000   0.000000   0.000000   0.000000
   55  AR 1 YYZ   0.000000   0.000000   0.000000   0.000000   0.000000
   56  AR 1 ZZX   0.000000   0.000000   0.000000   0.000000   0.000000
   57  AR 1 ZZY   0.000000   0.000000   0.000000   0.000000   0.000000
   58  AR 1 XYZ   0.000000   0.000000   0.000000   0.000000   0.000000
   59  AR 1 XXX   0.000000   0.000000   0.000000   0.000000   0.000000
   60  AR 1 YYY   0.000000   0.000000   0.000000   0.000000   0.000000
   61  AR 1 ZZZ   0.000000   0.000000   0.000000   0.000000   0.000000
   62  AR 1 XXY   0.000000   0.000000   0.000000   0.000000   0.000000
   63  AR 1 XXZ   0.000000   0.000000   0.000000   0.000000   0.000000
   64  AR 1 YYX   0.000000   0.000000   0.000000   0.000000   0.000000
   65  AR 1 YYZ   0.000000   0.000000   0.000000   0.000000   0.000000
   66  AR 1 ZZX   0.000000   0.000000   0.000000   0.000000   0.000000
   67  AR 1 ZZY   0.000000   0.000000   0.000000   0.000000   0.000000
   68  AR 1 XYZ   0.000000   0.000000   0.000000   0.000000   0.000000

                     21         22         23         24         25
                    2.3378     2.3378     2.9122     2.9122     2.9122
                     A          A          A          A          A   
    1  AR 1  S    0.000000   0.000000   0.000000   0.000000   0.000000
    2  AR 1  S    0.000000   0.000000   0.000000   0.000000   0.000000
    3  AR 1  S    0.000000   0.000000   0.000000   0.000000   0.000000
    4  AR 1  S    0.000000   0.000000   0.000000   0.000000   0.000000
    5  AR 1  S    0.000000   0.000000   0.000000   0.000000   0.000000
    6  AR 1  S    0.000000   0.000000   0.000000   0.000000   0.000000
    7  AR 1  X    0.000000   0.000000   0.000000   0.000000   0.000000
    8  AR 1  Y    0.000000   0.000000   0.000000   0.000000   0.000000
    9  AR 1  Z    0.000000   0.000000   0.000000   0.000000   0.000000
   10  AR 1  X    0.000000   0.000000   0.000000   0.000000   0.000000
   11  AR 1  Y    0.000000   0.000000   0.000000   0.000000   0.000000
   12  AR 1  Z    0.000000   0.000000   0.000000   0.000000   0.000000
   13  AR 1  X    0.000000   0.000000   0.000000   0.000000   0.000000
   14  AR 1  Y    0.000000   0.000000   0.000000   0.000000   0.000000
   15  AR 1  Z    0.000000   0.000000   0.000000   0.000000   0.000000
   16  AR 1  X    0.000000   0.000000   0.000000   0.000000   0.000000
   17  AR 1  Y    0.000000   0.000000   0.000000   0.000000   0.000000
   18  AR 1  Z    0.000000   0.000000   0.000000   0.000000   0.000000
   19  AR 1  X    0.000000   0.000000   0.000000   0.000000   0.000000
   20  AR 1  Y    0.000000   0.000000   0.000000   0.000000   0.000000
   21  AR 1  Z    0.000000   0.000000   0.000000   0.000000   0.000000
   22  AR 1  X    0.000000   0.000000   0.000000   0.000000   0.000000
   23  AR 1  Y    0.000000   0.000000   0.000000   0.000000   0.000000
   24  AR 1  Z    0.000000   0.000000   0.000000   0.000000   0.000000
   25  AR 1 XX    0.000000   0.000000   0.000000   0.000000   0.000000
   26  AR 1 YY    0.000000   0.000000   0.000000   0.000000   0.000000
   27  AR 1 ZZ    0.000000   0.000000   0.000000   0.000000   0.000000
   28  AR 1 XY    0.000000   0.000000   0.000000   0.000000   0.000000
   29  AR 1 XZ    0.000000   0.016967   0.000000   0.000000   0.000000
   30  AR 1 YZ    0.016967   0.000000   0.000000   0.000000   0.000000
   31  AR 1 XX    0.000000   0.000000   0.000000   0.000000   0.000000
   32  AR 1 YY    0.000000   0.000000   0.000000   0.000000   0.000000
   33  AR 1 ZZ    0.000000   0.000000   0.000000   0.000000   0.000000
   34  AR 1 XY    0.000000   0.000000   0.000000   0.000000   0.000000
   35  AR 1 XZ    0.000000   0.139441   0.000000   0.000000   0.000000
   36  AR 1 YZ    0.139441   0.000000   0.000000   0.000000   0.000000
   37  AR 1 XX    0.000000   0.000000   0.000000   0.000000   0.000000
   38  AR 1 YY    0.000000   0.000000   0.000000   0.000000   0.000000
   39  AR 1 ZZ    0.000000   0.000000   0.000000   0.000000   0.000000
   40  AR 1 XY    0.000000   0.000000   0.000000   0.000000   0.000000
   41  AR 1 XZ    0.000000   1.139612   0.000000   0.000000   0.000000
   42  AR 1 YZ    1.139612   0.000000   0.000000   0.000000   0.000000
   43  AR 1 XX    0.000000   0.000000   0.000000   0.000000   0.000000
   44  AR 1 YY    0.000000   0.000000   0.000000   0.000000   0.000000
   45  AR 1 ZZ    0.000000   0.000000   0.000000   0.000000   0.000000
   46  AR 1 XY    0.000000   0.000000   0.000000   0.000000   0.000000
   47  AR 1 XZ    0.000000  -0.887979   0.000000   0.000000   0.000000
   48  AR 1 YZ   -0.887979   0.000000   0.000000   0.000000   0.000000
   49  AR 1 XXX   0.000000   0.000000   0.000000   0.000000   0.000000
   50  AR 1 YYY   0.000000   0.000000   0.000000   0.000000  -0.003591
   51  AR 1 ZZZ   0.000000   0.000000   0.000000   0.000000   0.000000
   52  AR 1 XXY   0.000000   0.000000   0.000000   0.000000  -0.001606
   53  AR 1 XXZ   0.000000   0.000000   0.005078   0.000000   0.000000
   54  AR 1 YYX   0.000000   0.000000   0.000000   0.000000   0.000000
   55  AR 1 YYZ   0.000000   0.000000  -0.005078   0.000000   0.000000
   56  AR 1 ZZX   0.000000   0.000000   0.000000   0.000000   0.000000
   57  AR 1 ZZY   0.000000   0.000000   0.000000   0.000000   0.006423
   58  AR 1 XYZ   0.000000   0.000000   0.000000   0.005864   0.000000
   59  AR 1 XXX   0.000000   0.000000   0.000000   0.000000   0.000000
   60  AR 1 YYY   0.000000   0.000000   0.000000   0.000000  -0.612242
   61  AR 1 ZZZ   0.000000   0.000000   0.000000   0.000000   0.000000
   62  AR 1 XXY   0.000000   0.000000   0.000000   0.000000  -0.273803
   63  AR 1 XXZ   0.000000   0.000000   0.865841   0.000000   0.000000
   64  AR 1 YYX   0.000000   0.000000   0.000000   0.000000   0.000000
   65  AR 1 YYZ   0.000000   0.000000  -0.865841   0.000000   0.000000
   66  AR 1 ZZX   0.000000   0.000000   0.000000   0.000000   0.000000
   67  AR 1 ZZY   0.000000   0.000000   0.000000   0.000000   1.095212
   68  AR 1 XYZ   0.000000   0.000000   0.000000   0.999787   0.000000

                     26         27         28         29         30
                    2.9122     2.9122     2.9122     2.9122     3.1905
                     A          A          A          A          A   
    1  AR 1  S    0.000000   0.000000   0.000000   0.000000   0.000000
    2  AR 1  S    0.000000   0.000000   0.000000   0.000000   0.000000
    3  AR 1  S    0.000000   0.000000   0.000000   0.000000   0.000000
    4  AR 1  S    0.000000   0.000000   0.000000   0.000000   0.000000
    5  AR 1  S    0.000000   0.000000   0.000000   0.000000   0.000000
    6  AR 1  S    0.000000   0.000000   0.000000   0.000000   0.000000
    7  AR 1  X    0.000000   0.000000   0.000000   0.000000  -1.671560
    8  AR 1  Y    0.000000   0.000000   0.000000   0.000000   0.000000
    9  AR 1  Z    0.000000   0.000000   0.000000   0.000000   0.000000
   10  AR 1  X    0.000000   0.000000   0.000000   0.000000   4.082699
   11  AR 1  Y    0.000000   0.000000   0.000000   0.000000   0.000000
   12  AR 1  Z    0.000000   0.000000   0.000000   0.000000   0.000000
   13  AR 1  X    0.000000   0.000000   0.000000   0.000000   0.030213
   14  AR 1  Y    0.000000   0.000000   0.000000   0.000000   0.000000
   15  AR 1  Z    0.000000   0.000000   0.000000   0.000000   0.000000
   16  AR 1  X    0.000000   0.000000   0.000000   0.000000  -0.285705
   17  AR 1  Y    0.000000   0.000000   0.000000   0.000000   0.000000
   18  AR 1  Z    0.000000   0.000000   0.000000   0.000000   0.000000
   19  AR 1  X    0.000000   0.000000   0.000000   0.000000   3.324415
   20  AR 1  Y    0.000000   0.000000   0.000000   0.000000   0.000000
   21  AR 1  Z    0.000000   0.000000   0.000000   0.000000   0.000000
   22  AR 1  X    0.000000   0.000000   0.000000   0.000000   2.332976
   23  AR 1  Y    0.000000   0.000000   0.000000   0.000000   0.000000
   24  AR 1  Z    0.000000   0.000000   0.000000   0.000000   0.000000
   25  AR 1 XX    0.000000   0.000000   0.000000   0.000000   0.000000
   26  AR 1 YY    0.000000   0.000000   0.000000   0.000000   0.000000
   27  AR 1 ZZ    0.000000   0.000000   0.000000   0.000000   0.000000
   28  AR 1 XY    0.000000   0.000000   0.000000   0.000000   0.000000
   29  AR 1 XZ    0.000000   0.000000   0.000000   0.000000   0.000000
   30  AR 1 YZ    0.000000   0.000000   0.000000   0.000000   0.000000
   31  AR 1 XX    0.000000   0.000000   0.000000   0.000000   0.000000
   32  AR 1 YY    0.000000   0.000000   0.000000   0.000000   0.000000
   33  AR 1 ZZ    0.000000   0.000000   0.000000   0.000000   0.000000
   34  AR 1 XY    0.000000   0.000000   0.000000   0.000000   0.000000
   35  AR 1 XZ    0.000000   0.000000   0.000000   0.000000   0.000000
   36  AR 1 YZ    0.000000   0.000000   0.000000   0.000000   0.000000
   37  AR 1 XX    0.000000   0.000000   0.000000   0.000000   0.000000
   38  AR 1 YY    0.000000   0.000000   0.000000   0.000000   0.000000
   39  AR 1 ZZ    0.000000   0.000000   0.000000   0.000000   0.000000
   40  AR 1 XY    0.000000   0.000000   0.000000   0.000000   0.000000
   41  AR 1 XZ    0.000000   0.000000   0.000000   0.000000   0.000000
   42  AR 1 YZ    0.000000   0.000000   0.000000   0.000000   0.000000
   43  AR 1 XX    0.000000   0.000000   0.000000   0.000000   0.000000
   44  AR 1 YY    0.000000   0.000000   0.000000   0.000000   0.000000
   45  AR 1 ZZ    0.000000   0.000000   0.000000   0.000000   0.000000
   46  AR 1 XY    0.000000   0.000000   0.000000   0.000000   0.000000
   47  AR 1 XZ    0.000000   0.000000   0.000000   0.000000   0.000000
   48  AR 1 YZ    0.000000   0.000000   0.000000   0.000000   0.000000
   49  AR 1 XXX   0.000000  -0.003591   0.000000  -0.004636   0.000000
   50  AR 1 YYY  -0.004636   0.000000   0.000000   0.000000   0.000000
   51  AR 1 ZZZ   0.000000   0.000000   0.005864   0.000000   0.000000
   52  AR 1 XXY   0.006219   0.000000   0.000000   0.000000   0.000000
   53  AR 1 XXZ   0.000000   0.000000  -0.003933   0.000000   0.000000
   54  AR 1 YYX   0.000000  -0.001606   0.000000   0.006219   0.000000
   55  AR 1 YYZ   0.000000   0.000000  -0.003933   0.000000   0.000000
   56  AR 1 ZZX   0.000000   0.006423   0.000000   0.000000   0.000000
   57  AR 1 ZZY   0.000000   0.000000   0.000000   0.000000   0.000000
   58  AR 1 XYZ   0.000000   0.000000   0.000000   0.000000   0.000000
   59  AR 1 XXX   0.000000  -0.612242   0.000000  -0.790401   0.000000
   60  AR 1 YYY  -0.790401   0.000000   0.000000   0.000000   0.000000
   61  AR 1 ZZZ   0.000000   0.000000   0.999787   0.000000   0.000000
   62  AR 1 XXY   1.060434   0.000000   0.000000   0.000000   0.000000
   63  AR 1 XXZ   0.000000   0.000000  -0.670678   0.000000   0.000000
   64  AR 1 YYX   0.000000  -0.273803   0.000000   1.060434   0.000000
   65  AR 1 YYZ   0.000000   0.000000  -0.670678   0.000000   0.000000
   66  AR 1 ZZX   0.000000   1.095212   0.000000   0.000000   0.000000
   67  AR 1 ZZY   0.000000   0.000000   0.000000   0.000000   0.000000
   68  AR 1 XYZ   0.000000   0.000000   0.000000   0.000000   0.000000

                     31         32         33         34         35
                    3.1905     3.1905     4.5259    11.4609    11.4609
                     A          A          A          A          A   
    1  AR 1  S    0.000000   0.000000   2.868718   0.000000   0.000000
    2  AR 1  S    0.000000   0.000000   6.831560   0.000000   0.000000
    3  AR 1  S    0.000000   0.000000  -0.036446   0.000000   0.000000
    4  AR 1  S    0.000000   0.000000   3.312587   0.000000   0.000000
    5  AR 1  S    0.000000   0.000000  -5.525518   0.000000   0.000000
    6  AR 1  S    0.000000   0.000000  -4.809328   0.000000   0.000000
    7  AR 1  X    0.000000   0.000000   0.000000   0.000000   0.000000
    8  AR 1  Y   -1.671560   0.000000   0.000000   0.000000   0.000000
    9  AR 1  Z    0.000000  -1.671560   0.000000   0.000000   0.000000
   10  AR 1  X    0.000000   0.000000   0.000000   0.000000   0.000000
   11  AR 1  Y    4.082699   0.000000   0.000000   0.000000   0.000000
   12  AR 1  Z    0.000000   4.082699   0.000000   0.000000   0.000000
   13  AR 1  X    0.000000   0.000000   0.000000   0.000000   0.000000
   14  AR 1  Y    0.030213   0.000000   0.000000   0.000000   0.000000
   15  AR 1  Z    0.000000   0.030213   0.000000   0.000000   0.000000
   16  AR 1  X    0.000000   0.000000   0.000000   0.000000   0.000000
   17  AR 1  Y   -0.285705   0.000000   0.000000   0.000000   0.000000
   18  AR 1  Z    0.000000  -0.285705   0.000000   0.000000   0.000000
   19  AR 1  X    0.000000   0.000000   0.000000   0.000000   0.000000
   20  AR 1  Y    3.324415   0.000000   0.000000   0.000000   0.000000
   21  AR 1  Z    0.000000   3.324415   0.000000   0.000000   0.000000
   22  AR 1  X    0.000000   0.000000   0.000000   0.000000   0.000000
   23  AR 1  Y    2.332976   0.000000   0.000000   0.000000   0.000000
   24  AR 1  Z    0.000000   2.332976   0.000000   0.000000   0.000000
   25  AR 1 XX    0.000000   0.000000   0.000000   0.000000   0.000000
   26  AR 1 YY    0.000000   0.000000   0.000000   0.000000   0.000000
   27  AR 1 ZZ    0.000000   0.000000   0.000000   0.000000   0.000000
   28  AR 1 XY    0.000000   0.000000   0.000000   0.000000   0.000000
   29  AR 1 XZ    0.000000   0.000000   0.000000   0.030270   0.000000
   30  AR 1 YZ    0.000000   0.000000   0.000000   0.000000   0.030270
   31  AR 1 XX    0.000000   0.000000   0.000000   0.000000   0.000000
   32  AR 1 YY    0.000000   0.000000   0.000000   0.000000   0.000000
   33  AR 1 ZZ    0.000000   0.000000   0.000000   0.000000   0.000000
   34  AR 1 XY    0.000000   0.000000   0.000000   0.000000   0.000000
   35  AR 1 XZ    0.000000   0.000000   0.000000   1.041854   0.000000
   36  AR 1 YZ    0.000000   0.000000   0.000000   0.000000   1.041854
   37  AR 1 XX    0.000000   0.000000   0.000000   0.000000   0.000000
   38  AR 1 YY    0.000000   0.000000   0.000000   0.000000   0.000000
   39  AR 1 ZZ    0.000000   0.000000   0.000000   0.000000   0.000000
   40  AR 1 XY    0.000000   0.000000   0.000000   0.000000   0.000000
   41  AR 1 XZ    0.000000   0.000000   0.000000  -0.650700   0.000000
   42  AR 1 YZ    0.000000   0.000000   0.000000   0.000000  -0.650700
   43  AR 1 XX    0.000000   0.000000   0.000000   0.000000   0.000000
   44  AR 1 YY    0.000000   0.000000   0.000000   0.000000   0.000000
   45  AR 1 ZZ    0.000000   0.000000   0.000000   0.000000   0.000000
   46  AR 1 XY    0.000000   0.000000   0.000000   0.000000   0.000000
   47  AR 1 XZ    0.000000   0.000000   0.000000   0.284579   0.000000
   48  AR 1 YZ    0.000000   0.000000   0.000000   0.000000   0.284579
   49  AR 1 XXX   0.000000   0.000000   0.000000   0.000000   0.000000
   50  AR 1 YYY   0.000000   0.000000   0.000000   0.000000   0.000000
   51  AR 1 ZZZ   0.000000   0.000000   0.000000   0.000000   0.000000
   52  AR 1 XXY   0.000000   0.000000   0.000000   0.000000   0.000000
   53  AR 1 XXZ   0.000000   0.000000   0.000000   0.000000   0.000000
   54  AR 1 YYX   0.000000   0.000000   0.000000   0.000000   0.000000
   55  AR 1 YYZ   0.000000   0.000000   0.000000   0.000000   0.000000
   56  AR 1 ZZX   0.000000   0.000000   0.000000   0.000000   0.000000
   57  AR 1 ZZY   0.000000   0.000000   0.000000   0.000000   0.000000
   58  AR 1 XYZ   0.000000   0.000000   0.000000   0.000000   0.000000
   59  AR 1 XXX   0.000000   0.000000   0.000000   0.000000   0.000000
   60  AR 1 YYY   0.000000   0.000000   0.000000   0.000000   0.000000
   61  AR 1 ZZZ   0.000000   0.000000   0.000000   0.000000   0.000000
   62  AR 1 XXY   0.000000   0.000000   0.000000   0.000000   0.000000
   63  AR 1 XXZ   0.000000   0.000000   0.000000   0.000000   0.000000
   64  AR 1 YYX   0.000000   0.000000   0.000000   0.000000   0.000000
   65  AR 1 YYZ   0.000000   0.000000   0.000000   0.000000   0.000000
   66  AR 1 ZZX   0.000000   0.000000   0.000000   0.000000   0.000000
   67  AR 1 ZZY   0.000000   0.000000   0.000000   0.000000   0.000000
   68  AR 1 XYZ   0.000000   0.000000   0.000000   0.000000   0.000000

                     36         37         38         39         40
                   11.4609    11.4609    11.4609    14.5019    14.5019
                     A          A          A          A          A   
    1  AR 1  S    0.000000   0.000000   0.000000   0.000000   0.000000
    2  AR 1  S    0.000000   0.000000   0.000000   0.000000   0.000000
    3  AR 1  S    0.000000   0.000000   0.000000   0.000000   0.000000
    4  AR 1  S    0.000000   0.000000   0.000000   0.000000   0.000000
    5  AR 1  S    0.000000   0.000000   0.000000   0.000000   0.000000
    6  AR 1  S    0.000000   0.000000   0.000000   0.000000   0.000000
    7  AR 1  X    0.000000   0.000000   0.000000  -0.129459   0.000000
    8  AR 1  Y    0.000000   0.000000   0.000000   0.000000   0.000000
    9  AR 1  Z    0.000000   0.000000   0.000000   0.000000  -0.129459
   10  AR 1  X    0.000000   0.000000   0.000000  -1.878037   0.000000
   11  AR 1  Y    0.000000   0.000000   0.000000   0.000000   0.000000
   12  AR 1  Z    0.000000   0.000000   0.000000   0.000000  -1.878037
   13  AR 1  X    0.000000   0.000000   0.000000  -1.104327   0.000000
   14  AR 1  Y    0.000000   0.000000   0.000000   0.000000   0.000000
   15  AR 1  Z    0.000000   0.000000   0.000000   0.000000  -1.104327
   16  AR 1  X    0.000000   0.000000   0.000000   2.728891   0.000000
   17  AR 1  Y    0.000000   0.000000   0.000000   0.000000   0.000000
   18  AR 1  Z    0.000000   0.000000   0.000000   0.000000   2.728891
   19  AR 1  X    0.000000   0.000000   0.000000  -2.263369   0.000000
   20  AR 1  Y    0.000000   0.000000   0.000000   0.000000   0.000000
   21  AR 1  Z    0.000000   0.000000   0.000000   0.000000  -2.263369
   22  AR 1  X    0.000000   0.000000   0.000000  -1.012287   0.000000
   23  AR 1  Y    0.000000   0.000000   0.000000   0.000000   0.000000
   24  AR 1  Z    0.000000   0.000000   0.000000   0.000000  -1.012287
   25  AR 1 XX    0.000000   0.026215  -0.015135   0.000000   0.000000
   26  AR 1 YY    0.000000  -0.026215  -0.015135   0.000000   0.000000
   27  AR 1 ZZ    0.000000   0.000000   0.030270   0.000000   0.000000
   28  AR 1 XY    0.030270   0.000000   0.000000   0.000000   0.000000
   29  AR 1 XZ    0.000000   0.000000   0.000000   0.000000   0.000000
   30  AR 1 YZ    0.000000   0.000000   0.000000   0.000000   0.000000
   31  AR 1 XX    0.000000   0.902272  -0.520927   0.000000   0.000000
   32  AR 1 YY    0.000000  -0.902272  -0.520927   0.000000   0.000000
   33  AR 1 ZZ    0.000000   0.000000   1.041854   0.000000   0.000000
   34  AR 1 XY    1.041854   0.000000   0.000000   0.000000   0.000000
   35  AR 1 XZ    0.000000   0.000000   0.000000   0.000000   0.000000
   36  AR 1 YZ    0.000000   0.000000   0.000000   0.000000   0.000000
   37  AR 1 XX    0.000000  -0.563523   0.325350   0.000000   0.000000
   38  AR 1 YY    0.000000   0.563523   0.325350   0.000000   0.000000
   39  AR 1 ZZ    0.000000   0.000000  -0.650700   0.000000   0.000000
   40  AR 1 XY   -0.650700   0.000000   0.000000   0.000000   0.000000
   41  AR 1 XZ    0.000000   0.000000   0.000000   0.000000   0.000000
   42  AR 1 YZ    0.000000   0.000000   0.000000   0.000000   0.000000
   43  AR 1 XX    0.000000   0.246452  -0.142289   0.000000   0.000000
   44  AR 1 YY    0.000000  -0.246452  -0.142289   0.000000   0.000000
   45  AR 1 ZZ    0.000000   0.000000   0.284579   0.000000   0.000000
   46  AR 1 XY    0.284579   0.000000   0.000000   0.000000   0.000000
   47  AR 1 XZ    0.000000   0.000000   0.000000   0.000000   0.000000
   48  AR 1 YZ    0.000000   0.000000   0.000000   0.000000   0.000000
   49  AR 1 XXX   0.000000   0.000000   0.000000   0.000000   0.000000
   50  AR 1 YYY   0.000000   0.000000   0.000000   0.000000   0.000000
   51  AR 1 ZZZ   0.000000   0.000000   0.000000   0.000000   0.000000
   52  AR 1 XXY   0.000000   0.000000   0.000000   0.000000   0.000000
   53  AR 1 XXZ   0.000000   0.000000   0.000000   0.000000   0.000000
   54  AR 1 YYX   0.000000   0.000000   0.000000   0.000000   0.000000
   55  AR 1 YYZ   0.000000   0.000000   0.000000   0.000000   0.000000
   56  AR 1 ZZX   0.000000   0.000000   0.000000   0.000000   0.000000
   57  AR 1 ZZY   0.000000   0.000000   0.000000   0.000000   0.000000
   58  AR 1 XYZ   0.000000   0.000000   0.000000   0.000000   0.000000
   59  AR 1 XXX   0.000000   0.000000   0.000000   0.000000   0.000000
   60  AR 1 YYY   0.000000   0.000000   0.000000   0.000000   0.000000
   61  AR 1 ZZZ   0.000000   0.000000   0.000000   0.000000   0.000000
   62  AR 1 XXY   0.000000   0.000000   0.000000   0.000000   0.000000
   63  AR 1 XXZ   0.000000   0.000000   0.000000   0.000000   0.000000
   64  AR 1 YYX   0.000000   0.000000   0.000000   0.000000   0.000000
   65  AR 1 YYZ   0.000000   0.000000   0.000000   0.000000   0.000000
   66  AR 1 ZZX   0.000000   0.000000   0.000000   0.000000   0.000000
   67  AR 1 ZZY   0.000000   0.000000   0.000000   0.000000   0.000000
   68  AR 1 XYZ   0.000000   0.000000   0.000000   0.000000   0.000000

                     41         42         43         44         45
                   14.5019    25.2804    43.8707    43.8707    43.8707
                     A          A          A          A          A   
    1  AR 1  S    0.000000  -4.387167   0.000000   0.000000   0.000000
    2  AR 1  S    0.000000   3.189335   0.000000   0.000000   0.000000
    3  AR 1  S    0.000000  -1.656719   0.000000   0.000000   0.000000
    4  AR 1  S    0.000000   8.714178   0.000000   0.000000   0.000000
    5  AR 1  S    0.000000  -3.124566   0.000000   0.000000   0.000000
    6  AR 1  S    0.000000  -2.141682   0.000000   0.000000   0.000000
    7  AR 1  X    0.000000   0.000000   0.000000   0.000000   0.000000
    8  AR 1  Y   -0.129459   0.000000   0.000000   0.000000   0.000000
    9  AR 1  Z    0.000000   0.000000   0.000000   0.000000   0.000000
   10  AR 1  X    0.000000   0.000000   0.000000   0.000000   0.000000
   11  AR 1  Y   -1.878037   0.000000   0.000000   0.000000   0.000000
   12  AR 1  Z    0.000000   0.000000   0.000000   0.000000   0.000000
   13  AR 1  X    0.000000   0.000000   0.000000   0.000000   0.000000
   14  AR 1  Y   -1.104327   0.000000   0.000000   0.000000   0.000000
   15  AR 1  Z    0.000000   0.000000   0.000000   0.000000   0.000000
   16  AR 1  X    0.000000   0.000000   0.000000   0.000000   0.000000
   17  AR 1  Y    2.728891   0.000000   0.000000   0.000000   0.000000
   18  AR 1  Z    0.000000   0.000000   0.000000   0.000000   0.000000
   19  AR 1  X    0.000000   0.000000   0.000000   0.000000   0.000000
   20  AR 1  Y   -2.263369   0.000000   0.000000   0.000000   0.000000
   21  AR 1  Z    0.000000   0.000000   0.000000   0.000000   0.000000
   22  AR 1  X    0.000000   0.000000   0.000000   0.000000   0.000000
   23  AR 1  Y   -1.012287   0.000000   0.000000   0.000000   0.000000
   24  AR 1  Z    0.000000   0.000000   0.000000   0.000000   0.000000
   25  AR 1 XX    0.000000   0.000000   0.000000   0.000000   0.000000
   26  AR 1 YY    0.000000   0.000000   0.000000   0.000000   0.000000
   27  AR 1 ZZ    0.000000   0.000000   0.000000   0.000000   0.000000
   28  AR 1 XY    0.000000   0.000000   0.000000   0.000000   0.000000
   29  AR 1 XZ    0.000000   0.000000   0.000000   0.000000   0.000000
   30  AR 1 YZ    0.000000   0.000000   0.000000   0.000000   0.000000
   31  AR 1 XX    0.000000   0.000000   0.000000   0.000000   0.000000
   32  AR 1 YY    0.000000   0.000000   0.000000   0.000000   0.000000
   33  AR 1 ZZ    0.000000   0.000000   0.000000   0.000000   0.000000
   34  AR 1 XY    0.000000   0.000000   0.000000   0.000000   0.000000
   35  AR 1 XZ    0.000000   0.000000   0.000000   0.000000   0.000000
   36  AR 1 YZ    0.000000   0.000000   0.000000   0.000000   0.000000
   37  AR 1 XX    0.000000   0.000000   0.000000   0.000000   0.000000
   38  AR 1 YY    0.000000   0.000000   0.000000   0.000000   0.000000
   39  AR 1 ZZ    0.000000   0.000000   0.000000   0.000000   0.000000
   40  AR 1 XY    0.000000   0.000000   0.000000   0.000000   0.000000
   41  AR 1 XZ    0.000000   0.000000   0.000000   0.000000   0.000000
   42  AR 1 YZ    0.000000   0.000000   0.000000   0.000000   0.000000
   43  AR 1 XX    0.000000   0.000000   0.000000   0.000000   0.000000
   44  AR 1 YY    0.000000   0.000000   0.000000   0.000000   0.000000
   45  AR 1 ZZ    0.000000   0.000000   0.000000   0.000000   0.000000
   46  AR 1 XY    0.000000   0.000000   0.000000   0.000000   0.000000
   47  AR 1 XZ    0.000000   0.000000   0.000000   0.000000   0.000000
   48  AR 1 YZ    0.000000   0.000000   0.000000   0.000000   0.000000
   49  AR 1 XXX   0.000000   0.000000   0.000000   0.000000  -0.790997
   50  AR 1 YYY   0.000000   0.000000  -0.790997  -0.612704   0.000000
   51  AR 1 ZZZ   0.000000   0.000000   0.000000   0.000000   0.000000
   52  AR 1 XXY   0.000000   0.000000   1.061234  -0.274009   0.000000
   53  AR 1 XXZ   0.000000   0.000000   0.000000   0.000000   0.000000
   54  AR 1 YYX   0.000000   0.000000   0.000000   0.000000   1.061234
   55  AR 1 YYZ   0.000000   0.000000   0.000000   0.000000   0.000000
   56  AR 1 ZZX   0.000000   0.000000   0.000000   0.000000   0.000000
   57  AR 1 ZZY   0.000000   0.000000   0.000000   1.096037   0.000000
   58  AR 1 XYZ   0.000000   0.000000   0.000000   0.000000   0.000000
   59  AR 1 XXX   0.000000   0.000000   0.000000   0.000000   0.031043
   60  AR 1 YYY   0.000000   0.000000   0.031043   0.024046   0.000000
   61  AR 1 ZZZ   0.000000   0.000000   0.000000   0.000000   0.000000
   62  AR 1 XXY   0.000000   0.000000  -0.041649   0.010754   0.000000
   63  AR 1 XXZ   0.000000   0.000000   0.000000   0.000000   0.000000
   64  AR 1 YYX   0.000000   0.000000   0.000000   0.000000  -0.041649
   65  AR 1 YYZ   0.000000   0.000000   0.000000   0.000000   0.000000
   66  AR 1 ZZX   0.000000   0.000000   0.000000   0.000000   0.000000
   67  AR 1 ZZY   0.000000   0.000000   0.000000  -0.043015   0.000000
   68  AR 1 XYZ   0.000000   0.000000   0.000000   0.000000   0.000000

                     46         47         48         49         50
                   43.8707    43.8707    43.8707    43.8707    51.9776
                     A          A          A          A          A   
    1  AR 1  S    0.000000   0.000000   0.000000   0.000000   0.000000
    2  AR 1  S    0.000000   0.000000   0.000000   0.000000   0.000000
    3  AR 1  S    0.000000   0.000000   0.000000   0.000000   0.000000
    4  AR 1  S    0.000000   0.000000   0.000000   0.000000   0.000000
    5  AR 1  S    0.000000   0.000000   0.000000   0.000000   0.000000
    6  AR 1  S    0.000000   0.000000   0.000000   0.000000   0.000000
    7  AR 1  X    0.000000   0.000000   0.000000   0.000000   0.000000
    8  AR 1  Y    0.000000   0.000000   0.000000   0.000000   0.000000
    9  AR 1  Z    0.000000   0.000000   0.000000   0.000000   0.000000
   10  AR 1  X    0.000000   0.000000   0.000000   0.000000   0.000000
   11  AR 1  Y    0.000000   0.000000   0.000000   0.000000   0.000000
   12  AR 1  Z    0.000000   0.000000   0.000000   0.000000   0.000000
   13  AR 1  X    0.000000   0.000000   0.000000   0.000000   0.000000
   14  AR 1  Y    0.000000   0.000000   0.000000   0.000000   0.000000
   15  AR 1  Z    0.000000   0.000000   0.000000   0.000000   0.000000
   16  AR 1  X    0.000000   0.000000   0.000000   0.000000   0.000000
   17  AR 1  Y    0.000000   0.000000   0.000000   0.000000   0.000000
   18  AR 1  Z    0.000000   0.000000   0.000000   0.000000   0.000000
   19  AR 1  X    0.000000   0.000000   0.000000   0.000000   0.000000
   20  AR 1  Y    0.000000   0.000000   0.000000   0.000000   0.000000
   21  AR 1  Z    0.000000   0.000000   0.000000   0.000000   0.000000
   22  AR 1  X    0.000000   0.000000   0.000000   0.000000   0.000000
   23  AR 1  Y    0.000000   0.000000   0.000000   0.000000   0.000000
   24  AR 1  Z    0.000000   0.000000   0.000000   0.000000   0.000000
   25  AR 1 XX    0.000000   0.000000   0.000000   0.000000   1.075539
   26  AR 1 YY    0.000000   0.000000   0.000000   0.000000  -1.075539
   27  AR 1 ZZ    0.000000   0.000000   0.000000   0.000000   0.000000
   28  AR 1 XY    0.000000   0.000000   0.000000   0.000000   0.000000
   29  AR 1 XZ    0.000000   0.000000   0.000000   0.000000   0.000000
   30  AR 1 YZ    0.000000   0.000000   0.000000   0.000000   0.000000
   31  AR 1 XX    0.000000   0.000000   0.000000   0.000000  -0.704375
   32  AR 1 YY    0.000000   0.000000   0.000000   0.000000   0.704375
   33  AR 1 ZZ    0.000000   0.000000   0.000000   0.000000   0.000000
   34  AR 1 XY    0.000000   0.000000   0.000000   0.000000   0.000000
   35  AR 1 XZ    0.000000   0.000000   0.000000   0.000000   0.000000
   36  AR 1 YZ    0.000000   0.000000   0.000000   0.000000   0.000000
   37  AR 1 XX    0.000000   0.000000   0.000000   0.000000   0.204572
   38  AR 1 YY    0.000000   0.000000   0.000000   0.000000  -0.204572
   39  AR 1 ZZ    0.000000   0.000000   0.000000   0.000000   0.000000
   40  AR 1 XY    0.000000   0.000000   0.000000   0.000000   0.000000
   41  AR 1 XZ    0.000000   0.000000   0.000000   0.000000   0.000000
   42  AR 1 YZ    0.000000   0.000000   0.000000   0.000000   0.000000
   43  AR 1 XX    0.000000   0.000000   0.000000   0.000000  -0.083630
   44  AR 1 YY    0.000000   0.000000   0.000000   0.000000   0.083630
   45  AR 1 ZZ    0.000000   0.000000   0.000000   0.000000   0.000000
   46  AR 1 XY    0.000000   0.000000   0.000000   0.000000   0.000000
   47  AR 1 XZ    0.000000   0.000000   0.000000   0.000000   0.000000
   48  AR 1 YZ    0.000000   0.000000   0.000000   0.000000   0.000000
   49  AR 1 XXX   0.000000   0.000000  -0.612704   0.000000   0.000000
   50  AR 1 YYY   0.000000   0.000000   0.000000   0.000000   0.000000
   51  AR 1 ZZZ   0.000000   1.000541   0.000000   0.000000   0.000000
   52  AR 1 XXY   0.000000   0.000000   0.000000   0.000000   0.000000
   53  AR 1 XXZ   0.000000  -0.671183   0.000000   0.866494   0.000000
   54  AR 1 YYX   0.000000   0.000000  -0.274009   0.000000   0.000000
   55  AR 1 YYZ   0.000000  -0.671183   0.000000  -0.866494   0.000000
   56  AR 1 ZZX   0.000000   0.000000   1.096037   0.000000   0.000000
   57  AR 1 ZZY   0.000000   0.000000   0.000000   0.000000   0.000000
   58  AR 1 XYZ   1.000541   0.000000   0.000000   0.000000   0.000000
   59  AR 1 XXX   0.000000   0.000000   0.024046   0.000000   0.000000
   60  AR 1 YYY   0.000000   0.000000   0.000000   0.000000   0.000000
   61  AR 1 ZZZ   0.000000  -0.039267   0.000000   0.000000   0.000000
   62  AR 1 XXY   0.000000   0.000000   0.000000   0.000000   0.000000
   63  AR 1 XXZ   0.000000   0.026341   0.000000  -0.034006   0.000000
   64  AR 1 YYX   0.000000   0.000000   0.010754   0.000000   0.000000
   65  AR 1 YYZ   0.000000   0.026341   0.000000   0.034006   0.000000
   66  AR 1 ZZX   0.000000   0.000000  -0.043015   0.000000   0.000000
   67  AR 1 ZZY   0.000000   0.000000   0.000000   0.000000   0.000000
   68  AR 1 XYZ  -0.039267   0.000000   0.000000   0.000000   0.000000

                     51         52         53         54         55
                   51.9776    51.9776    51.9776    51.9776    58.5348
                     A          A          A          A          A   
    1  AR 1  S    0.000000   0.000000   0.000000   0.000000   0.000000
    2  AR 1  S    0.000000   0.000000   0.000000   0.000000   0.000000
    3  AR 1  S    0.000000   0.000000   0.000000   0.000000   0.000000
    4  AR 1  S    0.000000   0.000000   0.000000   0.000000   0.000000
    5  AR 1  S    0.000000   0.000000   0.000000   0.000000   0.000000
    6  AR 1  S    0.000000   0.000000   0.000000   0.000000   0.000000
    7  AR 1  X    0.000000   0.000000   0.000000   0.000000   0.000000
    8  AR 1  Y    0.000000   0.000000   0.000000   0.000000   6.754471
    9  AR 1  Z    0.000000   0.000000   0.000000   0.000000   0.000000
   10  AR 1  X    0.000000   0.000000   0.000000   0.000000   0.000000
   11  AR 1  Y    0.000000   0.000000   0.000000   0.000000  -0.963073
   12  AR 1  Z    0.000000   0.000000   0.000000   0.000000   0.000000
   13  AR 1  X    0.000000   0.000000   0.000000   0.000000   0.000000
   14  AR 1  Y    0.000000   0.000000   0.000000   0.000000  -5.204171
   15  AR 1  Z    0.000000   0.000000   0.000000   0.000000   0.000000
   16  AR 1  X    0.000000   0.000000   0.000000   0.000000   0.000000
   17  AR 1  Y    0.000000   0.000000   0.000000   0.000000  -0.997624
   18  AR 1  Z    0.000000   0.000000   0.000000   0.000000   0.000000
   19  AR 1  X    0.000000   0.000000   0.000000   0.000000   0.000000
   20  AR 1  Y    0.000000   0.000000   0.000000   0.000000  -1.644635
   21  AR 1  Z    0.000000   0.000000   0.000000   0.000000   0.000000
   22  AR 1  X    0.000000   0.000000   0.000000   0.000000   0.000000
   23  AR 1  Y    0.000000   0.000000   0.000000   0.000000  -0.517429
   24  AR 1  Z    0.000000   0.000000   0.000000   0.000000   0.000000
   25  AR 1 XX    0.000000   0.000000  -0.620963   0.000000   0.000000
   26  AR 1 YY    0.000000   0.000000  -0.620963   0.000000   0.000000
   27  AR 1 ZZ    0.000000   0.000000   1.241925   0.000000   0.000000
   28  AR 1 XY    1.241925   0.000000   0.000000   0.000000   0.000000
   29  AR 1 XZ    0.000000   1.241925   0.000000   0.000000   0.000000
   30  AR 1 YZ    0.000000   0.000000   0.000000   1.241925   0.000000
   31  AR 1 XX    0.000000   0.000000   0.406671   0.000000   0.000000
   32  AR 1 YY    0.000000   0.000000   0.406671   0.000000   0.000000
   33  AR 1 ZZ    0.000000   0.000000  -0.813342   0.000000   0.000000
   34  AR 1 XY   -0.813342   0.000000   0.000000   0.000000   0.000000
   35  AR 1 XZ    0.000000  -0.813342   0.000000   0.000000   0.000000
   36  AR 1 YZ    0.000000   0.000000   0.000000  -0.813342   0.000000
   37  AR 1 XX    0.000000   0.000000  -0.118110   0.000000   0.000000
   38  AR 1 YY    0.000000   0.000000  -0.118110   0.000000   0.000000
   39  AR 1 ZZ    0.000000   0.000000   0.236219   0.000000   0.000000
   40  AR 1 XY    0.236219   0.000000   0.000000   0.000000   0.000000
   41  AR 1 XZ    0.000000   0.236219   0.000000   0.000000   0.000000
   42  AR 1 YZ    0.000000   0.000000   0.000000   0.236219   0.000000
   43  AR 1 XX    0.000000   0.000000   0.048284   0.000000   0.000000
   44  AR 1 YY    0.000000   0.000000   0.048284   0.000000   0.000000
   45  AR 1 ZZ    0.000000   0.000000  -0.096567   0.000000   0.000000
   46  AR 1 XY   -0.096567   0.000000   0.000000   0.000000   0.000000
   47  AR 1 XZ    0.000000  -0.096567   0.000000   0.000000   0.000000
   48  AR 1 YZ    0.000000   0.000000   0.000000  -0.096567   0.000000
   49  AR 1 XXX   0.000000   0.000000   0.000000   0.000000   0.000000
   50  AR 1 YYY   0.000000   0.000000   0.000000   0.000000   0.000000
   51  AR 1 ZZZ   0.000000   0.000000   0.000000   0.000000   0.000000
   52  AR 1 XXY   0.000000   0.000000   0.000000   0.000000   0.000000
   53  AR 1 XXZ   0.000000   0.000000   0.000000   0.000000   0.000000
   54  AR 1 YYX   0.000000   0.000000   0.000000   0.000000   0.000000
   55  AR 1 YYZ   0.000000   0.000000   0.000000   0.000000   0.000000
   56  AR 1 ZZX   0.000000   0.000000   0.000000   0.000000   0.000000
   57  AR 1 ZZY   0.000000   0.000000   0.000000   0.000000   0.000000
   58  AR 1 XYZ   0.000000   0.000000   0.000000   0.000000   0.000000
   59  AR 1 XXX   0.000000   0.000000   0.000000   0.000000   0.000000
   60  AR 1 YYY   0.000000   0.000000   0.000000   0.000000   0.000000
   61  AR 1 ZZZ   0.000000   0.000000   0.000000   0.000000   0.000000
   62  AR 1 XXY   0.000000   0.000000   0.000000   0.000000   0.000000
   63  AR 1 XXZ   0.000000   0.000000   0.000000   0.000000   0.000000
   64  AR 1 YYX   0.000000   0.000000   0.000000   0.000000   0.000000
   65  AR 1 YYZ   0.000000   0.000000   0.000000   0.000000   0.000000
   66  AR 1 ZZX   0.000000   0.000000   0.000000   0.000000   0.000000
   67  AR 1 ZZY   0.000000   0.000000   0.000000   0.000000   0.000000
   68  AR 1 XYZ   0.000000   0.000000   0.000000   0.000000   0.000000

                     56         57         58
                   58.5348    58.5348   148.0512
                     A          A          A   
    1  AR 1  S    0.000000   0.000000  -7.316741
    2  AR 1  S    0.000000   0.000000   1.319643
    3  AR 1  S    0.000000   0.000000   0.216539
    4  AR 1  S    0.000000   0.000000   8.176827
    5  AR 1  S    0.000000   0.000000  -0.773149
    6  AR 1  S    0.000000   0.000000  -0.886924
    7  AR 1  X    6.754471   0.000000   0.000000
    8  AR 1  Y    0.000000   0.000000   0.000000
    9  AR 1  Z    0.000000   6.754471   0.000000
   10  AR 1  X   -0.963073   0.000000   0.000000
   11  AR 1  Y    0.000000   0.000000   0.000000
   12  AR 1  Z    0.000000  -0.963073   0.000000
   13  AR 1  X   -5.204171   0.000000   0.000000
   14  AR 1  Y    0.000000   0.000000   0.000000
   15  AR 1  Z    0.000000  -5.204171   0.000000
   16  AR 1  X   -0.997624   0.000000   0.000000
   17  AR 1  Y    0.000000   0.000000   0.000000
   18  AR 1  Z    0.000000  -0.997624   0.000000
   19  AR 1  X   -1.644635   0.000000   0.000000
   20  AR 1  Y    0.000000   0.000000   0.000000
   21  AR 1  Z    0.000000  -1.644635   0.000000
   22  AR 1  X   -0.517429   0.000000   0.000000
   23  AR 1  Y    0.000000   0.000000   0.000000
   24  AR 1  Z    0.000000  -0.517429   0.000000
   25  AR 1 XX    0.000000   0.000000   0.000000
   26  AR 1 YY    0.000000   0.000000   0.000000
   27  AR 1 ZZ    0.000000   0.000000   0.000000
   28  AR 1 XY    0.000000   0.000000   0.000000
   29  AR 1 XZ    0.000000   0.000000   0.000000
   30  AR 1 YZ    0.000000   0.000000   0.000000
   31  AR 1 XX    0.000000   0.000000   0.000000
   32  AR 1 YY    0.000000   0.000000   0.000000
   33  AR 1 ZZ    0.000000   0.000000   0.000000
   34  AR 1 XY    0.000000   0.000000   0.000000
   35  AR 1 XZ    0.000000   0.000000   0.000000
   36  AR 1 YZ    0.000000   0.000000   0.000000
   37  AR 1 XX    0.000000   0.000000   0.000000
   38  AR 1 YY    0.000000   0.000000   0.000000
   39  AR 1 ZZ    0.000000   0.000000   0.000000
   40  AR 1 XY    0.000000   0.000000   0.000000
   41  AR 1 XZ    0.000000   0.000000   0.000000
   42  AR 1 YZ    0.000000   0.000000   0.000000
   43  AR 1 XX    0.000000   0.000000   0.000000
   44  AR 1 YY    0.000000   0.000000   0.000000
   45  AR 1 ZZ    0.000000   0.000000   0.000000
   46  AR 1 XY    0.000000   0.000000   0.000000
   47  AR 1 XZ    0.000000   0.000000   0.000000
   48  AR 1 YZ    0.000000   0.000000   0.000000
   49  AR 1 XXX   0.000000   0.000000   0.000000
   50  AR 1 YYY   0.000000   0.000000   0.000000
   51  AR 1 ZZZ   0.000000   0.000000   0.000000
   52  AR 1 XXY   0.000000   0.000000   0.000000
   53  AR 1 XXZ   0.000000   0.000000   0.000000
   54  AR 1 YYX   0.000000   0.000000   0.000000
   55  AR 1 YYZ   0.000000   0.000000   0.000000
   56  AR 1 ZZX   0.000000   0.000000   0.000000
   57  AR 1 ZZY   0.000000   0.000000   0.000000
   58  AR 1 XYZ   0.000000   0.000000   0.000000
   59  AR 1 XXX   0.000000   0.000000   0.000000
   60  AR 1 YYY   0.000000   0.000000   0.000000
   61  AR 1 ZZZ   0.000000   0.000000   0.000000
   62  AR 1 XXY   0.000000   0.000000   0.000000
   63  AR 1 XXZ   0.000000   0.000000   0.000000
   64  AR 1 YYX   0.000000   0.000000   0.000000
   65  AR 1 YYZ   0.000000   0.000000   0.000000
   66  AR 1 ZZX   0.000000   0.000000   0.000000
   67  AR 1 ZZY   0.000000   0.000000   0.000000
   68  AR 1 XYZ   0.000000   0.000000   0.000000
 ...... END OF ROHF CALCULATION ......
 STEP CPU TIME =     0.05 TOTAL CPU TIME =        0.4 (    0.0 MIN)
 TOTAL WALL CLOCK TIME=        0.7 SECONDS, CPU UTILIZATION IS  56.72%

     ----------------------------------------------------------------
     PROPERTY VALUES FOR THE ROHF  SELF-CONSISTENT FIELD WAVEFUNCTION
     ----------------------------------------------------------------

          -----------------
          ENERGY COMPONENTS
          -----------------

         WAVEFUNCTION NORMALIZATION =       1.0000000000

                ONE ELECTRON ENERGY =    -340.1718566295
                TWO ELECTRON ENERGY =     125.2796968324
           NUCLEAR REPULSION ENERGY =       0.0000000000
                                      ------------------
                       TOTAL ENERGY =    -214.8921597971

 ELECTRON-ELECTRON POTENTIAL ENERGY =     125.2796968324
  NUCLEUS-ELECTRON POTENTIAL ENERGY =    -511.0293532002
   NUCLEUS-NUCLEUS POTENTIAL ENERGY =       0.0000000000
                                      ------------------
             TOTAL POTENTIAL ENERGY =    -385.7496563678
               TOTAL KINETIC ENERGY =     170.8574965707
                 VIRIAL RATIO (V/T) =       2.2577274285

          ---------------------------------------
          MULLIKEN AND LOWDIN POPULATION ANALYSES
          ---------------------------------------

     ATOMIC MULLIKEN POPULATION IN EACH MOLECULAR ORBITAL

                      1          2          3          4          5

                  2.000000   2.000000   2.000000   2.000000   2.000000

    1             2.000000   2.000000   2.000000   2.000000   2.000000

                      6          7          8

                  2.000000   2.000000   2.000000

    1             2.000000   2.000000   2.000000

          MULLIKEN SPHERICAL HARMONIC POPULATIONS
       ATOM           S       P       D      F      G      H      I    TOTAL
    1 AR            2.00    6.00    0.00   0.00   0.00   0.00   0.00    8.00

          MULLIKEN SPHERICAL HARMONIC POPULATIONS
       ATOM           S       P       D      F      G      H      I    TOTAL
    1 AR            2.00    6.00    0.00   0.00   0.00   0.00   0.00    8.00

     ATOMIC SPIN POPULATION (ALPHA MINUS BETA)
       ATOM         MULL.POP.                    LOW.POP.
    1 AR            0.000000                     0.000000

               ----- POPULATIONS IN EACH AO -----
                             MULLIKEN      LOWDIN
              1  AR 1  S      1.99997     0.38809
              2  AR 1  S      2.00035     0.50422
              3  AR 1  S     -0.00001     0.08326
              4  AR 1  S      0.00005     0.35171
              5  AR 1  S     -0.00007     0.27957
              6  AR 1  S     -0.00029     0.33709
              7  AR 1  X      1.99999     0.70967
              8  AR 1  Y      1.99999     0.70967
              9  AR 1  Z      1.99999     0.70967
             10  AR 1  X      1.99997     0.63911
             11  AR 1  Y      1.99997     0.63911
             12  AR 1  Z      1.99997     0.63911
             13  AR 1  X      0.00001     0.52315
             14  AR 1  Y      0.00001     0.52315
             15  AR 1  Z      0.00001     0.52315
             16  AR 1  X     -0.00000     0.30964
             17  AR 1  Y     -0.00000     0.30964
             18  AR 1  Z     -0.00000     0.30964
             19  AR 1  X      0.00001     0.32079
             20  AR 1  Y      0.00001     0.32079
             21  AR 1  Z      0.00001     0.32079
             22  AR 1  X      0.00002     0.43310
             23  AR 1  Y      0.00002     0.43310
             24  AR 1  Z      0.00002     0.43310
             25  AR 1 XX      0.00000     0.14313
             26  AR 1 YY      0.00000     0.14313
             27  AR 1 ZZ      0.00000     0.14313
             28  AR 1 XY      0.00000     0.00000
             29  AR 1 XZ      0.00000     0.00000
             30  AR 1 YZ      0.00000     0.00000
             31  AR 1 XX      0.00000     0.18541
             32  AR 1 YY      0.00000     0.18541
             33  AR 1 ZZ      0.00000     0.18541
             34  AR 1 XY      0.00000     0.00000
             35  AR 1 XZ      0.00000     0.00000
             36  AR 1 YZ      0.00000     0.00000
             37  AR 1 XX      0.00000     0.20652
             38  AR 1 YY      0.00000     0.20652
             39  AR 1 ZZ      0.00000     0.20652
             40  AR 1 XY      0.00000     0.00000
             41  AR 1 XZ      0.00000     0.00000
             42  AR 1 YZ      0.00000     0.00000
             43  AR 1 XX      0.00000     0.15028
             44  AR 1 YY      0.00000     0.15028
             45  AR 1 ZZ      0.00000     0.15028
             46  AR 1 XY      0.00000     0.00000
             47  AR 1 XZ      0.00000     0.00000
             48  AR 1 YZ      0.00000     0.00000
             49  AR 1 XXX     0.00000     0.19602
             50  AR 1 YYY     0.00000     0.19602
             51  AR 1 ZZZ     0.00000     0.19602
             52  AR 1 XXY     0.00000     0.09677
             53  AR 1 XXZ     0.00000     0.09677
             54  AR 1 YYX     0.00000     0.09677
             55  AR 1 YYZ     0.00000     0.09677
             56  AR 1 ZZX     0.00000     0.09677
             57  AR 1 ZZY     0.00000     0.09677
             58  AR 1 XYZ     0.00000     0.00000
             59  AR 1 XXX     0.00000     0.35891
             60  AR 1 YYY     0.00000     0.35891
             61  AR 1 ZZZ     0.00000     0.35891
             62  AR 1 XXY     0.00000     0.15804
             63  AR 1 XXZ     0.00000     0.15804
             64  AR 1 YYX     0.00000     0.15804
             65  AR 1 YYZ     0.00000     0.15804
             66  AR 1 ZZX     0.00000     0.15804
             67  AR 1 ZZY     0.00000     0.15804
             68  AR 1 XYZ     0.00000     0.00000

          ----- MULLIKEN ATOMIC OVERLAP POPULATIONS -----
          (OFF-DIAGONAL ELEMENTS NEED TO BE MULTIPLIED BY 2)

             1

    1   16.0000000

          TOTAL MULLIKEN AND LOWDIN ATOMIC POPULATIONS
       ATOM         MULL.POP.    CHARGE          LOW.POP.     CHARGE
    1 AR           16.000000   -0.000000        16.000000   -0.000000

          MULLIKEN SPHERICAL HARMONIC POPULATIONS
       ATOM           S       P       D      F      G      H      I    TOTAL
    1 AR            4.00   12.00    0.00   0.00   0.00   0.00   0.00   16.00

          -------------------------------
          BOND ORDER AND VALENCE ANALYSIS     BOND ORDER THRESHOLD=0.050
          -------------------------------

                   BOND                       BOND                       BOND
  ATOM PAIR DIST  ORDER      ATOM PAIR DIST  ORDER      ATOM PAIR DIST  ORDER

                       TOTAL       BONDED        FREE
      ATOM            VALENCE     VALENCE     VALENCE
    1 AR               -0.000       0.000      -0.000

          -----------------------------------------
          ATOMIC SPIN DENSITY AT THE NUCLEUS (A.U.)
          -----------------------------------------
                            SPIN DENS    ALPHA DENS     BETA DENS
    1  AR          16.0     0.0000000       0.40213       0.40213

          ---------------------
          ELECTROSTATIC MOMENTS
          ---------------------

 POINT   1           X           Y           Z (BOHR)    CHARGE
                 0.000000    0.000000    0.000000       -0.00 (A.U.)
         DX          DY          DZ         /D/  (DEBYE)
     0.000000    0.000000    0.000000    0.000000
 ...... END OF PROPERTY EVALUATION ......
 STEP CPU TIME =     0.01 TOTAL CPU TIME =        0.4 (    0.0 MIN)
 TOTAL WALL CLOCK TIME=        0.7 SECONDS, CPU UTILIZATION IS  56.52%
                580000  WORDS OF DYNAMIC MEMORY USED
 EXECUTION OF GAMESS TERMINATED NORMALLY Wed Jan 16 16:02:38 2019
 DDI: 263624 bytes (0.3 MB / 0 MWords) used by master data server.

 ----------------------------------------
 CPU timing information for all processes
 ========================================
 0: 0.355 + 0.47 = 0.403
 ----------------------------------------
 ddikick.x: exited gracefully.
----- accounting info -----
Files used on the master node login3.stampede2.tacc.utexas.edu were:
-rw------- 1 aannabe G-801537    2538 Jan 16 16:02 /tmp/Ar.F05
-rw------- 1 aannabe G-801537 4500400 Jan 16 16:02 /tmp/Ar.F08
-rw------- 1 aannabe G-801537 2748480 Jan 16 16:02 /tmp/Ar.F10
Wed Jan 16 16:02:41 CST 2019
0.233u 0.142s 0:04.12 8.9%	0+0k 0+48io 0pf+0w
