----- GAMESS execution script 'rungms' -----
This job is running on host c470-073.stampede2.tacc.utexas.edu
under operating system Linux at Fri Sep 28 23:22:30 CDT 2018
Available scratch disk space (Kbyte units) at beginning of the job is
Filesystem               1K-blocks  Used Available Use% Mounted on
/dev/mapper/rootvg01-tmp 111414116 44108 111370008   1% /tmp
GAMESS temporary binary files will be written to /tmp
GAMESS supplementary output files will be written to /work/04843/aannabe/stampede2/docs/totals/P/5Z
Copying input file P.inp to your run's scratch directory...

 Distributed Data Interface kickoff program.
 Initiating 1 compute processes on 1 nodes to run the following command:
 /work/04843/aannabe/stampede2/codes/gamess-mcb/gamess/gamess.00.x P 

          ******************************************************
          *         GAMESS VERSION =  1 MAY 2013 (R1)          *
          *             FROM IOWA STATE UNIVERSITY             *
          * M.W.SCHMIDT, K.K.BALDRIDGE, J.A.BOATZ, S.T.ELBERT, *
          *   M.S.GORDON, J.H.JENSEN, S.KOSEKI, N.MATSUNAGA,   *
          *          K.A.NGUYEN, S.J.SU, T.L.WINDUS,           *
          *       TOGETHER WITH M.DUPUIS, J.A.MONTGOMERY       *
          *         J.COMPUT.CHEM.  14, 1347-1363(1993)        *
          **************** 64 BIT INTEL VERSION ****************

  SINCE 1993, STUDENTS AND POSTDOCS WORKING AT IOWA STATE UNIVERSITY
  AND ALSO IN THEIR VARIOUS JOBS AFTER LEAVING ISU HAVE MADE IMPORTANT
  CONTRIBUTIONS TO THE CODE:
     IVANA ADAMOVIC, CHRISTINE AIKENS, YURI ALEXEEV, POOJA ARORA,
     ANDREY ASADCHEV, ROB BELL, PRADIPTA BANDYOPADHYAY, JONATHAN BENTZ,
     BRETT BODE, GALINA CHABAN, WEI CHEN, CHEOL HO CHOI, PAUL DAY,
     ALBERT DEFUSCO, TIM DUDLEY, DMITRI FEDOROV, GRAHAM FLETCHER,
     MARK FREITAG, KURT GLAESEMANN, DAN KEMP, GRANT MERRILL,
     NORIYUKI MINEZAWA, JONATHAN MULLIN, TAKESHI NAGATA,
     SEAN NEDD, HEATHER NETZLOFF, BOSILJKA NJEGIC, RYAN OLSON, MIKE PAK,
     JIM SHOEMAKER, LYUDMILA SLIPCHENKO, SAROM SOK, JIE SONG,
     TETSUYA TAKETSUGU, SIMON WEBB, SOOHAENG YOO, FEDERICO ZAHARIEV

  ADDITIONAL CODE HAS BEEN PROVIDED BY COLLABORATORS IN OTHER GROUPS:
     IOWA STATE UNIVERSITY:
          JOE IVANIC, LAIMUTIS BYTAUTAS, KLAUS RUEDENBERG
     UNIVERSITY OF TOKYO: KIMIHIKO HIRAO, TAKAHITO NAKAJIMA,
          TAKAO TSUNEDA, MUNEAKI KAMIYA, SUSUMU YANAGISAWA,
          KIYOSHI YAGI, MAHITO CHIBA, SEIKEN TOKURA, NAOAKI KAWAKAMI
     UNIVERSITY OF AARHUS: FRANK JENSEN
     UNIVERSITY OF IOWA: VISVALDAS KAIRYS, HUI LI
     NATIONAL INST. OF STANDARDS AND TECHNOLOGY: WALT STEVENS, DAVID GARMER
     UNIVERSITY OF PISA: BENEDETTA MENNUCCI, JACOPO TOMASI
     UNIVERSITY OF MEMPHIS: HENRY KURTZ, PRAKASHAN KORAMBATH
     UNIVERSITY OF ALBERTA: TOBY ZENG, MARIUSZ KLOBUKOWSKI
     UNIVERSITY OF NEW ENGLAND: MARK SPACKMAN
     MIE UNIVERSITY: HIROAKI UMEDA
     MICHIGAN STATE UNIVERSITY:
          KAROL KOWALSKI, MARTA WLOCH, JEFFREY GOUR, JESSE LUTZ,
          WEI LI, PIOTR PIECUCH
     UNIVERSITY OF SILESIA: MONIKA MUSIAL, STANISLAW KUCHARSKI
     FACULTES UNIVERSITAIRES NOTRE-DAME DE LA PAIX:
          OLIVIER QUINET, BENOIT CHAMPAGNE
     UNIVERSITY OF CALIFORNIA - SANTA BARBARA: BERNARD KIRTMAN
     INSTITUTE FOR MOLECULAR SCIENCE:
          KAZUYA ISHIMURA, MICHIO KATOUDA, AND SHIGERU NAGASE
     UNIVERSITY OF NOTRE DAME: DAN CHIPMAN
     KYUSHU UNIVERSITY:
          HARUYUKI NAKANO,
          FENG LONG GU, JACEK KORCHOWIEC, MARCIN MAKOWSKI, AND YURIKO AOKI,
          HIROTOSHI MORI AND EISAKU MIYOSHI
     PENNSYLVANIA STATE UNIVERSITY:
          TZVETELIN IORDANOV, CHET SWALINA, JONATHAN SKONE,
          SHARON HAMMES-SCHIFFER
     WASEDA UNIVERSITY:
          MASATO KOBAYASHI, TOMOKO AKAMA, TSUGUKI TOUMA,
          TAKESHI YOSHIKAWA, YASUHIRO IKABATA, HIROMI NAKAI
     NANJING UNIVERSITY: SHUHUA LI
     UNIVERSITY OF NEBRASKA:
          PEIFENG SU, DEJUN SI, NANDUN THELLAMUREGE, YALI WANG, HUI LI
     UNIVERSITY OF ZURICH:
          ROBERTO PEVERATI, KIM BALDRIDGE
     N. COPERNICUS UNIVERSITY AND JACKSON STATE UNIVERSITY:
          MARIA BARYSZ

 EXECUTION OF GAMESS BEGUN Fri Sep 28 23:22:31 2018

            ECHO OF THE FIRST FEW INPUT CARDS -
 INPUT CARD> $CONTRL                                                                        
 INPUT CARD>     SCFTYP=ROHF                                                                
 INPUT CARD>     MULT=4                                                                     
 INPUT CARD>     ICHARG=0                                                                   
 INPUT CARD>     RUNTYP=ENERGY                                                              
 INPUT CARD>     MAXIT=150                                                                  
 INPUT CARD>     ECP=READ                                                                   
 INPUT CARD>     ISPHER=1                                                                   
 INPUT CARD> $END                                                                           
 INPUT CARD>                                                                                
 INPUT CARD> $SYSTEM                                                                        
 INPUT CARD>     KDIAG=3                                                                    
 INPUT CARD> $END                                                                           
 INPUT CARD>                                                                                
 INPUT CARD> $GUESS                                                                         
 INPUT CARD>    GUESS=HUCKEL                                                                
 INPUT CARD> $END                                                                           
 INPUT CARD>                                                                                
 INPUT CARD>                                                                                
 INPUT CARD> $DATA                                                                          
 INPUT CARD>                                                                                
 INPUT CARD>C1                                                                              
 INPUT CARD>P 15    0. 0. 0.                                                                
 INPUT CARD>S  10                                                                           
 INPUT CARD>  1  5.054268  0.001781                                                         
 INPUT CARD>  2  3.094719  0.077653                                                         
 INPUT CARD>  3  1.894891 -0.312344                                                         
 INPUT CARD>  4  1.160239 -0.045804                                                         
 INPUT CARD>  5  0.710412 -0.029427                                                         
 INPUT CARD>  6  0.434984  0.318560                                                         
 INPUT CARD>  7  0.266340  0.309169                                                         
 INPUT CARD>  8  0.163080  0.376899                                                         
 INPUT CARD>  9  0.099853  0.152113                                                         
 INPUT CARD> 10  0.061140  0.054943                                                         
 INPUT CARD>S   1                                                                           
 INPUT CARD>  1  0.880402  1.000000                                                         
 INPUT CARD>S   1                                                                           
 INPUT CARD>  1  0.402152  1.000000                                                         
 INPUT CARD>S   1                                                                           
 INPUT CARD>  1  0.183696  1.000000                                                         
 INPUT CARD>S   1                                                                           
 INPUT CARD>  1  0.083909  1.000000                                                         
 INPUT CARD>P  10                                                                           
 INPUT CARD>  1  5.861284 -0.003160                                                         
 INPUT CARD>  2  3.406365  0.007462                                                         
 INPUT CARD>  3  1.979655 -0.060893                                                         
 INPUT CARD>  4  1.150503  0.015297                                                         
 INPUT CARD>  5  0.668631  0.123431                                                         
 INPUT CARD>  6  0.388584  0.257276                                                         
 INPUT CARD>  7  0.225831  0.305131                                                         
    1000000 WORDS OF MEMORY AVAILABLE


     RUN TITLE
     ---------
                                                                                 

 THE POINT GROUP OF THE MOLECULE IS C1      
 THE ORDER OF THE PRINCIPAL AXIS IS     0
 *** WARNING! ATOM   1 SHELL    6 TYPE P HAS NORMALIZATION   1.00000126

 ATOM      ATOMIC                      COORDINATES (BOHR)
           CHARGE         X                   Y                   Z
 P          15.0     0.0000000000        0.0000000000        0.0000000000

          INTERNUCLEAR DISTANCES (ANGS.)
          ------------------------------

                1 P     

   1 P       0.0000000  

  * ... LESS THAN  3.000


     ATOMIC BASIS SET
     ----------------
 THE CONTRACTED PRIMITIVE FUNCTIONS HAVE BEEN UNNORMALIZED
 THE CONTRACTED BASIS FUNCTIONS ARE NOW NORMALIZED TO UNITY

  SHELL TYPE  PRIMITIVE        EXPONENT          CONTRACTION COEFFICIENT(S)

 P         

      1   S       1             5.0542680    0.001781000680
      1   S       2             3.0947190    0.077653029666
      1   S       3             1.8948910   -0.312344119326
      1   S       4             1.1602390   -0.045804017499
      1   S       5             0.7104120   -0.029427011242
      1   S       6             0.4349840    0.318560121701
      1   S       7             0.2663400    0.309169118113
      1   S       8             0.1630800    0.376899143989
      1   S       9             0.0998530    0.152113058112
      1   S      10             0.0611400    0.054943020990

      2   S      11             0.8804020    1.000000000000

      3   S      12             0.4021520    1.000000000000

      4   S      13             0.1836960    1.000000000000

      5   S      14             0.0839090    1.000000000000

      6   P      15             5.8612840   -0.003160003976
      6   P      16             3.4063650    0.007462009389
      6   P      17             1.9796550   -0.060893076616
      6   P      18             1.1505030    0.015297019247
      6   P      19             0.6686310    0.123431155303
      6   P      20             0.3885840    0.257276323708
      6   P      21             0.2258310    0.305131383920
      6   P      22             0.1312450    0.276016347287
      6   P      23             0.0762750    0.134133168768
      6   P      24             0.0443280    0.040073050420

      7   P      25             1.8189400    1.000000000000

      8   P      26             0.8873110    1.000000000000

      9   P      27             0.4328460    1.000000000000

     10   P      28             0.2111500    1.000000000000

     11   D      29             2.6315930    1.000000000000

     12   D      30             1.0411290    1.000000000000

     13   D      31             0.4118980    1.000000000000

     14   D      32             0.1629580    1.000000000000

     15   F      33             1.0062190    1.000000000000

     16   F      34             0.4739180    1.000000000000

     17   F      35             0.2232100    1.000000000000

     18   G      36             0.9120650    1.000000000000

     19   G      37             0.4084830    1.000000000000

 TOTAL NUMBER OF BASIS SET SHELLS             =   19
 NUMBER OF CARTESIAN GAUSSIAN BASIS FUNCTIONS =  104
 NOTE: THIS RUN WILL RESTRICT THE MO VARIATION SPACE TO SPHERICAL HARMONICS.
 THE NUMBER OF ORBITALS KEPT IN THE VARIATIONAL SPACE WILL BE PRINTED LATER.
 NUMBER OF ELECTRONS                          =   15
 CHARGE OF MOLECULE                           =    0
 SPIN MULTIPLICITY                            =    4
 NUMBER OF OCCUPIED ORBITALS (ALPHA)          =    9
 NUMBER OF OCCUPIED ORBITALS (BETA )          =    6
 TOTAL NUMBER OF ATOMS                        =    1
 THE NUCLEAR REPULSION ENERGY IS        0.0000000000
 NOTE THIS RUN IS USING CORE POTENTIALS, AND THE NUMBER OF ELECTRONS,
 OCCUPIED ORBITALS, AND NUCLEAR REPULSION ENERGY WILL BE ADJUSTED BELOW
 AFTER REMOVAL OF THE CORE CHARGES.

 THIS MOLECULE IS RECOGNIZED AS BEING LINEAR,
 ORBITAL LZ DEGENERACY TOLERANCE ETOLLZ= 1.00E-06

     $CONTRL OPTIONS
     ---------------
 SCFTYP=ROHF         RUNTYP=ENERGY       EXETYP=RUN     
 MPLEVL=       0     CITYP =NONE         CCTYP =NONE         VBTYP =NONE    
 DFTTYP=NONE         TDDFT =NONE    
 MULT  =       4     ICHARG=       0     NZVAR =       0     COORD =UNIQUE  
 PP    =READ         RELWFN=NONE         LOCAL =NONE         NUMGRD=       F
 ISPHER=       1     NOSYM =       0     MAXIT =     150     UNITS =ANGS    
 PLTORB=       F     MOLPLT=       F     AIMPAC=       F     FRIEND=        
 NPRINT=       7     IREST =       0     GEOM  =INPUT   
 NORMF =       0     NORMP =       0     ITOL  =      20     ICUT  =       9
 INTTYP=BEST         GRDTYP=BEST         QMTTOL= 1.0E-06

     $SYSTEM OPTIONS
     ---------------
  REPLICATED MEMORY=     1000000 WORDS (ON EVERY NODE).
 DISTRIBUTED MEMDDI=           0 MILLION WORDS IN AGGREGATE,
 MEMDDI DISTRIBUTED OVER   1 PROCESSORS IS           0 WORDS/PROCESSOR.
 TOTAL MEMORY REQUESTED ON EACH PROCESSOR=     1000000 WORDS.
 TIMLIM=      525600.00 MINUTES, OR     365.0 DAYS.
 PARALL= F  BALTYP=  DLB     KDIAG=    3  COREFL= F
 MXSEQ2=     300 MXSEQ3=     150

          --------------
          ECP POTENTIALS
          --------------

 PARAMETERS FOR "P-CCECP " ON ATOM    1 WITH ZCORE  10 AND LMAX  2 ARE
 FOR L= 2      COEFF    N           ZETA
    1        5.00000    1        5.87269
    2       29.36347    3        9.89130
    3      -17.01114    2        4.69247
 FOR L= 0      COEFF    N           ZETA
    1       15.25938    2       12.09133
    2       31.70792    2        3.04454
 FOR L= 1      COEFF    N           ZETA
    1        7.74719    2        4.31088
    2       13.93253    2        2.42690

 THE ECP RUN REMOVES   10 CORE ELECTRONS, AND THE SAME NUMBER OF PROTONS.
 NUMBER OF ELECTRONS KEPT IN THE CALCULATION IS =    5
 NUMBER OF OCCUPIED ORBITALS (ALPHA) KEPT IS    =    4
 NUMBER OF OCCUPIED ORBITALS (BETA ) KEPT IS    =    1
 THE ADJUSTED NUCLEAR REPULSION ENERGY=        0.0000000000
          ECP ANGULAR INTS.........     0.07 SECONDS

          ----------------
          PROPERTIES INPUT
          ----------------

     MOMENTS            FIELD           POTENTIAL          DENSITY
 IEMOM =       1   IEFLD =       0   IEPOT =       0   IEDEN =       0
 WHERE =COMASS     WHERE =NUCLEI     WHERE =NUCLEI     WHERE =NUCLEI  
 OUTPUT=BOTH       OUTPUT=BOTH       OUTPUT=BOTH       OUTPUT=BOTH    
 IEMINT=       0   IEFINT=       0                     IEDINT=       0
                                                       MORB  =       0
          EXTRAPOLATION IN EFFECT
          SOSCF IN EFFECT
 ORBITAL PRINTING OPTION: NPREO=     1   104     2     1

     -------------------------------
     INTEGRAL TRANSFORMATION OPTIONS
     -------------------------------
     NWORD  =            0
     CUTOFF = 1.0E-09     MPTRAN =       0
     DIRTRF =       F     AOINTS =DUP     

          ----------------------
          INTEGRAL INPUT OPTIONS
          ----------------------
 NOPK  =       1 NORDER=       0 SCHWRZ=       F

     ------------------------------------------
     THE POINT GROUP IS C1 , NAXIS= 0, ORDER= 1
     ------------------------------------------

 -- VARIATIONAL SPACE WILL BE RESTRICTED TO PURE SPHERICAL HARMONICS ONLY --
 AFTER EXCLUDING CONTAMINANT COMBINATIONS FROM THE CARTESIAN GAUSSIAN BASIS
 SET, THE NUMBER OF SPHERICAL HARMONICS KEPT IN THE VARIATION SPACE IS   79

     DIMENSIONS OF THE SYMMETRY SUBSPACES ARE
 A   =   79

 ..... DONE SETTING UP THE RUN .....
 STEP CPU TIME =     0.21 TOTAL CPU TIME =        0.2 (    0.0 MIN)
 TOTAL WALL CLOCK TIME=        0.5 SECONDS, CPU UTILIZATION IS  42.31%

          ********************
          1 ELECTRON INTEGRALS
          ********************
 TIME TO DO ORDINARY INTEGRALS=      0.00
 TIME TO DO      ECP INTEGRALS=      0.01
 ...... END OF ONE-ELECTRON INTEGRALS ......
 STEP CPU TIME =     0.01 TOTAL CPU TIME =        0.2 (    0.0 MIN)
 TOTAL WALL CLOCK TIME=        0.7 SECONDS, CPU UTILIZATION IS  33.82%

          -------------
          GUESS OPTIONS
          -------------
          GUESS =HUCKEL            NORB  =       0          NORDER=       0
          MIX   =       F          PRTMO =       F          PUNMO =       F
          TOLZ  = 1.0E-08          TOLE  = 1.0E-05
          SYMDEN=       F          PURIFY=       F

 INITIAL GUESS ORBITALS GENERATED BY HUCKEL   ROUTINE.
 HUCKEL GUESS REQUIRES     78296 WORDS.

 STATISTICS FOR GENERATION OF SYMMETRY ORBITAL -Q- MATRIX
 NUMBER OF CARTESIAN ATOMIC ORBITALS=        104
 NUMBER OF SPHERICAL CONTAMINANTS DROPPED=    25
 NUMBER OF LINEARLY DEPENDENT MOS DROPPED=     0
 TOTAL NUMBER OF MOS IN VARIATION SPACE=      79

 SYMMETRIES FOR INITIAL GUESS ORBITALS FOLLOW.  ALPHA SET(S).
     4 ORBITALS ARE OCCUPIED (    0 CORE ORBITALS).
     1=A        2=A        3=A        4=A        5=A        6=A        7=A   
     8=A        9=A       10=A       11=A       12=A       13=A       14=A   

 SYMMETRIES FOR INITIAL GUESS ORBITALS FOLLOW.   BETA SET(S).
     1 ORBITALS ARE OCCUPIED (    0 CORE ORBITALS).
     1=A        2=A        3=A        4=A        5=A        6=A        7=A   
     8=A        9=A       10=A       11=A   
 ...... END OF INITIAL ORBITAL SELECTION ......
 STEP CPU TIME =     0.04 TOTAL CPU TIME =        0.3 (    0.0 MIN)
 TOTAL WALL CLOCK TIME=        0.8 SECONDS, CPU UTILIZATION IS  32.93%

                    ----------------------
                    AO INTEGRAL TECHNOLOGY
                    ----------------------
     S,P,L SHELL ROTATED AXIS INTEGRALS, REPROGRAMMED BY
        KAZUYA ISHIMURA (IMS) AND JOSE SIERRA (SYNSTAR).
     S,P,D,L SHELL ROTATED AXIS INTEGRALS PROGRAMMED BY
        KAZUYA ISHIMURA (INSTITUTE FOR MOLECULAR SCIENCE).
     S,P,D,F,G SHELL TO TOTAL QUARTET ANGULAR MOMENTUM SUM 5,
        ERIC PROGRAM BY GRAHAM FLETCHER (ELORET AND NASA ADVANCED
        SUPERCOMPUTING DIVISION, AMES RESEARCH CENTER).
     S,P,D,F,G,L SHELL GENERAL RYS QUADRATURE PROGRAMMED BY
        MICHEL DUPUIS (PACIFIC NORTHWEST NATIONAL LABORATORY).

          --------------------
          2 ELECTRON INTEGRALS
          --------------------

 THE -PK- OPTION IS OFF, THE INTEGRALS ARE NOT IN SUPERMATRIX FORM.
 STORING   15000 INTEGRALS/RECORD ON DISK, USING 12 BYTES/INTEGRAL.
 TWO ELECTRON INTEGRAL EVALUATION REQUIRES  139915 WORDS OF MEMORY.
 II,JST,KST,LST =  1  1  1  1 NREC =         1 INTLOC =    1
 II,JST,KST,LST =  2  1  1  1 NREC =         1 INTLOC =    2
 II,JST,KST,LST =  3  1  1  1 NREC =         1 INTLOC =    7
 II,JST,KST,LST =  4  1  1  1 NREC =         1 INTLOC =   22
 II,JST,KST,LST =  5  1  1  1 NREC =         1 INTLOC =   56
 II,JST,KST,LST =  6  1  1  1 NREC =         1 INTLOC =  121
 II,JST,KST,LST =  7  1  1  1 NREC =         1 INTLOC =  220
 II,JST,KST,LST =  8  1  1  1 NREC =         1 INTLOC =  496
 II,JST,KST,LST =  9  1  1  1 NREC =         1 INTLOC = 1057
 II,JST,KST,LST = 10  1  1  1 NREC =         1 INTLOC = 2074
 II,JST,KST,LST = 11  1  1  1 NREC =         1 INTLOC = 3781
 II,JST,KST,LST = 12  1  1  1 NREC =         1 INTLOC = 9301
 II,JST,KST,LST = 13  1  1  1 NREC =         2 INTLOC = 5254
 II,JST,KST,LST = 14  1  1  1 NREC =         3 INTLOC = 9160
 II,JST,KST,LST = 15  1  1  1 NREC =         5 INTLOC = 9547
 II,JST,KST,LST = 16  1  1  1 NREC =        10 INTLOC =13688
 II,JST,KST,LST = 17  1  1  1 NREC =        20 INTLOC =  974
 II,JST,KST,LST = 18  1  1  1 NREC =        34 INTLOC = 9469
 II,JST,KST,LST = 19  1  1  1 NREC =        70 INTLOC = 1606
 TOTAL NUMBER OF NONZERO TWO-ELECTRON INTEGRALS =             1915935
        128 INTEGRAL RECORDS WERE STORED ON DISK FILE  8.
  ...... END OF TWO-ELECTRON INTEGRALS .....
 STEP CPU TIME =     2.13 TOTAL CPU TIME =        2.4 (    0.0 MIN)
 TOTAL WALL CLOCK TIME=        3.0 SECONDS, CPU UTILIZATION IS  79.21%

          ---------------------------
                 ROHF SCF CALCULATION
          ---------------------------

     NUCLEAR ENERGY =         0.0000000000
     MAXIT =150     NPUNCH=  2     MULT=  4
     EXTRAP=T  DAMP=F  SHIFT=F  RSTRCT=F  DIIS=F  SOSCF=T
     DENSITY MATRIX CONV=  1.00E-05
     ROHF CANONICALIZATION PARAMETERS
             C-C     O-O     V-V
     ALPHA -0.5000  0.5000  1.5000
     BETA   1.5000  0.5000 -0.5000
     SOSCF WILL OPTIMIZE     303 ORBITAL ROTATION ANGLES. SOGTOL= 2.500E-01
     MEMORY REQUIRED FOR UHF/ROHF ITERS=    130494 WORDS.

 ITER EX      TOTAL ENERGY        E CHANGE  DENSITY CHANGE    ORB. GRAD 
   1  0       -6.3377195442    -6.3377195442   0.221015711   0.000000000
          ---------------START SECOND ORDER SCF---------------
   2  1       -6.3409634606    -0.0032439164   0.013456012   0.002276557
   3  2       -6.3409663407    -0.0000028802   0.001755304   0.000142896
   4  3       -6.3409664124    -0.0000000716   0.000534143   0.000047726
   5  4       -6.3409664183    -0.0000000059   0.000039667   0.000003127
   6  5       -6.3409664183    -0.0000000000   0.000004570   0.000000498
   7  6       -6.3409664183    -0.0000000000   0.000000000   0.000000000

          -----------------
          DENSITY CONVERGED
          -----------------
     TIME TO FORM FOCK OPERATORS=       0.7 SECONDS (       0.1 SEC/ITER)
     TIME TO SOLVE SCF EQUATIONS=       0.0 SECONDS (       0.0 SEC/ITER)

 FINAL ROHF ENERGY IS       -6.3409664183 AFTER   7 ITERATIONS

          --------------------
          SPIN SZ   =    1.500
          S-SQUARED =    3.750
          --------------------

 LZ VALUE ANALYSIS FOR THE MOS
 ----------------------------------------
 MO     1 (    1) HAS LZ(WEIGHT)= 0.00(100.0%) 
 MO     2 (    2) HAS LZ(WEIGHT)=-1.00( 50.0%)  1.00( 50.0%) 
 MO     3 (    2) HAS LZ(WEIGHT)= 0.00(100.0%) 
 MO     4 (    2) HAS LZ(WEIGHT)=-1.00( 50.0%)  1.00( 50.0%) 
 MO     5 (    3) HAS LZ(WEIGHT)= 0.00(100.0%) 
 MO     6 (    4) HAS LZ(WEIGHT)=-1.00( 50.0%)  1.00( 50.0%) 
 MO     7 (    4) HAS LZ(WEIGHT)=-1.00( 50.0%)  1.00( 50.0%) 
 MO     8 (    4) HAS LZ(WEIGHT)= 0.00(100.0%) 
 MO     9 (    5) HAS LZ(WEIGHT)=-1.00( 50.0%)  1.00( 50.0%) 
 MO    10 (    5) HAS LZ(WEIGHT)=-2.00( 50.0%)  2.00( 50.0%) 
 MO    11 (    5) HAS LZ(WEIGHT)= 0.00(100.0%) 
 MO    12 (    5) HAS LZ(WEIGHT)=-1.00( 50.0%)  1.00( 50.0%) 
 MO    13 (    5) HAS LZ(WEIGHT)=-2.00( 50.0%)  2.00( 50.0%) 
 MO    14 (    6) HAS LZ(WEIGHT)=-2.00( 50.0%)  2.00( 50.0%) 
 MO    15 (    6) HAS LZ(WEIGHT)=-2.00( 50.0%)  2.00( 50.0%) 
 MO    16 (    6) HAS LZ(WEIGHT)=-1.00( 50.0%)  1.00( 50.0%) 
 MO    17 (    6) HAS LZ(WEIGHT)=-1.00( 50.0%)  1.00( 50.0%) 
 MO    18 (    6) HAS LZ(WEIGHT)=-3.00( 50.0%)  3.00( 50.0%) 
 MO    19 (    6) HAS LZ(WEIGHT)=-3.00( 50.0%)  3.00( 50.0%) 
 MO    20 (    6) HAS LZ(WEIGHT)= 0.00(100.0%) 
 MO    21 (    7) HAS LZ(WEIGHT)=-2.00( 50.0%)  2.00( 50.0%) 
 MO    22 (    7) HAS LZ(WEIGHT)=-1.00( 50.0%)  1.00( 50.0%) 
 MO    23 (    7) HAS LZ(WEIGHT)=-1.00( 50.0%)  1.00( 50.0%) 
 MO    24 (    7) HAS LZ(WEIGHT)=-2.00( 50.0%)  2.00( 50.0%) 
 MO    25 (    7) HAS LZ(WEIGHT)= 0.00(100.0%) 
 MO    26 (    8) HAS LZ(WEIGHT)= 0.00(100.0%) 
 MO    27 (    9) HAS LZ(WEIGHT)=-1.00( 50.0%)  1.00( 50.0%) 
 MO    28 (    9) HAS LZ(WEIGHT)= 0.00(100.0%) 
 MO    29 (    9) HAS LZ(WEIGHT)=-1.00( 50.0%)  1.00( 50.0%) 
 MO    30 (   10) HAS LZ(WEIGHT)=-4.00( 50.0%)  4.00( 50.0%) 
 MO    31 (   10) HAS LZ(WEIGHT)=-1.00( 50.0%)  1.00( 50.0%) 
 MO    32 (   10) HAS LZ(WEIGHT)=-1.00( 50.0%)  1.00( 50.0%) 
 MO    33 (   10) HAS LZ(WEIGHT)=-2.00( 50.0%)  2.00( 50.0%) 
 MO    34 (   10) HAS LZ(WEIGHT)=-0.00(100.0%) 
 MO    35 (   10) HAS LZ(WEIGHT)=-3.00( 50.0%)  3.00( 50.0%) 
 MO    36 (   10) HAS LZ(WEIGHT)=-4.00( 50.0%)  4.00( 50.0%) 
 MO    37 (   10) HAS LZ(WEIGHT)=-3.00( 50.0%)  3.00( 50.0%) 
 MO    38 (   10) HAS LZ(WEIGHT)=-2.00( 50.0%)  2.00( 50.0%) 
 MO    39 (   11) HAS LZ(WEIGHT)=-2.00( 50.0%)  2.00( 50.0%) 
 MO    40 (   11) HAS LZ(WEIGHT)=-1.00( 50.0%)  1.00( 50.0%) 
 MO    41 (   11) HAS LZ(WEIGHT)=-1.00( 50.0%)  1.00( 50.0%) 
 MO    42 (   11) HAS LZ(WEIGHT)=-2.00( 50.0%)  2.00( 50.0%) 
 MO    43 (   11) HAS LZ(WEIGHT)= 0.00(100.0%) 
 MO    44 (   11) HAS LZ(WEIGHT)=-3.00( 50.0%)  3.00( 50.0%) 
 MO    45 (   11) HAS LZ(WEIGHT)=-3.00( 50.0%)  3.00( 50.0%) 
 MO    46 (   12) HAS LZ(WEIGHT)=-2.00( 50.0%)  2.00( 50.0%) 
 MO    47 (   12) HAS LZ(WEIGHT)=-1.00( 50.0%)  1.00( 50.0%) 
 MO    48 (   12) HAS LZ(WEIGHT)=-1.00( 50.0%)  1.00( 50.0%) 
 MO    49 (   12) HAS LZ(WEIGHT)= 0.00(100.0%) 
 MO    50 (   12) HAS LZ(WEIGHT)=-2.00( 50.0%)  2.00( 50.0%) 
 MO    51 (   13) HAS LZ(WEIGHT)=-1.00( 50.0%)  1.00( 50.0%) 
 MO    52 (   13) HAS LZ(WEIGHT)=-1.00( 50.0%)  1.00( 50.0%) 
 MO    53 (   13) HAS LZ(WEIGHT)= 0.00(100.0%) 
 MO    54 (   14) HAS LZ(WEIGHT)= 0.00(100.0%) 
 MO    55 (   15) HAS LZ(WEIGHT)=-1.00( 50.0%)  1.00( 50.0%) 
 MO    56 (   15) HAS LZ(WEIGHT)=-3.00( 50.0%)  3.00( 50.0%) 
 MO    57 (   15) HAS LZ(WEIGHT)=-3.00( 50.0%)  3.00( 50.0%) 
 MO    58 (   15) HAS LZ(WEIGHT)= 0.00(100.0%) 
 MO    59 (   15) HAS LZ(WEIGHT)=-2.00( 50.0%)  2.00( 50.0%) 
 MO    60 (   15) HAS LZ(WEIGHT)=-1.00( 50.0%)  1.00( 50.0%) 
 MO    61 (   15) HAS LZ(WEIGHT)=-2.00( 50.0%)  2.00( 50.0%) 
 MO    62 (   16) HAS LZ(WEIGHT)=-4.00( 50.0%)  4.00( 50.0%) 
 MO    63 (   16) HAS LZ(WEIGHT)=-2.00( 50.0%)  2.00( 50.0%) 
 MO    64 (   16) HAS LZ(WEIGHT)=-2.00( 50.0%)  2.00( 50.0%) 
 MO    65 (   16) HAS LZ(WEIGHT)=-0.00(100.0%) 
 MO    66 (   16) HAS LZ(WEIGHT)=-1.00( 50.0%)  1.00( 50.0%) 
 MO    67 (   16) HAS LZ(WEIGHT)=-3.00( 50.0%)  3.00( 50.0%) 
 MO    68 (   16) HAS LZ(WEIGHT)=-3.00( 50.0%)  3.00( 50.0%) 
 MO    69 (   16) HAS LZ(WEIGHT)=-4.00( 50.0%)  4.00( 50.0%) 
 MO    70 (   16) HAS LZ(WEIGHT)=-1.00( 50.0%)  1.00( 50.0%) 
 MO    71 (   17) HAS LZ(WEIGHT)=-2.00( 50.0%)  2.00( 50.0%) 
 MO    72 (   17) HAS LZ(WEIGHT)=-1.00( 50.0%)  1.00( 50.0%) 
 MO    73 (   17) HAS LZ(WEIGHT)=-1.00( 50.0%)  1.00( 50.0%) 
 MO    74 (   17) HAS LZ(WEIGHT)= 0.00(100.0%) 
 MO    75 (   17) HAS LZ(WEIGHT)=-2.00( 50.0%)  2.00( 50.0%) 
 MO    76 (   18) HAS LZ(WEIGHT)=-1.00( 50.0%)  1.00( 50.0%) 
 MO    77 (   18) HAS LZ(WEIGHT)=-1.00( 50.0%)  1.00( 50.0%) 
 MO    78 (   18) HAS LZ(WEIGHT)= 0.00(100.0%) 
 MO    79 (   19) HAS LZ(WEIGHT)= 0.00(100.0%) 

          ------------
          EIGENVECTORS
          ------------

                      1          2          3          4          5
                   -0.4131    -0.1570    -0.1570    -0.1570     0.1684
                     A          A          A          A          A   
    1  P  1  S    0.999988   0.000000   0.000000   0.000000  -1.268209
    2  P  1  S   -0.000008   0.000000   0.000000   0.000000  -0.630911
    3  P  1  S    0.000011   0.000000   0.000000   0.000000   1.611049
    4  P  1  S    0.000004   0.000000   0.000000   0.000000  -2.429514
    5  P  1  S    0.000003   0.000000   0.000000   0.000000   2.933931
    6  P  1  X    0.000000   1.000015   0.000000   0.000000   0.000000
    7  P  1  Y    0.000000   0.000000   0.000000   1.000015   0.000000
    8  P  1  Z    0.000000   0.000000   1.000015   0.000000   0.000000
    9  P  1  X    0.000000   0.000002   0.000000   0.000000   0.000000
   10  P  1  Y    0.000000   0.000000   0.000000   0.000002   0.000000
   11  P  1  Z    0.000000   0.000000   0.000002   0.000000   0.000000
   12  P  1  X    0.000000  -0.000007   0.000000   0.000000   0.000000
   13  P  1  Y    0.000000   0.000000   0.000000  -0.000007   0.000000
   14  P  1  Z    0.000000   0.000000  -0.000007   0.000000   0.000000
   15  P  1  X    0.000000   0.000006   0.000000   0.000000   0.000000
   16  P  1  Y    0.000000   0.000000   0.000000   0.000006   0.000000
   17  P  1  Z    0.000000   0.000000   0.000006   0.000000   0.000000
   18  P  1  X    0.000000  -0.000017   0.000000   0.000000   0.000000
   19  P  1  Y    0.000000   0.000000   0.000000  -0.000017   0.000000
   20  P  1  Z    0.000000   0.000000  -0.000017   0.000000   0.000000
   21  P  1 XX    0.000000   0.000000   0.000000   0.000000   0.000000
   22  P  1 YY    0.000000   0.000000   0.000000   0.000000   0.000000
   23  P  1 ZZ    0.000000   0.000000   0.000000   0.000000   0.000000
   24  P  1 XY    0.000000   0.000000   0.000000   0.000000   0.000000
   25  P  1 XZ    0.000000   0.000000   0.000000   0.000000   0.000000
   26  P  1 YZ    0.000000   0.000000   0.000000   0.000000   0.000000
   27  P  1 XX    0.000000   0.000000   0.000000   0.000000   0.000000
   28  P  1 YY    0.000000   0.000000   0.000000   0.000000   0.000000
   29  P  1 ZZ    0.000000   0.000000   0.000000   0.000000   0.000000
   30  P  1 XY    0.000000   0.000000   0.000000   0.000000   0.000000
   31  P  1 XZ    0.000000   0.000000   0.000000   0.000000   0.000000
   32  P  1 YZ    0.000000   0.000000   0.000000   0.000000   0.000000
   33  P  1 XX    0.000000   0.000000   0.000000   0.000000   0.000000
   34  P  1 YY    0.000000   0.000000   0.000000   0.000000   0.000000
   35  P  1 ZZ    0.000000   0.000000   0.000000   0.000000   0.000000
   36  P  1 XY    0.000000   0.000000   0.000000   0.000000   0.000000
   37  P  1 XZ    0.000000   0.000000   0.000000   0.000000   0.000000
   38  P  1 YZ    0.000000   0.000000   0.000000   0.000000   0.000000
   39  P  1 XX    0.000000   0.000000   0.000000   0.000000   0.000000
   40  P  1 YY    0.000000   0.000000   0.000000   0.000000   0.000000
   41  P  1 ZZ    0.000000   0.000000   0.000000   0.000000   0.000000
   42  P  1 XY    0.000000   0.000000   0.000000   0.000000   0.000000
   43  P  1 XZ    0.000000   0.000000   0.000000   0.000000   0.000000
   44  P  1 YZ    0.000000   0.000000   0.000000   0.000000   0.000000
   45  P  1 XXX   0.000000   0.000000   0.000000   0.000000   0.000000
   46  P  1 YYY   0.000000   0.000000   0.000000   0.000000   0.000000
   47  P  1 ZZZ   0.000000   0.000000   0.000000   0.000000   0.000000
   48  P  1 XXY   0.000000   0.000000   0.000000   0.000000   0.000000
   49  P  1 XXZ   0.000000   0.000000   0.000000   0.000000   0.000000
   50  P  1 YYX   0.000000   0.000000   0.000000   0.000000   0.000000
   51  P  1 YYZ   0.000000   0.000000   0.000000   0.000000   0.000000
   52  P  1 ZZX   0.000000   0.000000   0.000000   0.000000   0.000000
   53  P  1 ZZY   0.000000   0.000000   0.000000   0.000000   0.000000
   54  P  1 XYZ   0.000000   0.000000   0.000000   0.000000   0.000000
   55  P  1 XXX   0.000000   0.000000   0.000000   0.000000   0.000000
   56  P  1 YYY   0.000000   0.000000   0.000000   0.000000   0.000000
   57  P  1 ZZZ   0.000000   0.000000   0.000000   0.000000   0.000000
   58  P  1 XXY   0.000000   0.000000   0.000000   0.000000   0.000000
   59  P  1 XXZ   0.000000   0.000000   0.000000   0.000000   0.000000
   60  P  1 YYX   0.000000   0.000000   0.000000   0.000000   0.000000
   61  P  1 YYZ   0.000000   0.000000   0.000000   0.000000   0.000000
   62  P  1 ZZX   0.000000   0.000000   0.000000   0.000000   0.000000
   63  P  1 ZZY   0.000000   0.000000   0.000000   0.000000   0.000000
   64  P  1 XYZ   0.000000   0.000000   0.000000   0.000000   0.000000
   65  P  1 XXX   0.000000   0.000000   0.000000   0.000000   0.000000
   66  P  1 YYY   0.000000   0.000000   0.000000   0.000000   0.000000
   67  P  1 ZZZ   0.000000   0.000000   0.000000   0.000000   0.000000
   68  P  1 XXY   0.000000   0.000000   0.000000   0.000000   0.000000
   69  P  1 XXZ   0.000000   0.000000   0.000000   0.000000   0.000000
   70  P  1 YYX   0.000000   0.000000   0.000000   0.000000   0.000000
   71  P  1 YYZ   0.000000   0.000000   0.000000   0.000000   0.000000
   72  P  1 ZZX   0.000000   0.000000   0.000000   0.000000   0.000000
   73  P  1 ZZY   0.000000   0.000000   0.000000   0.000000   0.000000
   74  P  1 XYZ   0.000000   0.000000   0.000000   0.000000   0.000000
   75  P  1XXXX   0.000000   0.000000   0.000000   0.000000   0.000000
   76  P  1YYYY   0.000000   0.000000   0.000000   0.000000   0.000000
   77  P  1ZZZZ   0.000000   0.000000   0.000000   0.000000   0.000000
   78  P  1XXXY   0.000000   0.000000   0.000000   0.000000   0.000000
   79  P  1XXXZ   0.000000   0.000000   0.000000   0.000000   0.000000
   80  P  1YYYX   0.000000   0.000000   0.000000   0.000000   0.000000
   81  P  1YYYZ   0.000000   0.000000   0.000000   0.000000   0.000000
   82  P  1ZZZX   0.000000   0.000000   0.000000   0.000000   0.000000
   83  P  1ZZZY   0.000000   0.000000   0.000000   0.000000   0.000000
   84  P  1XXYY   0.000000   0.000000   0.000000   0.000000   0.000000
   85  P  1XXZZ   0.000000   0.000000   0.000000   0.000000   0.000000
   86  P  1YYZZ   0.000000   0.000000   0.000000   0.000000   0.000000
   87  P  1XXYZ   0.000000   0.000000   0.000000   0.000000   0.000000
   88  P  1YYXZ   0.000000   0.000000   0.000000   0.000000   0.000000
   89  P  1ZZXY   0.000000   0.000000   0.000000   0.000000   0.000000
   90  P  1XXXX   0.000000   0.000000   0.000000   0.000000   0.000000
   91  P  1YYYY   0.000000   0.000000   0.000000   0.000000   0.000000
   92  P  1ZZZZ   0.000000   0.000000   0.000000   0.000000   0.000000
   93  P  1XXXY   0.000000   0.000000   0.000000   0.000000   0.000000
   94  P  1XXXZ   0.000000   0.000000   0.000000   0.000000   0.000000
   95  P  1YYYX   0.000000   0.000000   0.000000   0.000000   0.000000
   96  P  1YYYZ   0.000000   0.000000   0.000000   0.000000   0.000000
   97  P  1ZZZX   0.000000   0.000000   0.000000   0.000000   0.000000
   98  P  1ZZZY   0.000000   0.000000   0.000000   0.000000   0.000000
   99  P  1XXYY   0.000000   0.000000   0.000000   0.000000   0.000000
  100  P  1XXZZ   0.000000   0.000000   0.000000   0.000000   0.000000
  101  P  1YYZZ   0.000000   0.000000   0.000000   0.000000   0.000000
  102  P  1XXYZ   0.000000   0.000000   0.000000   0.000000   0.000000
  103  P  1YYXZ   0.000000   0.000000   0.000000   0.000000   0.000000
  104  P  1ZZXY   0.000000   0.000000   0.000000   0.000000   0.000000

                      6          7          8          9         10
                    0.2457     0.2457     0.2457     0.2576     0.2576
                     A          A          A          A          A   
    1  P  1  S    0.000000   0.000000   0.000000   0.000000   0.000000
    2  P  1  S    0.000000   0.000000   0.000000   0.000000   0.000000
    3  P  1  S    0.000000   0.000000   0.000000   0.000000   0.000000
    4  P  1  S    0.000000   0.000000   0.000000   0.000000   0.000000
    5  P  1  S    0.000000   0.000000   0.000000   0.000000   0.000000
    6  P  1  X    5.346799   0.000000   0.000000   0.000000   0.000000
    7  P  1  Y    0.000000   5.346799   0.000000   0.000000   0.000000
    8  P  1  Z    0.000000   0.000000   5.346799   0.000000   0.000000
    9  P  1  X    0.459446   0.000000   0.000000   0.000000   0.000000
   10  P  1  Y    0.000000   0.459446   0.000000   0.000000   0.000000
   11  P  1  Z    0.000000   0.000000   0.459446   0.000000   0.000000
   12  P  1  X   -0.842245   0.000000   0.000000   0.000000   0.000000
   13  P  1  Y    0.000000  -0.842245   0.000000   0.000000   0.000000
   14  P  1  Z    0.000000   0.000000  -0.842245   0.000000   0.000000
   15  P  1  X   -0.989772   0.000000   0.000000   0.000000   0.000000
   16  P  1  Y    0.000000  -0.989772   0.000000   0.000000   0.000000
   17  P  1  Z    0.000000   0.000000  -0.989772   0.000000   0.000000
   18  P  1  X   -4.191487   0.000000   0.000000   0.000000   0.000000
   19  P  1  Y    0.000000  -4.191487   0.000000   0.000000   0.000000
   20  P  1  Z    0.000000   0.000000  -4.191487   0.000000   0.000000
   21  P  1 XX    0.000000   0.000000   0.000000   0.000000   0.000000
   22  P  1 YY    0.000000   0.000000   0.000000   0.000000   0.000000
   23  P  1 ZZ    0.000000   0.000000   0.000000   0.000000   0.000000
   24  P  1 XY    0.000000   0.000000   0.000000   0.000000   0.016755
   25  P  1 XZ    0.000000   0.000000   0.000000   0.000000   0.000000
   26  P  1 YZ    0.000000   0.000000   0.000000   0.016755   0.000000
   27  P  1 XX    0.000000   0.000000   0.000000   0.000000   0.000000
   28  P  1 YY    0.000000   0.000000   0.000000   0.000000   0.000000
   29  P  1 ZZ    0.000000   0.000000   0.000000   0.000000   0.000000
   30  P  1 XY    0.000000   0.000000   0.000000   0.000000   0.125936
   31  P  1 XZ    0.000000   0.000000   0.000000   0.000000   0.000000
   32  P  1 YZ    0.000000   0.000000   0.000000   0.125936   0.000000
   33  P  1 XX    0.000000   0.000000   0.000000   0.000000   0.000000
   34  P  1 YY    0.000000   0.000000   0.000000   0.000000   0.000000
   35  P  1 ZZ    0.000000   0.000000   0.000000   0.000000   0.000000
   36  P  1 XY    0.000000   0.000000   0.000000   0.000000   0.047477
   37  P  1 XZ    0.000000   0.000000   0.000000   0.000000   0.000000
   38  P  1 YZ    0.000000   0.000000   0.000000   0.047477   0.000000
   39  P  1 XX    0.000000   0.000000   0.000000   0.000000   0.000000
   40  P  1 YY    0.000000   0.000000   0.000000   0.000000   0.000000
   41  P  1 ZZ    0.000000   0.000000   0.000000   0.000000   0.000000
   42  P  1 XY    0.000000   0.000000   0.000000   0.000000   0.919616
   43  P  1 XZ    0.000000   0.000000   0.000000   0.000000   0.000000
   44  P  1 YZ    0.000000   0.000000   0.000000   0.919616   0.000000
   45  P  1 XXX   0.000000   0.000000   0.000000   0.000000   0.000000
   46  P  1 YYY   0.000000   0.000000   0.000000   0.000000   0.000000
   47  P  1 ZZZ   0.000000   0.000000   0.000000   0.000000   0.000000
   48  P  1 XXY   0.000000   0.000000   0.000000   0.000000   0.000000
   49  P  1 XXZ   0.000000   0.000000   0.000000   0.000000   0.000000
   50  P  1 YYX   0.000000   0.000000   0.000000   0.000000   0.000000
   51  P  1 YYZ   0.000000   0.000000   0.000000   0.000000   0.000000
   52  P  1 ZZX   0.000000   0.000000   0.000000   0.000000   0.000000
   53  P  1 ZZY   0.000000   0.000000   0.000000   0.000000   0.000000
   54  P  1 XYZ   0.000000   0.000000   0.000000   0.000000   0.000000
   55  P  1 XXX   0.000000   0.000000   0.000000   0.000000   0.000000
   56  P  1 YYY   0.000000   0.000000   0.000000   0.000000   0.000000
   57  P  1 ZZZ   0.000000   0.000000   0.000000   0.000000   0.000000
   58  P  1 XXY   0.000000   0.000000   0.000000   0.000000   0.000000
   59  P  1 XXZ   0.000000   0.000000   0.000000   0.000000   0.000000
   60  P  1 YYX   0.000000   0.000000   0.000000   0.000000   0.000000
   61  P  1 YYZ   0.000000   0.000000   0.000000   0.000000   0.000000
   62  P  1 ZZX   0.000000   0.000000   0.000000   0.000000   0.000000
   63  P  1 ZZY   0.000000   0.000000   0.000000   0.000000   0.000000
   64  P  1 XYZ   0.000000   0.000000   0.000000   0.000000   0.000000
   65  P  1 XXX   0.000000   0.000000   0.000000   0.000000   0.000000
   66  P  1 YYY   0.000000   0.000000   0.000000   0.000000   0.000000
   67  P  1 ZZZ   0.000000   0.000000   0.000000   0.000000   0.000000
   68  P  1 XXY   0.000000   0.000000   0.000000   0.000000   0.000000
   69  P  1 XXZ   0.000000   0.000000   0.000000   0.000000   0.000000
   70  P  1 YYX   0.000000   0.000000   0.000000   0.000000   0.000000
   71  P  1 YYZ   0.000000   0.000000   0.000000   0.000000   0.000000
   72  P  1 ZZX   0.000000   0.000000   0.000000   0.000000   0.000000
   73  P  1 ZZY   0.000000   0.000000   0.000000   0.000000   0.000000
   74  P  1 XYZ   0.000000   0.000000   0.000000   0.000000   0.000000
   75  P  1XXXX   0.000000   0.000000   0.000000   0.000000   0.000000
   76  P  1YYYY   0.000000   0.000000   0.000000   0.000000   0.000000
   77  P  1ZZZZ   0.000000   0.000000   0.000000   0.000000   0.000000
   78  P  1XXXY   0.000000   0.000000   0.000000   0.000000   0.000000
   79  P  1XXXZ   0.000000   0.000000   0.000000   0.000000   0.000000
   80  P  1YYYX   0.000000   0.000000   0.000000   0.000000   0.000000
   81  P  1YYYZ   0.000000   0.000000   0.000000   0.000000   0.000000
   82  P  1ZZZX   0.000000   0.000000   0.000000   0.000000   0.000000
   83  P  1ZZZY   0.000000   0.000000   0.000000   0.000000   0.000000
   84  P  1XXYY   0.000000   0.000000   0.000000   0.000000   0.000000
   85  P  1XXZZ   0.000000   0.000000   0.000000   0.000000   0.000000
   86  P  1YYZZ   0.000000   0.000000   0.000000   0.000000   0.000000
   87  P  1XXYZ   0.000000   0.000000   0.000000   0.000000   0.000000
   88  P  1YYXZ   0.000000   0.000000   0.000000   0.000000   0.000000
   89  P  1ZZXY   0.000000   0.000000   0.000000   0.000000   0.000000
   90  P  1XXXX   0.000000   0.000000   0.000000   0.000000   0.000000
   91  P  1YYYY   0.000000   0.000000   0.000000   0.000000   0.000000
   92  P  1ZZZZ   0.000000   0.000000   0.000000   0.000000   0.000000
   93  P  1XXXY   0.000000   0.000000   0.000000   0.000000   0.000000
   94  P  1XXXZ   0.000000   0.000000   0.000000   0.000000   0.000000
   95  P  1YYYX   0.000000   0.000000   0.000000   0.000000   0.000000
   96  P  1YYYZ   0.000000   0.000000   0.000000   0.000000   0.000000
   97  P  1ZZZX   0.000000   0.000000   0.000000   0.000000   0.000000
   98  P  1ZZZY   0.000000   0.000000   0.000000   0.000000   0.000000
   99  P  1XXYY   0.000000   0.000000   0.000000   0.000000   0.000000
  100  P  1XXZZ   0.000000   0.000000   0.000000   0.000000   0.000000
  101  P  1YYZZ   0.000000   0.000000   0.000000   0.000000   0.000000
  102  P  1XXYZ   0.000000   0.000000   0.000000   0.000000   0.000000
  103  P  1YYXZ   0.000000   0.000000   0.000000   0.000000   0.000000
  104  P  1ZZXY   0.000000   0.000000   0.000000   0.000000   0.000000

                     11         12         13         14         15
                    0.2576     0.2576     0.2576     0.7689     0.7689
                     A          A          A          A          A   
    1  P  1  S    0.000000   0.000000   0.000000   0.000000   0.000000
    2  P  1  S    0.000000   0.000000   0.000000   0.000000   0.000000
    3  P  1  S    0.000000   0.000000   0.000000   0.000000   0.000000
    4  P  1  S    0.000000   0.000000   0.000000   0.000000   0.000000
    5  P  1  S    0.000000   0.000000   0.000000   0.000000   0.000000
    6  P  1  X    0.000000   0.000000   0.000000   0.000000   0.000000
    7  P  1  Y    0.000000   0.000000   0.000000   0.000000   0.000000
    8  P  1  Z    0.000000   0.000000   0.000000   0.000000   0.000000
    9  P  1  X    0.000000   0.000000   0.000000   0.000000   0.000000
   10  P  1  Y    0.000000   0.000000   0.000000   0.000000   0.000000
   11  P  1  Z    0.000000   0.000000   0.000000   0.000000   0.000000
   12  P  1  X    0.000000   0.000000   0.000000   0.000000   0.000000
   13  P  1  Y    0.000000   0.000000   0.000000   0.000000   0.000000
   14  P  1  Z    0.000000   0.000000   0.000000   0.000000   0.000000
   15  P  1  X    0.000000   0.000000   0.000000   0.000000   0.000000
   16  P  1  Y    0.000000   0.000000   0.000000   0.000000   0.000000
   17  P  1  Z    0.000000   0.000000   0.000000   0.000000   0.000000
   18  P  1  X    0.000000   0.000000   0.000000   0.000000   0.000000
   19  P  1  Y    0.000000   0.000000   0.000000   0.000000   0.000000
   20  P  1  Z    0.000000   0.000000   0.000000   0.000000   0.000000
   21  P  1 XX   -0.008378   0.000000   0.014510   0.000000   0.000000
   22  P  1 YY   -0.008378   0.000000  -0.014510   0.000000   0.000000
   23  P  1 ZZ    0.016755   0.000000   0.000000   0.000000   0.000000
   24  P  1 XY    0.000000   0.000000   0.000000   0.000000   0.000000
   25  P  1 XZ    0.000000   0.016755   0.000000   0.000000   0.000000
   26  P  1 YZ    0.000000   0.000000   0.000000   0.000000   0.000000
   27  P  1 XX   -0.062968   0.000000   0.109063   0.000000   0.000000
   28  P  1 YY   -0.062968   0.000000  -0.109063   0.000000   0.000000
   29  P  1 ZZ    0.125936   0.000000   0.000000   0.000000   0.000000
   30  P  1 XY    0.000000   0.000000   0.000000   0.000000   0.000000
   31  P  1 XZ    0.000000   0.125936   0.000000   0.000000   0.000000
   32  P  1 YZ    0.000000   0.000000   0.000000   0.000000   0.000000
   33  P  1 XX   -0.023739   0.000000   0.041117   0.000000   0.000000
   34  P  1 YY   -0.023739   0.000000  -0.041117   0.000000   0.000000
   35  P  1 ZZ    0.047477   0.000000   0.000000   0.000000   0.000000
   36  P  1 XY    0.000000   0.000000   0.000000   0.000000   0.000000
   37  P  1 XZ    0.000000   0.047477   0.000000   0.000000   0.000000
   38  P  1 YZ    0.000000   0.000000   0.000000   0.000000   0.000000
   39  P  1 XX   -0.459808   0.000000   0.796411   0.000000   0.000000
   40  P  1 YY   -0.459808   0.000000  -0.796411   0.000000   0.000000
   41  P  1 ZZ    0.919616   0.000000   0.000000   0.000000   0.000000
   42  P  1 XY    0.000000   0.000000   0.000000   0.000000   0.000000
   43  P  1 XZ    0.000000   0.919616   0.000000   0.000000   0.000000
   44  P  1 YZ    0.000000   0.000000   0.000000   0.000000   0.000000
   45  P  1 XXX   0.000000   0.000000   0.000000   0.000000   0.000000
   46  P  1 YYY   0.000000   0.000000   0.000000   0.000000   0.000000
   47  P  1 ZZZ   0.000000   0.000000   0.000000   0.000000   0.000000
   48  P  1 XXY   0.000000   0.000000   0.000000   0.000000   0.000000
   49  P  1 XXZ   0.000000   0.000000   0.000000   0.000000   0.108016
   50  P  1 YYX   0.000000   0.000000   0.000000   0.000000   0.000000
   51  P  1 YYZ   0.000000   0.000000   0.000000   0.000000  -0.108016
   52  P  1 ZZX   0.000000   0.000000   0.000000   0.000000   0.000000
   53  P  1 ZZY   0.000000   0.000000   0.000000   0.000000   0.000000
   54  P  1 XYZ   0.000000   0.000000   0.000000   0.124726   0.000000
   55  P  1 XXX   0.000000   0.000000   0.000000   0.000000   0.000000
   56  P  1 YYY   0.000000   0.000000   0.000000   0.000000   0.000000
   57  P  1 ZZZ   0.000000   0.000000   0.000000   0.000000   0.000000
   58  P  1 XXY   0.000000   0.000000   0.000000   0.000000   0.000000
   59  P  1 XXZ   0.000000   0.000000   0.000000   0.000000  -0.318633
   60  P  1 YYX   0.000000   0.000000   0.000000   0.000000   0.000000
   61  P  1 YYZ   0.000000   0.000000   0.000000   0.000000   0.318633
   62  P  1 ZZX   0.000000   0.000000   0.000000   0.000000   0.000000
   63  P  1 ZZY   0.000000   0.000000   0.000000   0.000000   0.000000
   64  P  1 XYZ   0.000000   0.000000   0.000000  -0.367926   0.000000
   65  P  1 XXX   0.000000   0.000000   0.000000   0.000000   0.000000
   66  P  1 YYY   0.000000   0.000000   0.000000   0.000000   0.000000
   67  P  1 ZZZ   0.000000   0.000000   0.000000   0.000000   0.000000
   68  P  1 XXY   0.000000   0.000000   0.000000   0.000000   0.000000
   69  P  1 XXZ   0.000000   0.000000   0.000000   0.000000   1.052541
   70  P  1 YYX   0.000000   0.000000   0.000000   0.000000   0.000000
   71  P  1 YYZ   0.000000   0.000000   0.000000   0.000000  -1.052541
   72  P  1 ZZX   0.000000   0.000000   0.000000   0.000000   0.000000
   73  P  1 ZZY   0.000000   0.000000   0.000000   0.000000   0.000000
   74  P  1 XYZ   0.000000   0.000000   0.000000   1.215369   0.000000
   75  P  1XXXX   0.000000   0.000000   0.000000   0.000000   0.000000
   76  P  1YYYY   0.000000   0.000000   0.000000   0.000000   0.000000
   77  P  1ZZZZ   0.000000   0.000000   0.000000   0.000000   0.000000
   78  P  1XXXY   0.000000   0.000000   0.000000   0.000000   0.000000
   79  P  1XXXZ   0.000000   0.000000   0.000000   0.000000   0.000000
   80  P  1YYYX   0.000000   0.000000   0.000000   0.000000   0.000000
   81  P  1YYYZ   0.000000   0.000000   0.000000   0.000000   0.000000
   82  P  1ZZZX   0.000000   0.000000   0.000000   0.000000   0.000000
   83  P  1ZZZY   0.000000   0.000000   0.000000   0.000000   0.000000
   84  P  1XXYY   0.000000   0.000000   0.000000   0.000000   0.000000
   85  P  1XXZZ   0.000000   0.000000   0.000000   0.000000   0.000000
   86  P  1YYZZ   0.000000   0.000000   0.000000   0.000000   0.000000
   87  P  1XXYZ   0.000000   0.000000   0.000000   0.000000   0.000000
   88  P  1YYXZ   0.000000   0.000000   0.000000   0.000000   0.000000
   89  P  1ZZXY   0.000000   0.000000   0.000000   0.000000   0.000000
   90  P  1XXXX   0.000000   0.000000   0.000000   0.000000   0.000000
   91  P  1YYYY   0.000000   0.000000   0.000000   0.000000   0.000000
   92  P  1ZZZZ   0.000000   0.000000   0.000000   0.000000   0.000000
   93  P  1XXXY   0.000000   0.000000   0.000000   0.000000   0.000000
   94  P  1XXXZ   0.000000   0.000000   0.000000   0.000000   0.000000
   95  P  1YYYX   0.000000   0.000000   0.000000   0.000000   0.000000
   96  P  1YYYZ   0.000000   0.000000   0.000000   0.000000   0.000000
   97  P  1ZZZX   0.000000   0.000000   0.000000   0.000000   0.000000
   98  P  1ZZZY   0.000000   0.000000   0.000000   0.000000   0.000000
   99  P  1XXYY   0.000000   0.000000   0.000000   0.000000   0.000000
  100  P  1XXZZ   0.000000   0.000000   0.000000   0.000000   0.000000
  101  P  1YYZZ   0.000000   0.000000   0.000000   0.000000   0.000000
  102  P  1XXYZ   0.000000   0.000000   0.000000   0.000000   0.000000
  103  P  1YYXZ   0.000000   0.000000   0.000000   0.000000   0.000000
  104  P  1ZZXY   0.000000   0.000000   0.000000   0.000000   0.000000

                     16         17         18         19         20
                    0.7689     0.7689     0.7689     0.7689     0.7689
                     A          A          A          A          A   
    1  P  1  S    0.000000   0.000000   0.000000   0.000000   0.000000
    2  P  1  S    0.000000   0.000000   0.000000   0.000000   0.000000
    3  P  1  S    0.000000   0.000000   0.000000   0.000000   0.000000
    4  P  1  S    0.000000   0.000000   0.000000   0.000000   0.000000
    5  P  1  S    0.000000   0.000000   0.000000   0.000000   0.000000
    6  P  1  X    0.000000   0.000000   0.000000   0.000000   0.000000
    7  P  1  Y    0.000000   0.000000   0.000000   0.000000   0.000000
    8  P  1  Z    0.000000   0.000000   0.000000   0.000000   0.000000
    9  P  1  X    0.000000   0.000000   0.000000   0.000000   0.000000
   10  P  1  Y    0.000000   0.000000   0.000000   0.000000   0.000000
   11  P  1  Z    0.000000   0.000000   0.000000   0.000000   0.000000
   12  P  1  X    0.000000   0.000000   0.000000   0.000000   0.000000
   13  P  1  Y    0.000000   0.000000   0.000000   0.000000   0.000000
   14  P  1  Z    0.000000   0.000000   0.000000   0.000000   0.000000
   15  P  1  X    0.000000   0.000000   0.000000   0.000000   0.000000
   16  P  1  Y    0.000000   0.000000   0.000000   0.000000   0.000000
   17  P  1  Z    0.000000   0.000000   0.000000   0.000000   0.000000
   18  P  1  X    0.000000   0.000000   0.000000   0.000000   0.000000
   19  P  1  Y    0.000000   0.000000   0.000000   0.000000   0.000000
   20  P  1  Z    0.000000   0.000000   0.000000   0.000000   0.000000
   21  P  1 XX    0.000000   0.000000   0.000000   0.000000   0.000000
   22  P  1 YY    0.000000   0.000000   0.000000   0.000000   0.000000
   23  P  1 ZZ    0.000000   0.000000   0.000000   0.000000   0.000000
   24  P  1 XY    0.000000   0.000000   0.000000   0.000000   0.000000
   25  P  1 XZ    0.000000   0.000000   0.000000   0.000000   0.000000
   26  P  1 YZ    0.000000   0.000000   0.000000   0.000000   0.000000
   27  P  1 XX    0.000000   0.000000   0.000000   0.000000   0.000000
   28  P  1 YY    0.000000   0.000000   0.000000   0.000000   0.000000
   29  P  1 ZZ    0.000000   0.000000   0.000000   0.000000   0.000000
   30  P  1 XY    0.000000   0.000000   0.000000   0.000000   0.000000
   31  P  1 XZ    0.000000   0.000000   0.000000   0.000000   0.000000
   32  P  1 YZ    0.000000   0.000000   0.000000   0.000000   0.000000
   33  P  1 XX    0.000000   0.000000   0.000000   0.000000   0.000000
   34  P  1 YY    0.000000   0.000000   0.000000   0.000000   0.000000
   35  P  1 ZZ    0.000000   0.000000   0.000000   0.000000   0.000000
   36  P  1 XY    0.000000   0.000000   0.000000   0.000000   0.000000
   37  P  1 XZ    0.000000   0.000000   0.000000   0.000000   0.000000
   38  P  1 YZ    0.000000   0.000000   0.000000   0.000000   0.000000
   39  P  1 XX    0.000000   0.000000   0.000000   0.000000   0.000000
   40  P  1 YY    0.000000   0.000000   0.000000   0.000000   0.000000
   41  P  1 ZZ    0.000000   0.000000   0.000000   0.000000   0.000000
   42  P  1 XY    0.000000   0.000000   0.000000   0.000000   0.000000
   43  P  1 XZ    0.000000   0.000000   0.000000   0.000000   0.000000
   44  P  1 YZ    0.000000   0.000000   0.000000   0.000000   0.000000
   45  P  1 XXX   0.000000  -0.076379  -0.098604   0.000000   0.000000
   46  P  1 YYY  -0.076379   0.000000   0.000000  -0.098604   0.000000
   47  P  1 ZZZ   0.000000   0.000000   0.000000   0.000000   0.124726
   48  P  1 XXY  -0.034158   0.000000   0.000000   0.132292   0.000000
   49  P  1 XXZ   0.000000   0.000000   0.000000   0.000000  -0.083669
   50  P  1 YYX   0.000000  -0.034158   0.132292   0.000000   0.000000
   51  P  1 YYZ   0.000000   0.000000   0.000000   0.000000  -0.083669
   52  P  1 ZZX   0.000000   0.136630   0.000000   0.000000   0.000000
   53  P  1 ZZY   0.136630   0.000000   0.000000   0.000000   0.000000
   54  P  1 XYZ   0.000000   0.000000   0.000000   0.000000   0.000000
   55  P  1 XXX   0.000000   0.225308   0.290871   0.000000   0.000000
   56  P  1 YYY   0.225308   0.000000   0.000000   0.290871   0.000000
   57  P  1 ZZZ   0.000000   0.000000   0.000000   0.000000  -0.367926
   58  P  1 XXY   0.100761   0.000000   0.000000  -0.390244   0.000000
   59  P  1 XXZ   0.000000   0.000000   0.000000   0.000000   0.246812
   60  P  1 YYX   0.000000   0.100761  -0.390244   0.000000   0.000000
   61  P  1 YYZ   0.000000   0.000000   0.000000   0.000000   0.246812
   62  P  1 ZZX   0.000000  -0.403043   0.000000   0.000000   0.000000
   63  P  1 ZZY  -0.403043   0.000000   0.000000   0.000000   0.000000
   64  P  1 XYZ   0.000000   0.000000   0.000000   0.000000   0.000000
   65  P  1 XXX   0.000000  -0.744259  -0.960834   0.000000   0.000000
   66  P  1 YYY  -0.744259   0.000000   0.000000  -0.960834   0.000000
   67  P  1 ZZZ   0.000000   0.000000   0.000000   0.000000   1.215369
   68  P  1 XXY  -0.332843   0.000000   0.000000   1.289094   0.000000
   69  P  1 XXZ   0.000000   0.000000   0.000000   0.000000  -0.815295
   70  P  1 YYX   0.000000  -0.332843   1.289094   0.000000   0.000000
   71  P  1 YYZ   0.000000   0.000000   0.000000   0.000000  -0.815295
   72  P  1 ZZX   0.000000   1.331371   0.000000   0.000000   0.000000
   73  P  1 ZZY   1.331371   0.000000   0.000000   0.000000   0.000000
   74  P  1 XYZ   0.000000   0.000000   0.000000   0.000000   0.000000
   75  P  1XXXX   0.000000   0.000000   0.000000   0.000000   0.000000
   76  P  1YYYY   0.000000   0.000000   0.000000   0.000000   0.000000
   77  P  1ZZZZ   0.000000   0.000000   0.000000   0.000000   0.000000
   78  P  1XXXY   0.000000   0.000000   0.000000   0.000000   0.000000
   79  P  1XXXZ   0.000000   0.000000   0.000000   0.000000   0.000000
   80  P  1YYYX   0.000000   0.000000   0.000000   0.000000   0.000000
   81  P  1YYYZ   0.000000   0.000000   0.000000   0.000000   0.000000
   82  P  1ZZZX   0.000000   0.000000   0.000000   0.000000   0.000000
   83  P  1ZZZY   0.000000   0.000000   0.000000   0.000000   0.000000
   84  P  1XXYY   0.000000   0.000000   0.000000   0.000000   0.000000
   85  P  1XXZZ   0.000000   0.000000   0.000000   0.000000   0.000000
   86  P  1YYZZ   0.000000   0.000000   0.000000   0.000000   0.000000
   87  P  1XXYZ   0.000000   0.000000   0.000000   0.000000   0.000000
   88  P  1YYXZ   0.000000   0.000000   0.000000   0.000000   0.000000
   89  P  1ZZXY   0.000000   0.000000   0.000000   0.000000   0.000000
   90  P  1XXXX   0.000000   0.000000   0.000000   0.000000   0.000000
   91  P  1YYYY   0.000000   0.000000   0.000000   0.000000   0.000000
   92  P  1ZZZZ   0.000000   0.000000   0.000000   0.000000   0.000000
   93  P  1XXXY   0.000000   0.000000   0.000000   0.000000   0.000000
   94  P  1XXXZ   0.000000   0.000000   0.000000   0.000000   0.000000
   95  P  1YYYX   0.000000   0.000000   0.000000   0.000000   0.000000
   96  P  1YYYZ   0.000000   0.000000   0.000000   0.000000   0.000000
   97  P  1ZZZX   0.000000   0.000000   0.000000   0.000000   0.000000
   98  P  1ZZZY   0.000000   0.000000   0.000000   0.000000   0.000000
   99  P  1XXYY   0.000000   0.000000   0.000000   0.000000   0.000000
  100  P  1XXZZ   0.000000   0.000000   0.000000   0.000000   0.000000
  101  P  1YYZZ   0.000000   0.000000   0.000000   0.000000   0.000000
  102  P  1XXYZ   0.000000   0.000000   0.000000   0.000000   0.000000
  103  P  1YYXZ   0.000000   0.000000   0.000000   0.000000   0.000000
  104  P  1ZZXY   0.000000   0.000000   0.000000   0.000000   0.000000

                     21         22         23         24         25
                    0.9651     0.9651     0.9651     0.9651     0.9651
                     A          A          A          A          A   
    1  P  1  S    0.000000   0.000000   0.000000   0.000000   0.000000
    2  P  1  S    0.000000   0.000000   0.000000   0.000000   0.000000
    3  P  1  S    0.000000   0.000000   0.000000   0.000000   0.000000
    4  P  1  S    0.000000   0.000000   0.000000   0.000000   0.000000
    5  P  1  S    0.000000   0.000000   0.000000   0.000000   0.000000
    6  P  1  X    0.000000   0.000000   0.000000   0.000000   0.000000
    7  P  1  Y    0.000000   0.000000   0.000000   0.000000   0.000000
    8  P  1  Z    0.000000   0.000000   0.000000   0.000000   0.000000
    9  P  1  X    0.000000   0.000000   0.000000   0.000000   0.000000
   10  P  1  Y    0.000000   0.000000   0.000000   0.000000   0.000000
   11  P  1  Z    0.000000   0.000000   0.000000   0.000000   0.000000
   12  P  1  X    0.000000   0.000000   0.000000   0.000000   0.000000
   13  P  1  Y    0.000000   0.000000   0.000000   0.000000   0.000000
   14  P  1  Z    0.000000   0.000000   0.000000   0.000000   0.000000
   15  P  1  X    0.000000   0.000000   0.000000   0.000000   0.000000
   16  P  1  Y    0.000000   0.000000   0.000000   0.000000   0.000000
   17  P  1  Z    0.000000   0.000000   0.000000   0.000000   0.000000
   18  P  1  X    0.000000   0.000000   0.000000   0.000000   0.000000
   19  P  1  Y    0.000000   0.000000   0.000000   0.000000   0.000000
   20  P  1  Z    0.000000   0.000000   0.000000   0.000000   0.000000
   21  P  1 XX    0.000000   0.000000   0.000000   0.104726  -0.060463
   22  P  1 YY    0.000000   0.000000   0.000000  -0.104726  -0.060463
   23  P  1 ZZ    0.000000   0.000000   0.000000   0.000000   0.120927
   24  P  1 XY    0.120927   0.000000   0.000000   0.000000   0.000000
   25  P  1 XZ    0.000000   0.000000   0.120927   0.000000   0.000000
   26  P  1 YZ    0.000000   0.120927   0.000000   0.000000   0.000000
   27  P  1 XX    0.000000   0.000000   0.000000  -0.017703   0.010221
   28  P  1 YY    0.000000   0.000000   0.000000   0.017703   0.010221
   29  P  1 ZZ    0.000000   0.000000   0.000000   0.000000  -0.020441
   30  P  1 XY   -0.020441   0.000000   0.000000   0.000000   0.000000
   31  P  1 XZ    0.000000   0.000000  -0.020441   0.000000   0.000000
   32  P  1 YZ    0.000000  -0.020441   0.000000   0.000000   0.000000
   33  P  1 XX    0.000000   0.000000   0.000000   1.160674  -0.670115
   34  P  1 YY    0.000000   0.000000   0.000000  -1.160674  -0.670115
   35  P  1 ZZ    0.000000   0.000000   0.000000   0.000000   1.340230
   36  P  1 XY    1.340230   0.000000   0.000000   0.000000   0.000000
   37  P  1 XZ    0.000000   0.000000   1.340230   0.000000   0.000000
   38  P  1 YZ    0.000000   1.340230   0.000000   0.000000   0.000000
   39  P  1 XX    0.000000   0.000000   0.000000  -0.927617   0.535560
   40  P  1 YY    0.000000   0.000000   0.000000   0.927617   0.535560
   41  P  1 ZZ    0.000000   0.000000   0.000000   0.000000  -1.071120
   42  P  1 XY   -1.071120   0.000000   0.000000   0.000000   0.000000
   43  P  1 XZ    0.000000   0.000000  -1.071120   0.000000   0.000000
   44  P  1 YZ    0.000000  -1.071120   0.000000   0.000000   0.000000
   45  P  1 XXX   0.000000   0.000000   0.000000   0.000000   0.000000
   46  P  1 YYY   0.000000   0.000000   0.000000   0.000000   0.000000
   47  P  1 ZZZ   0.000000   0.000000   0.000000   0.000000   0.000000
   48  P  1 XXY   0.000000   0.000000   0.000000   0.000000   0.000000
   49  P  1 XXZ   0.000000   0.000000   0.000000   0.000000   0.000000
   50  P  1 YYX   0.000000   0.000000   0.000000   0.000000   0.000000
   51  P  1 YYZ   0.000000   0.000000   0.000000   0.000000   0.000000
   52  P  1 ZZX   0.000000   0.000000   0.000000   0.000000   0.000000
   53  P  1 ZZY   0.000000   0.000000   0.000000   0.000000   0.000000
   54  P  1 XYZ   0.000000   0.000000   0.000000   0.000000   0.000000
   55  P  1 XXX   0.000000   0.000000   0.000000   0.000000   0.000000
   56  P  1 YYY   0.000000   0.000000   0.000000   0.000000   0.000000
   57  P  1 ZZZ   0.000000   0.000000   0.000000   0.000000   0.000000
   58  P  1 XXY   0.000000   0.000000   0.000000   0.000000   0.000000
   59  P  1 XXZ   0.000000   0.000000   0.000000   0.000000   0.000000
   60  P  1 YYX   0.000000   0.000000   0.000000   0.000000   0.000000
   61  P  1 YYZ   0.000000   0.000000   0.000000   0.000000   0.000000
   62  P  1 ZZX   0.000000   0.000000   0.000000   0.000000   0.000000
   63  P  1 ZZY   0.000000   0.000000   0.000000   0.000000   0.000000
   64  P  1 XYZ   0.000000   0.000000   0.000000   0.000000   0.000000
   65  P  1 XXX   0.000000   0.000000   0.000000   0.000000   0.000000
   66  P  1 YYY   0.000000   0.000000   0.000000   0.000000   0.000000
   67  P  1 ZZZ   0.000000   0.000000   0.000000   0.000000   0.000000
   68  P  1 XXY   0.000000   0.000000   0.000000   0.000000   0.000000
   69  P  1 XXZ   0.000000   0.000000   0.000000   0.000000   0.000000
   70  P  1 YYX   0.000000   0.000000   0.000000   0.000000   0.000000
   71  P  1 YYZ   0.000000   0.000000   0.000000   0.000000   0.000000
   72  P  1 ZZX   0.000000   0.000000   0.000000   0.000000   0.000000
   73  P  1 ZZY   0.000000   0.000000   0.000000   0.000000   0.000000
   74  P  1 XYZ   0.000000   0.000000   0.000000   0.000000   0.000000
   75  P  1XXXX   0.000000   0.000000   0.000000   0.000000   0.000000
   76  P  1YYYY   0.000000   0.000000   0.000000   0.000000   0.000000
   77  P  1ZZZZ   0.000000   0.000000   0.000000   0.000000   0.000000
   78  P  1XXXY   0.000000   0.000000   0.000000   0.000000   0.000000
   79  P  1XXXZ   0.000000   0.000000   0.000000   0.000000   0.000000
   80  P  1YYYX   0.000000   0.000000   0.000000   0.000000   0.000000
   81  P  1YYYZ   0.000000   0.000000   0.000000   0.000000   0.000000
   82  P  1ZZZX   0.000000   0.000000   0.000000   0.000000   0.000000
   83  P  1ZZZY   0.000000   0.000000   0.000000   0.000000   0.000000
   84  P  1XXYY   0.000000   0.000000   0.000000   0.000000   0.000000
   85  P  1XXZZ   0.000000   0.000000   0.000000   0.000000   0.000000
   86  P  1YYZZ   0.000000   0.000000   0.000000   0.000000   0.000000
   87  P  1XXYZ   0.000000   0.000000   0.000000   0.000000   0.000000
   88  P  1YYXZ   0.000000   0.000000   0.000000   0.000000   0.000000
   89  P  1ZZXY   0.000000   0.000000   0.000000   0.000000   0.000000
   90  P  1XXXX   0.000000   0.000000   0.000000   0.000000   0.000000
   91  P  1YYYY   0.000000   0.000000   0.000000   0.000000   0.000000
   92  P  1ZZZZ   0.000000   0.000000   0.000000   0.000000   0.000000
   93  P  1XXXY   0.000000   0.000000   0.000000   0.000000   0.000000
   94  P  1XXXZ   0.000000   0.000000   0.000000   0.000000   0.000000
   95  P  1YYYX   0.000000   0.000000   0.000000   0.000000   0.000000
   96  P  1YYYZ   0.000000   0.000000   0.000000   0.000000   0.000000
   97  P  1ZZZX   0.000000   0.000000   0.000000   0.000000   0.000000
   98  P  1ZZZY   0.000000   0.000000   0.000000   0.000000   0.000000
   99  P  1XXYY   0.000000   0.000000   0.000000   0.000000   0.000000
  100  P  1XXZZ   0.000000   0.000000   0.000000   0.000000   0.000000
  101  P  1YYZZ   0.000000   0.000000   0.000000   0.000000   0.000000
  102  P  1XXYZ   0.000000   0.000000   0.000000   0.000000   0.000000
  103  P  1YYXZ   0.000000   0.000000   0.000000   0.000000   0.000000
  104  P  1ZZXY   0.000000   0.000000   0.000000   0.000000   0.000000

                     26         27         28         29         30
                    1.0009     1.1175     1.1175     1.1175     1.8971
                     A          A          A          A          A   
    1  P  1  S   -1.151312   0.000000   0.000000   0.000000   0.000000
    2  P  1  S   -2.495359   0.000000   0.000000   0.000000   0.000000
    3  P  1  S    7.169028   0.000000   0.000000   0.000000   0.000000
    4  P  1  S   -6.133337   0.000000   0.000000   0.000000   0.000000
    5  P  1  S    2.768970   0.000000   0.000000   0.000000   0.000000
    6  P  1  X    0.000000  -3.875177   0.000000   0.000000   0.000000
    7  P  1  Y    0.000000   0.000000   0.000000  -3.875177   0.000000
    8  P  1  Z    0.000000   0.000000  -3.875177   0.000000   0.000000
    9  P  1  X    0.000000  -0.364348   0.000000   0.000000   0.000000
   10  P  1  Y    0.000000   0.000000   0.000000  -0.364348   0.000000
   11  P  1  Z    0.000000   0.000000  -0.364348   0.000000   0.000000
   12  P  1  X    0.000000   1.186047   0.000000   0.000000   0.000000
   13  P  1  Y    0.000000   0.000000   0.000000   1.186047   0.000000
   14  P  1  Z    0.000000   0.000000   1.186047   0.000000   0.000000
   15  P  1  X    0.000000  -2.402202   0.000000   0.000000   0.000000
   16  P  1  Y    0.000000   0.000000   0.000000  -2.402202   0.000000
   17  P  1  Z    0.000000   0.000000  -2.402202   0.000000   0.000000
   18  P  1  X    0.000000   5.454766   0.000000   0.000000   0.000000
   19  P  1  Y    0.000000   0.000000   0.000000   5.454766   0.000000
   20  P  1  Z    0.000000   0.000000   5.454766   0.000000   0.000000
   21  P  1 XX    0.000000   0.000000   0.000000   0.000000   0.000000
   22  P  1 YY    0.000000   0.000000   0.000000   0.000000   0.000000
   23  P  1 ZZ    0.000000   0.000000   0.000000   0.000000   0.000000
   24  P  1 XY    0.000000   0.000000   0.000000   0.000000   0.000000
   25  P  1 XZ    0.000000   0.000000   0.000000   0.000000   0.000000
   26  P  1 YZ    0.000000   0.000000   0.000000   0.000000   0.000000
   27  P  1 XX    0.000000   0.000000   0.000000   0.000000   0.000000
   28  P  1 YY    0.000000   0.000000   0.000000   0.000000   0.000000
   29  P  1 ZZ    0.000000   0.000000   0.000000   0.000000   0.000000
   30  P  1 XY    0.000000   0.000000   0.000000   0.000000   0.000000
   31  P  1 XZ    0.000000   0.000000   0.000000   0.000000   0.000000
   32  P  1 YZ    0.000000   0.000000   0.000000   0.000000   0.000000
   33  P  1 XX    0.000000   0.000000   0.000000   0.000000   0.000000
   34  P  1 YY    0.000000   0.000000   0.000000   0.000000   0.000000
   35  P  1 ZZ    0.000000   0.000000   0.000000   0.000000   0.000000
   36  P  1 XY    0.000000   0.000000   0.000000   0.000000   0.000000
   37  P  1 XZ    0.000000   0.000000   0.000000   0.000000   0.000000
   38  P  1 YZ    0.000000   0.000000   0.000000   0.000000   0.000000
   39  P  1 XX    0.000000   0.000000   0.000000   0.000000   0.000000
   40  P  1 YY    0.000000   0.000000   0.000000   0.000000   0.000000
   41  P  1 ZZ    0.000000   0.000000   0.000000   0.000000   0.000000
   42  P  1 XY    0.000000   0.000000   0.000000   0.000000   0.000000
   43  P  1 XZ    0.000000   0.000000   0.000000   0.000000   0.000000
   44  P  1 YZ    0.000000   0.000000   0.000000   0.000000   0.000000
   45  P  1 XXX   0.000000   0.000000   0.000000   0.000000   0.000000
   46  P  1 YYY   0.000000   0.000000   0.000000   0.000000   0.000000
   47  P  1 ZZZ   0.000000   0.000000   0.000000   0.000000   0.000000
   48  P  1 XXY   0.000000   0.000000   0.000000   0.000000   0.000000
   49  P  1 XXZ   0.000000   0.000000   0.000000   0.000000   0.000000
   50  P  1 YYX   0.000000   0.000000   0.000000   0.000000   0.000000
   51  P  1 YYZ   0.000000   0.000000   0.000000   0.000000   0.000000
   52  P  1 ZZX   0.000000   0.000000   0.000000   0.000000   0.000000
   53  P  1 ZZY   0.000000   0.000000   0.000000   0.000000   0.000000
   54  P  1 XYZ   0.000000   0.000000   0.000000   0.000000   0.000000
   55  P  1 XXX   0.000000   0.000000   0.000000   0.000000   0.000000
   56  P  1 YYY   0.000000   0.000000   0.000000   0.000000   0.000000
   57  P  1 ZZZ   0.000000   0.000000   0.000000   0.000000   0.000000
   58  P  1 XXY   0.000000   0.000000   0.000000   0.000000   0.000000
   59  P  1 XXZ   0.000000   0.000000   0.000000   0.000000   0.000000
   60  P  1 YYX   0.000000   0.000000   0.000000   0.000000   0.000000
   61  P  1 YYZ   0.000000   0.000000   0.000000   0.000000   0.000000
   62  P  1 ZZX   0.000000   0.000000   0.000000   0.000000   0.000000
   63  P  1 ZZY   0.000000   0.000000   0.000000   0.000000   0.000000
   64  P  1 XYZ   0.000000   0.000000   0.000000   0.000000   0.000000
   65  P  1 XXX   0.000000   0.000000   0.000000   0.000000   0.000000
   66  P  1 YYY   0.000000   0.000000   0.000000   0.000000   0.000000
   67  P  1 ZZZ   0.000000   0.000000   0.000000   0.000000   0.000000
   68  P  1 XXY   0.000000   0.000000   0.000000   0.000000   0.000000
   69  P  1 XXZ   0.000000   0.000000   0.000000   0.000000   0.000000
   70  P  1 YYX   0.000000   0.000000   0.000000   0.000000   0.000000
   71  P  1 YYZ   0.000000   0.000000   0.000000   0.000000   0.000000
   72  P  1 ZZX   0.000000   0.000000   0.000000   0.000000   0.000000
   73  P  1 ZZY   0.000000   0.000000   0.000000   0.000000   0.000000
   74  P  1 XYZ   0.000000   0.000000   0.000000   0.000000   0.000000
   75  P  1XXXX   0.000000   0.000000   0.000000   0.000000   0.000000
   76  P  1YYYY   0.000000   0.000000   0.000000   0.000000   0.000000
   77  P  1ZZZZ   0.000000   0.000000   0.000000   0.000000   0.000000
   78  P  1XXXY   0.000000   0.000000   0.000000   0.000000  -0.227941
   79  P  1XXXZ   0.000000   0.000000   0.000000   0.000000   0.000000
   80  P  1YYYX   0.000000   0.000000   0.000000   0.000000   0.227941
   81  P  1YYYZ   0.000000   0.000000   0.000000   0.000000   0.000000
   82  P  1ZZZX   0.000000   0.000000   0.000000   0.000000   0.000000
   83  P  1ZZZY   0.000000   0.000000   0.000000   0.000000   0.000000
   84  P  1XXYY   0.000000   0.000000   0.000000   0.000000   0.000000
   85  P  1XXZZ   0.000000   0.000000   0.000000   0.000000   0.000000
   86  P  1YYZZ   0.000000   0.000000   0.000000   0.000000   0.000000
   87  P  1XXYZ   0.000000   0.000000   0.000000   0.000000   0.000000
   88  P  1YYXZ   0.000000   0.000000   0.000000   0.000000   0.000000
   89  P  1ZZXY   0.000000   0.000000   0.000000   0.000000   0.000000
   90  P  1XXXX   0.000000   0.000000   0.000000   0.000000   0.000000
   91  P  1YYYY   0.000000   0.000000   0.000000   0.000000   0.000000
   92  P  1ZZZZ   0.000000   0.000000   0.000000   0.000000   0.000000
   93  P  1XXXY   0.000000   0.000000   0.000000   0.000000   1.252465
   94  P  1XXXZ   0.000000   0.000000   0.000000   0.000000   0.000000
   95  P  1YYYX   0.000000   0.000000   0.000000   0.000000  -1.252465
   96  P  1YYYZ   0.000000   0.000000   0.000000   0.000000   0.000000
   97  P  1ZZZX   0.000000   0.000000   0.000000   0.000000   0.000000
   98  P  1ZZZY   0.000000   0.000000   0.000000   0.000000   0.000000
   99  P  1XXYY   0.000000   0.000000   0.000000   0.000000   0.000000
  100  P  1XXZZ   0.000000   0.000000   0.000000   0.000000   0.000000
  101  P  1YYZZ   0.000000   0.000000   0.000000   0.000000   0.000000
  102  P  1XXYZ   0.000000   0.000000   0.000000   0.000000   0.000000
  103  P  1YYXZ   0.000000   0.000000   0.000000   0.000000   0.000000
  104  P  1ZZXY   0.000000   0.000000   0.000000   0.000000   0.000000

                     31         32         33         34         35
                    1.8971     1.8971     1.8971     1.8971     1.8971
                     A          A          A          A          A   
    1  P  1  S    0.000000   0.000000   0.000000   0.000000   0.000000
    2  P  1  S    0.000000   0.000000   0.000000   0.000000   0.000000
    3  P  1  S    0.000000   0.000000   0.000000   0.000000   0.000000
    4  P  1  S    0.000000   0.000000   0.000000   0.000000   0.000000
    5  P  1  S    0.000000   0.000000   0.000000   0.000000   0.000000
    6  P  1  X    0.000000   0.000000   0.000000   0.000000   0.000000
    7  P  1  Y    0.000000   0.000000   0.000000   0.000000   0.000000
    8  P  1  Z    0.000000   0.000000   0.000000   0.000000   0.000000
    9  P  1  X    0.000000   0.000000   0.000000   0.000000   0.000000
   10  P  1  Y    0.000000   0.000000   0.000000   0.000000   0.000000
   11  P  1  Z    0.000000   0.000000   0.000000   0.000000   0.000000
   12  P  1  X    0.000000   0.000000   0.000000   0.000000   0.000000
   13  P  1  Y    0.000000   0.000000   0.000000   0.000000   0.000000
   14  P  1  Z    0.000000   0.000000   0.000000   0.000000   0.000000
   15  P  1  X    0.000000   0.000000   0.000000   0.000000   0.000000
   16  P  1  Y    0.000000   0.000000   0.000000   0.000000   0.000000
   17  P  1  Z    0.000000   0.000000   0.000000   0.000000   0.000000
   18  P  1  X    0.000000   0.000000   0.000000   0.000000   0.000000
   19  P  1  Y    0.000000   0.000000   0.000000   0.000000   0.000000
   20  P  1  Z    0.000000   0.000000   0.000000   0.000000   0.000000
   21  P  1 XX    0.000000   0.000000   0.000000   0.000000   0.000000
   22  P  1 YY    0.000000   0.000000   0.000000   0.000000   0.000000
   23  P  1 ZZ    0.000000   0.000000   0.000000   0.000000   0.000000
   24  P  1 XY    0.000000   0.000000   0.000000   0.000000   0.000000
   25  P  1 XZ    0.000000   0.000000   0.000000   0.000000   0.000000
   26  P  1 YZ    0.000000   0.000000   0.000000   0.000000   0.000000
   27  P  1 XX    0.000000   0.000000   0.000000   0.000000   0.000000
   28  P  1 YY    0.000000   0.000000   0.000000   0.000000   0.000000
   29  P  1 ZZ    0.000000   0.000000   0.000000   0.000000   0.000000
   30  P  1 XY    0.000000   0.000000   0.000000   0.000000   0.000000
   31  P  1 XZ    0.000000   0.000000   0.000000   0.000000   0.000000
   32  P  1 YZ    0.000000   0.000000   0.000000   0.000000   0.000000
   33  P  1 XX    0.000000   0.000000   0.000000   0.000000   0.000000
   34  P  1 YY    0.000000   0.000000   0.000000   0.000000   0.000000
   35  P  1 ZZ    0.000000   0.000000   0.000000   0.000000   0.000000
   36  P  1 XY    0.000000   0.000000   0.000000   0.000000   0.000000
   37  P  1 XZ    0.000000   0.000000   0.000000   0.000000   0.000000
   38  P  1 YZ    0.000000   0.000000   0.000000   0.000000   0.000000
   39  P  1 XX    0.000000   0.000000   0.000000   0.000000   0.000000
   40  P  1 YY    0.000000   0.000000   0.000000   0.000000   0.000000
   41  P  1 ZZ    0.000000   0.000000   0.000000   0.000000   0.000000
   42  P  1 XY    0.000000   0.000000   0.000000   0.000000   0.000000
   43  P  1 XZ    0.000000   0.000000   0.000000   0.000000   0.000000
   44  P  1 YZ    0.000000   0.000000   0.000000   0.000000   0.000000
   45  P  1 XXX   0.000000   0.000000   0.000000   0.000000   0.000000
   46  P  1 YYY   0.000000   0.000000   0.000000   0.000000   0.000000
   47  P  1 ZZZ   0.000000   0.000000   0.000000   0.000000   0.000000
   48  P  1 XXY   0.000000   0.000000   0.000000   0.000000   0.000000
   49  P  1 XXZ   0.000000   0.000000   0.000000   0.000000   0.000000
   50  P  1 YYX   0.000000   0.000000   0.000000   0.000000   0.000000
   51  P  1 YYZ   0.000000   0.000000   0.000000   0.000000   0.000000
   52  P  1 ZZX   0.000000   0.000000   0.000000   0.000000   0.000000
   53  P  1 ZZY   0.000000   0.000000   0.000000   0.000000   0.000000
   54  P  1 XYZ   0.000000   0.000000   0.000000   0.000000   0.000000
   55  P  1 XXX   0.000000   0.000000   0.000000   0.000000   0.000000
   56  P  1 YYY   0.000000   0.000000   0.000000   0.000000   0.000000
   57  P  1 ZZZ   0.000000   0.000000   0.000000   0.000000   0.000000
   58  P  1 XXY   0.000000   0.000000   0.000000   0.000000   0.000000
   59  P  1 XXZ   0.000000   0.000000   0.000000   0.000000   0.000000
   60  P  1 YYX   0.000000   0.000000   0.000000   0.000000   0.000000
   61  P  1 YYZ   0.000000   0.000000   0.000000   0.000000   0.000000
   62  P  1 ZZX   0.000000   0.000000   0.000000   0.000000   0.000000
   63  P  1 ZZY   0.000000   0.000000   0.000000   0.000000   0.000000
   64  P  1 XYZ   0.000000   0.000000   0.000000   0.000000   0.000000
   65  P  1 XXX   0.000000   0.000000   0.000000   0.000000   0.000000
   66  P  1 YYY   0.000000   0.000000   0.000000   0.000000   0.000000
   67  P  1 ZZZ   0.000000   0.000000   0.000000   0.000000   0.000000
   68  P  1 XXY   0.000000   0.000000   0.000000   0.000000   0.000000
   69  P  1 XXZ   0.000000   0.000000   0.000000   0.000000   0.000000
   70  P  1 YYX   0.000000   0.000000   0.000000   0.000000   0.000000
   71  P  1 YYZ   0.000000   0.000000   0.000000   0.000000   0.000000
   72  P  1 ZZX   0.000000   0.000000   0.000000   0.000000   0.000000
   73  P  1 ZZY   0.000000   0.000000   0.000000   0.000000   0.000000
   74  P  1 XYZ   0.000000   0.000000   0.000000   0.000000   0.000000
   75  P  1XXXX   0.000000   0.000000   0.113971  -0.076454   0.000000
   76  P  1YYYY   0.000000   0.000000  -0.113971  -0.076454   0.000000
   77  P  1ZZZZ   0.000000   0.000000   0.000000  -0.203877   0.000000
   78  P  1XXXY   0.000000   0.000000   0.000000   0.000000   0.000000
   79  P  1XXXZ   0.182760   0.000000   0.000000   0.000000   0.161179
   80  P  1YYYX   0.000000   0.000000   0.000000   0.000000   0.000000
   81  P  1YYYZ   0.000000   0.182760   0.000000   0.000000   0.000000
   82  P  1ZZZX  -0.243679   0.000000   0.000000   0.000000   0.000000
   83  P  1ZZZY   0.000000  -0.243679   0.000000   0.000000   0.000000
   84  P  1XXYY   0.000000   0.000000   0.000000  -0.044767   0.000000
   85  P  1XXZZ   0.000000   0.000000  -0.200203   0.179067   0.000000
   86  P  1YYZZ   0.000000   0.000000   0.200203   0.179067   0.000000
   87  P  1XXYZ   0.000000   0.081733   0.000000   0.000000   0.000000
   88  P  1YYXZ   0.081733   0.000000   0.000000   0.000000  -0.216244
   89  P  1ZZXY   0.000000   0.000000   0.000000   0.000000   0.000000
   90  P  1XXXX   0.000000   0.000000  -0.626232   0.420089   0.000000
   91  P  1YYYY   0.000000   0.000000   0.626232   0.420089   0.000000
   92  P  1ZZZZ   0.000000   0.000000   0.000000   1.120238   0.000000
   93  P  1XXXY   0.000000   0.000000   0.000000   0.000000   0.000000
   94  P  1XXXZ  -1.004206   0.000000   0.000000   0.000000  -0.885626
   95  P  1YYYX   0.000000   0.000000   0.000000   0.000000   0.000000
   96  P  1YYYZ   0.000000  -1.004206   0.000000   0.000000   0.000000
   97  P  1ZZZX   1.338941   0.000000   0.000000   0.000000   0.000000
   98  P  1ZZZY   0.000000   1.338941   0.000000   0.000000   0.000000
   99  P  1XXYY   0.000000   0.000000   0.000000   0.245979   0.000000
[...]
   57  P  1 ZZZ   0.000000   0.000000   0.000000   0.000000   0.000000
   58  P  1 XXY   0.000000   0.000000   0.000000   0.000000   0.000000
   59  P  1 XXZ   0.000000   0.000000   0.000000   0.000000   0.000000
   60  P  1 YYX   0.000000   0.000000   0.000000   0.000000   0.000000
   61  P  1 YYZ   0.000000   0.000000   0.000000   0.000000   0.000000
   62  P  1 ZZX   0.000000   0.000000   0.000000   0.000000   0.000000
   63  P  1 ZZY   0.000000   0.000000   0.000000   0.000000   0.000000
   64  P  1 XYZ   0.000000   0.000000   0.000000   0.000000   0.000000
   65  P  1 XXX   0.000000   0.000000   0.000000   0.000000   0.000000
   66  P  1 YYY   0.000000   0.000000   0.000000   0.000000   0.000000
   67  P  1 ZZZ   0.000000   0.000000   0.000000   0.000000   0.000000
   68  P  1 XXY   0.000000   0.000000   0.000000   0.000000   0.000000
   69  P  1 XXZ   0.000000   0.000000   0.000000   0.000000   0.000000
   70  P  1 YYX   0.000000   0.000000   0.000000   0.000000   0.000000
   71  P  1 YYZ   0.000000   0.000000   0.000000   0.000000   0.000000
   72  P  1 ZZX   0.000000   0.000000   0.000000   0.000000   0.000000
   73  P  1 ZZY   0.000000   0.000000   0.000000   0.000000   0.000000
   74  P  1 XYZ   0.000000   0.000000   0.000000   0.000000   0.000000
   75  P  1XXXX   0.000000   0.000000   0.000000   0.000000   0.000000
   76  P  1YYYY   0.000000   0.000000   0.000000   0.000000   0.000000
   77  P  1ZZZZ   0.000000   0.000000   0.000000   0.000000   0.000000
   78  P  1XXXY   0.000000   0.000000   0.000000   0.000000   0.000000
   79  P  1XXXZ   0.000000   0.000000   0.000000   0.000000   0.000000
   80  P  1YYYX   0.000000   0.000000   0.000000   0.000000   0.000000
   81  P  1YYYZ   0.000000   0.000000   0.000000   0.000000   0.000000
   82  P  1ZZZX   0.000000   0.000000   0.000000   0.000000   0.000000
   83  P  1ZZZY   0.000000   0.000000   0.000000   0.000000   0.000000
   84  P  1XXYY   0.000000   0.000000   0.000000   0.000000   0.000000
   85  P  1XXZZ   0.000000   0.000000   0.000000   0.000000   0.000000
   86  P  1YYZZ   0.000000   0.000000   0.000000   0.000000   0.000000
   87  P  1XXYZ   0.000000   0.000000   0.000000   0.000000   0.000000
   88  P  1YYXZ   0.000000   0.000000   0.000000   0.000000   0.000000
   89  P  1ZZXY   0.000000   0.000000   0.000000   0.000000   0.000000
   90  P  1XXXX   0.000000   0.000000   0.000000   0.000000   0.000000
   91  P  1YYYY   0.000000   0.000000   0.000000   0.000000   0.000000
   92  P  1ZZZZ   0.000000   0.000000   0.000000   0.000000   0.000000
   93  P  1XXXY   0.000000   0.000000   0.000000   0.000000   0.000000
   94  P  1XXXZ   0.000000   0.000000   0.000000   0.000000   0.000000
   95  P  1YYYX   0.000000   0.000000   0.000000   0.000000   0.000000
   96  P  1YYYZ   0.000000   0.000000   0.000000   0.000000   0.000000
   97  P  1ZZZX   0.000000   0.000000   0.000000   0.000000   0.000000
   98  P  1ZZZY   0.000000   0.000000   0.000000   0.000000   0.000000
   99  P  1XXYY   0.000000   0.000000   0.000000   0.000000   0.000000
  100  P  1XXZZ   0.000000   0.000000   0.000000   0.000000   0.000000
  101  P  1YYZZ   0.000000   0.000000   0.000000   0.000000   0.000000
  102  P  1XXYZ   0.000000   0.000000   0.000000   0.000000   0.000000
  103  P  1YYXZ   0.000000   0.000000   0.000000   0.000000   0.000000
  104  P  1ZZXY   0.000000   0.000000   0.000000   0.000000   0.000000

                     76         77         78         79
                    9.4707     9.4707     9.4707    13.9882
                     A          A          A          A   
    1  P  1  S    0.000000   0.000000   0.000000  16.776068
    2  P  1  S    0.000000   0.000000   0.000000   7.082324
    3  P  1  S    0.000000   0.000000   0.000000 -11.638259
    4  P  1  S    0.000000   0.000000   0.000000  -7.401658
    5  P  1  S    0.000000   0.000000   0.000000  -3.939881
    6  P  1  X   -1.121318   0.000000   0.000000   0.000000
    7  P  1  Y    0.000000  -1.121318   0.000000   0.000000
    8  P  1  Z    0.000000   0.000000  -1.121318   0.000000
    9  P  1  X   -2.955162   0.000000   0.000000   0.000000
   10  P  1  Y    0.000000  -2.955162   0.000000   0.000000
   11  P  1  Z    0.000000   0.000000  -2.955162   0.000000
   12  P  1  X    4.555327   0.000000   0.000000   0.000000
   13  P  1  Y    0.000000   4.555327   0.000000   0.000000
   14  P  1  Z    0.000000   0.000000   4.555327   0.000000
   15  P  1  X   -3.096490   0.000000   0.000000   0.000000
   16  P  1  Y    0.000000  -3.096490   0.000000   0.000000
   17  P  1  Z    0.000000   0.000000  -3.096490   0.000000
   18  P  1  X    2.077330   0.000000   0.000000   0.000000
   19  P  1  Y    0.000000   2.077330   0.000000   0.000000
   20  P  1  Z    0.000000   0.000000   2.077330   0.000000
   21  P  1 XX    0.000000   0.000000   0.000000   0.000000
   22  P  1 YY    0.000000   0.000000   0.000000   0.000000
   23  P  1 ZZ    0.000000   0.000000   0.000000   0.000000
   24  P  1 XY    0.000000   0.000000   0.000000   0.000000
   25  P  1 XZ    0.000000   0.000000   0.000000   0.000000
   26  P  1 YZ    0.000000   0.000000   0.000000   0.000000
   27  P  1 XX    0.000000   0.000000   0.000000   0.000000
   28  P  1 YY    0.000000   0.000000   0.000000   0.000000
   29  P  1 ZZ    0.000000   0.000000   0.000000   0.000000
   30  P  1 XY    0.000000   0.000000   0.000000   0.000000
   31  P  1 XZ    0.000000   0.000000   0.000000   0.000000
   32  P  1 YZ    0.000000   0.000000   0.000000   0.000000
   33  P  1 XX    0.000000   0.000000   0.000000   0.000000
   34  P  1 YY    0.000000   0.000000   0.000000   0.000000
   35  P  1 ZZ    0.000000   0.000000   0.000000   0.000000
   36  P  1 XY    0.000000   0.000000   0.000000   0.000000
   37  P  1 XZ    0.000000   0.000000   0.000000   0.000000
   38  P  1 YZ    0.000000   0.000000   0.000000   0.000000
   39  P  1 XX    0.000000   0.000000   0.000000   0.000000
   40  P  1 YY    0.000000   0.000000   0.000000   0.000000
   41  P  1 ZZ    0.000000   0.000000   0.000000   0.000000
   42  P  1 XY    0.000000   0.000000   0.000000   0.000000
   43  P  1 XZ    0.000000   0.000000   0.000000   0.000000
   44  P  1 YZ    0.000000   0.000000   0.000000   0.000000
   45  P  1 XXX   0.000000   0.000000   0.000000   0.000000
   46  P  1 YYY   0.000000   0.000000   0.000000   0.000000
   47  P  1 ZZZ   0.000000   0.000000   0.000000   0.000000
   48  P  1 XXY   0.000000   0.000000   0.000000   0.000000
   49  P  1 XXZ   0.000000   0.000000   0.000000   0.000000
   50  P  1 YYX   0.000000   0.000000   0.000000   0.000000
   51  P  1 YYZ   0.000000   0.000000   0.000000   0.000000
   52  P  1 ZZX   0.000000   0.000000   0.000000   0.000000
   53  P  1 ZZY   0.000000   0.000000   0.000000   0.000000
   54  P  1 XYZ   0.000000   0.000000   0.000000   0.000000
   55  P  1 XXX   0.000000   0.000000   0.000000   0.000000
   56  P  1 YYY   0.000000   0.000000   0.000000   0.000000
   57  P  1 ZZZ   0.000000   0.000000   0.000000   0.000000
   58  P  1 XXY   0.000000   0.000000   0.000000   0.000000
   59  P  1 XXZ   0.000000   0.000000   0.000000   0.000000
   60  P  1 YYX   0.000000   0.000000   0.000000   0.000000
   61  P  1 YYZ   0.000000   0.000000   0.000000   0.000000
   62  P  1 ZZX   0.000000   0.000000   0.000000   0.000000
   63  P  1 ZZY   0.000000   0.000000   0.000000   0.000000
   64  P  1 XYZ   0.000000   0.000000   0.000000   0.000000
   65  P  1 XXX   0.000000   0.000000   0.000000   0.000000
   66  P  1 YYY   0.000000   0.000000   0.000000   0.000000
   67  P  1 ZZZ   0.000000   0.000000   0.000000   0.000000
   68  P  1 XXY   0.000000   0.000000   0.000000   0.000000
   69  P  1 XXZ   0.000000   0.000000   0.000000   0.000000
   70  P  1 YYX   0.000000   0.000000   0.000000   0.000000
   71  P  1 YYZ   0.000000   0.000000   0.000000   0.000000
   72  P  1 ZZX   0.000000   0.000000   0.000000   0.000000
   73  P  1 ZZY   0.000000   0.000000   0.000000   0.000000
   74  P  1 XYZ   0.000000   0.000000   0.000000   0.000000
   75  P  1XXXX   0.000000   0.000000   0.000000   0.000000
   76  P  1YYYY   0.000000   0.000000   0.000000   0.000000
   77  P  1ZZZZ   0.000000   0.000000   0.000000   0.000000
   78  P  1XXXY   0.000000   0.000000   0.000000   0.000000
   79  P  1XXXZ   0.000000   0.000000   0.000000   0.000000
   80  P  1YYYX   0.000000   0.000000   0.000000   0.000000
   81  P  1YYYZ   0.000000   0.000000   0.000000   0.000000
   82  P  1ZZZX   0.000000   0.000000   0.000000   0.000000
   83  P  1ZZZY   0.000000   0.000000   0.000000   0.000000
   84  P  1XXYY   0.000000   0.000000   0.000000   0.000000
   85  P  1XXZZ   0.000000   0.000000   0.000000   0.000000
   86  P  1YYZZ   0.000000   0.000000   0.000000   0.000000
   87  P  1XXYZ   0.000000   0.000000   0.000000   0.000000
   88  P  1YYXZ   0.000000   0.000000   0.000000   0.000000
   89  P  1ZZXY   0.000000   0.000000   0.000000   0.000000
   90  P  1XXXX   0.000000   0.000000   0.000000   0.000000
   91  P  1YYYY   0.000000   0.000000   0.000000   0.000000
   92  P  1ZZZZ   0.000000   0.000000   0.000000   0.000000
   93  P  1XXXY   0.000000   0.000000   0.000000   0.000000
   94  P  1XXXZ   0.000000   0.000000   0.000000   0.000000
   95  P  1YYYX   0.000000   0.000000   0.000000   0.000000
   96  P  1YYYZ   0.000000   0.000000   0.000000   0.000000
   97  P  1ZZZX   0.000000   0.000000   0.000000   0.000000
   98  P  1ZZZY   0.000000   0.000000   0.000000   0.000000
   99  P  1XXYY   0.000000   0.000000   0.000000   0.000000
  100  P  1XXZZ   0.000000   0.000000   0.000000   0.000000
  101  P  1YYZZ   0.000000   0.000000   0.000000   0.000000
  102  P  1XXYZ   0.000000   0.000000   0.000000   0.000000
  103  P  1YYXZ   0.000000   0.000000   0.000000   0.000000
  104  P  1ZZXY   0.000000   0.000000   0.000000   0.000000
 ...... END OF ROHF CALCULATION ......
 STEP CPU TIME =     0.96 TOTAL CPU TIME =        3.4 (    0.1 MIN)
 TOTAL WALL CLOCK TIME=        4.2 SECONDS, CPU UTILIZATION IS  80.00%

     ----------------------------------------------------------------
     PROPERTY VALUES FOR THE ROHF  SELF-CONSISTENT FIELD WAVEFUNCTION
     ----------------------------------------------------------------

          -----------------
          ENERGY COMPONENTS
          -----------------

         WAVEFUNCTION NORMALIZATION =       1.0000000000

                ONE ELECTRON ENERGY =     -10.1081119604
                TWO ELECTRON ENERGY =       3.7671455420
           NUCLEAR REPULSION ENERGY =       0.0000000000
                                      ------------------
                       TOTAL ENERGY =      -6.3409664183

 ELECTRON-ELECTRON POTENTIAL ENERGY =       3.7671455420
  NUCLEUS-ELECTRON POTENTIAL ENERGY =     -12.4630168391
   NUCLEUS-NUCLEUS POTENTIAL ENERGY =       0.0000000000
                                      ------------------
             TOTAL POTENTIAL ENERGY =      -8.6958712971
               TOTAL KINETIC ENERGY =       2.3549048788
                 VIRIAL RATIO (V/T) =       3.6926635023

          ---------------------------------------
          MULLIKEN AND LOWDIN POPULATION ANALYSES
          ---------------------------------------

     ATOMIC MULLIKEN POPULATION IN EACH MOLECULAR ORBITAL

                      1          2          3          4

                  2.000000   1.000000   1.000000   1.000000

    1             2.000000   1.000000   1.000000   1.000000

          MULLIKEN SPHERICAL HARMONIC POPULATIONS
       ATOM           S       P       D      F      G      H      I    TOTAL
    1 P             1.00    3.00    0.00   0.00   0.00   0.00   0.00    4.00

          MULLIKEN SPHERICAL HARMONIC POPULATIONS
       ATOM           S       P       D      F      G      H      I    TOTAL
    1 P             1.00    0.00    0.00   0.00   0.00   0.00   0.00    1.00

     ATOMIC SPIN POPULATION (ALPHA MINUS BETA)
       ATOM         MULL.POP.                    LOW.POP.
    1 P             3.000000                     3.000000

               ----- POPULATIONS IN EACH AO -----
                             MULLIKEN      LOWDIN
              1  P  1  S      1.99998     0.19386
              2  P  1  S     -0.00001     0.03200
              3  P  1  S      0.00002     0.11135
              4  P  1  S      0.00001     0.16272
              5  P  1  S      0.00001     0.15329
              6  P  1  X      1.00001     0.22176
              7  P  1  Y      1.00001     0.22176
              8  P  1  Z      1.00001     0.22176
              9  P  1  X      0.00000     0.00811
             10  P  1  Y      0.00000     0.00811
             11  P  1  Z      0.00000     0.00811
             12  P  1  X     -0.00000     0.03525
             13  P  1  Y     -0.00000     0.03525
             14  P  1  Z     -0.00000     0.03525
             15  P  1  X      0.00001     0.08604
             16  P  1  Y      0.00001     0.08604
             17  P  1  Z      0.00001     0.08604
             18  P  1  X     -0.00002     0.12697
             19  P  1  Y     -0.00002     0.12697
             20  P  1  Z     -0.00002     0.12697
             21  P  1 XX      0.00000     0.00778
             22  P  1 YY      0.00000     0.00778
             23  P  1 ZZ      0.00000     0.00778
             24  P  1 XY      0.00000     0.00000
             25  P  1 XZ      0.00000     0.00000
             26  P  1 YZ      0.00000     0.00000
             27  P  1 XX      0.00000     0.07253
             28  P  1 YY      0.00000     0.07253
             29  P  1 ZZ      0.00000     0.07253
             30  P  1 XY      0.00000     0.00000
             31  P  1 XZ      0.00000     0.00000
             32  P  1 YZ      0.00000     0.00000
             33  P  1 XX      0.00000     0.09433
             34  P  1 YY      0.00000     0.09433
             35  P  1 ZZ      0.00000     0.09433
             36  P  1 XY      0.00000     0.00000
             37  P  1 XZ      0.00000     0.00000
             38  P  1 YZ      0.00000     0.00000
             39  P  1 XX      0.00000     0.05888
             40  P  1 YY      0.00000     0.05888
             41  P  1 ZZ      0.00000     0.05888
             42  P  1 XY      0.00000     0.00000
             43  P  1 XZ      0.00000     0.00000
             44  P  1 YZ      0.00000     0.00000
             45  P  1 XXX     0.00000     0.05635
             46  P  1 YYY     0.00000     0.05635
             47  P  1 ZZZ     0.00000     0.05635
             48  P  1 XXY     0.00000     0.02422
             49  P  1 XXZ     0.00000     0.02422
             50  P  1 YYX     0.00000     0.02422
             51  P  1 YYZ     0.00000     0.02422
             52  P  1 ZZX     0.00000     0.02422
             53  P  1 ZZY     0.00000     0.02422
             54  P  1 XYZ     0.00000     0.00000
             55  P  1 XXX     0.00000     0.09596
             56  P  1 YYY     0.00000     0.09596
             57  P  1 ZZZ     0.00000     0.09596
             58  P  1 XXY     0.00000     0.04046
             59  P  1 XXZ     0.00000     0.04046
             60  P  1 YYX     0.00000     0.04046
             61  P  1 YYZ     0.00000     0.04046
             62  P  1 ZZX     0.00000     0.04046
             63  P  1 ZZY     0.00000     0.04046
             64  P  1 XYZ     0.00000     0.00000
             65  P  1 XXX     0.00000     0.13065
             66  P  1 YYY     0.00000     0.13065
             67  P  1 ZZZ     0.00000     0.13065
             68  P  1 XXY     0.00000     0.05478
             69  P  1 XXZ     0.00000     0.05478
             70  P  1 YYX     0.00000     0.05478
             71  P  1 YYZ     0.00000     0.05478
             72  P  1 ZZX     0.00000     0.05478
             73  P  1 ZZY     0.00000     0.05478
             74  P  1 XYZ     0.00000     0.00000
             75  P  1XXXX     0.00000     0.05917
             76  P  1YYYY     0.00000     0.05917
             77  P  1ZZZZ     0.00000     0.05917
             78  P  1XXXY     0.00000     0.00000
             79  P  1XXXZ     0.00000     0.00000
             80  P  1YYYX     0.00000     0.00000
             81  P  1YYYZ     0.00000     0.00000
             82  P  1ZZZX     0.00000     0.00000
             83  P  1ZZZY     0.00000     0.00000
             84  P  1XXYY     0.00000     0.06195
             85  P  1XXZZ     0.00000     0.06195
             86  P  1YYZZ     0.00000     0.06195
             87  P  1XXYZ     0.00000     0.00000
             88  P  1YYXZ     0.00000     0.00000
             89  P  1ZZXY     0.00000     0.00000
             90  P  1XXXX     0.00000     0.04620
             91  P  1YYYY     0.00000     0.04620
             92  P  1ZZZZ     0.00000     0.04620
             93  P  1XXXY     0.00000     0.00000
             94  P  1XXXZ     0.00000     0.00000
             95  P  1YYYX     0.00000     0.00000
             96  P  1YYYZ     0.00000     0.00000
             97  P  1ZZZX     0.00000     0.00000
             98  P  1ZZZY     0.00000     0.00000
             99  P  1XXYY     0.00000     0.04809
            100  P  1XXZZ     0.00000     0.04809
            101  P  1YYZZ     0.00000     0.04809
            102  P  1XXYZ     0.00000     0.00000
            103  P  1YYXZ     0.00000     0.00000
            104  P  1ZZXY     0.00000     0.00000

          ----- MULLIKEN ATOMIC OVERLAP POPULATIONS -----
          (OFF-DIAGONAL ELEMENTS NEED TO BE MULTIPLIED BY 2)

             1

    1    5.0000000

          TOTAL MULLIKEN AND LOWDIN ATOMIC POPULATIONS
       ATOM         MULL.POP.    CHARGE          LOW.POP.     CHARGE
    1 P             5.000000    0.000000         5.000000   -0.000000

          MULLIKEN SPHERICAL HARMONIC POPULATIONS
       ATOM           S       P       D      F      G      H      I    TOTAL
    1 P             2.00    3.00    0.00   0.00   0.00   0.00   0.00    5.00

          -------------------------------
          BOND ORDER AND VALENCE ANALYSIS     BOND ORDER THRESHOLD=0.050
          -------------------------------

                   BOND                       BOND                       BOND
  ATOM PAIR DIST  ORDER      ATOM PAIR DIST  ORDER      ATOM PAIR DIST  ORDER

                       TOTAL       BONDED        FREE
      ATOM            VALENCE     VALENCE     VALENCE
    1 P                 3.000       0.000       3.000

          -----------------------------------------
          ATOMIC SPIN DENSITY AT THE NUCLEUS (A.U.)
          -----------------------------------------
                            SPIN DENS    ALPHA DENS     BETA DENS
    1  P            5.0     0.0000000       0.00031       0.00031

          ---------------------
          ELECTROSTATIC MOMENTS
          ---------------------

 POINT   1           X           Y           Z (BOHR)    CHARGE
                 0.000000    0.000000    0.000000        0.00 (A.U.)
         DX          DY          DZ         /D/  (DEBYE)
     0.000000    0.000000    0.000000    0.000000
 ...... END OF PROPERTY EVALUATION ......
 STEP CPU TIME =     0.15 TOTAL CPU TIME =        3.5 (    0.1 MIN)
 TOTAL WALL CLOCK TIME=        4.4 SECONDS, CPU UTILIZATION IS  79.41%
                809342  WORDS OF DYNAMIC MEMORY USED
 EXECUTION OF GAMESS TERMINATED NORMALLY Fri Sep 28 23:22:36 2018
 DDI: 263624 bytes (0.3 MB / 0 MWords) used by master data server.

 ----------------------------------------
 CPU timing information for all processes
 ========================================
 0: 3.01 + 0.553 = 3.555
 ----------------------------------------
 ddikick.x: exited gracefully.
----- accounting info -----
Files used on the master node c470-073.stampede2.tacc.utexas.edu were:
-rw------- 1 aannabe G-801537     1850 Sep 28 23:22 /tmp/P.F05
-rw------- 1 aannabe G-801537 23042048 Sep 28 23:22 /tmp/P.F08
-rw------- 1 aannabe G-801537  8507200 Sep 28 23:22 /tmp/P.F10
Fri Sep 28 23:22:39 CDT 2018
1.198u 0.727s 0:09.70 19.6%	0+0k 6520+48io 33pf+0w
