
 Primary working directories    : /global/cscratch1/sd/aannabe
 Secondary working directories  : /global/cscratch1/sd/aannabe
 Wavefunction directory         : /global/homes/a/aannabe/wfu/
 Main file repository           : /global/cscratch1/sd/aannabe/

 SHA1      : 2873118e99aab1bc19f5b6fc1784693c06d15c95
 NAME      : 2015.1.8
 ARCHNAME  : linux/x86_64
 FC        : /opt/cray/pe/craype/2.5.5/bin/ftn
 BLASLIB   : -Wl,-_start-group /opt/intel/compilers_and_libraries_2016.3.210/linux/mkl/lib/intel64/libmkl_intel_ilp64.a /opt/intel/compilers_and_libraries_2016.3.210/linux/mkl/lib/intel64/libmkl_intel_thread.a /opt/intel/compilers_and_libraries_2016.3.210/linux/mkl/lib/intel64/libmkl_core.a -Wl,-_end-group
 id        : lbl

 Nodes     nprocs
 nid00489     1

 Using customized tuning parameters: mindgm=8; mindgv=16; mindgc=4; mindgr=1; noblas=0; minvec=7
 default implementation of scratch files=df  

 ***,Mn
 memory,8,g
 gthresh,twoint=1.e-12
 
 gprint,basis,orbitals
 gexpec,ekin,pot
 
 angstrom
 geometry={
 1                                                                               ! Number of atoms
 Mn 0.0 0.0 0.0
 }
 
 basis={
 Including file /global/homes/a/aannabe/docs/totals/pps/Mn.pp
 Including file /global/homes/a/aannabe/docs/totals/basis/aug-cc-pVnZ/Mn_dz.basis
 }
 
 {hf
 wf,15,1,5
 occ,4,1,1,1,1,1,1,0
 open,3.1,4.1,1.4,1.6,1.7
 sym,1,1,1,3,2
 }
 scf(i)=energy
 
 _CC_NORM_MAX=2.0
  !NOTE: Perturbative MRCC works only with UHF reference. So, here we will trick MRCC by doing zero UHF iteration right after ROHF.
 
 {uhf
 wf,15,1,5
 occ,4,1,1,1,1,1,1,0
 open,3.1,4.1,1.4,1.6,1.7
 sym,1,1,1,3,2
 maxit,0
 }
 scf(i)=energy
 
 {mrcc,method=CCSDT(Q)
 orbital,ignore_error=1                                                          !Ignore the fact that UHF WF is not converged
 maxit,100
 core
 }
 posthf(i)=energy
 
 table,scf,posthf,ekin,pot
 save,2.csv,new
 
 

 Variables initialized (889), CPU time= 0.01 sec
 Commands  initialized (702), CPU time= 0.01 sec, 572 directives.
 Default parameters read. Elapsed time= 0.11 sec

 Checking input...
 Passed
1


                                         ***  PROGRAM SYSTEM MOLPRO  ***
                                       Copyright, TTI GmbH Stuttgart, 2015
                                    Version 2015.1 linked Sep  7 2016 23:09:38


 **********************************************************************************************************************************
 LABEL *   Mn                                                                            
  64 bit serial version                                                                  DATE: 15-Jun-18          TIME: 14:31:49  
 **********************************************************************************************************************************

 SHA1:             2873118e99aab1bc19f5b6fc1784693c06d15c95
 **********************************************************************************************************************************

 THRESHOLDS:

 ZERO    =  1.00D-12  ONEINT  =  1.00D-12  TWOINT  =  1.00D-12  PREFAC  =  1.00D-14  LOCALI  =  1.00D-09  EORDER  =  1.00D-04
 ENERGY  =  0.00D+00  ETEST   =  0.00D+00  EDENS   =  0.00D+00  THRDEDEF=  1.00D-06  GRADIENT=  1.00D-02  STEP    =  1.00D-03
 ORBITAL =  1.00D-05  CIVEC   =  1.00D-05  COEFF   =  1.00D-04  PRINTCI =  5.00D-02  PUNCHCI =  9.90D+01  OPTGRAD =  3.00D-04
 OPTENERG=  1.00D-06  OPTSTEP =  3.00D-04  THRGRAD =  1.00D-10  COMPRESS=  1.00D-11  VARMIN  =  1.00D-07  VARMAX  =  1.00D-03
 THRDOUB =  0.00D+00  THRDIV  =  1.00D-05  THRRED  =  1.00D-07  THRPSP  =  1.00D+00  THRDC   =  1.00D-10  THRCS   =  1.00D-10
 THRNRM  =  1.00D-08  THREQ   =  0.00D+00  THRDE   =  1.00D+00  THRREF  =  1.00D-05  SPARFAC =  1.00D+00  THRDLP  =  1.00D-07
 THRDIA  =  1.00D-10  THRDLS  =  1.00D-07  THRGPS  =  0.00D+00  THRKEX  =  0.00D+00  THRDIS  =  2.00D-01  THRVAR  =  1.00D-10
 THRLOC  =  1.00D-06  THRGAP  =  1.00D-06  THRLOCT = -1.00D+00  THRGAPT = -1.00D+00  THRORB  =  1.00D-06  THRMLTP =  0.00D+00
 THRCPQCI=  1.00D-10  KEXTA   =  0.00D+00  THRCOARS=  0.00D+00  SYMTOL  =  1.00D-06  GRADTOL =  1.00D-06  THROVL  =  1.00D-08
 THRORTH =  1.00D-08  GRID    =  1.00D-06  GRIDMAX =  1.00D-03  DTMAX   =  0.00D+00  THROCCDE=  1.00D-01  THROCCDE=  1.00D-01



 ZUNIT=ANG
 

Geometry recognized as XYZ


 Variable memory set to 8000000000 words,  buffer space   230000 words

 SETTING BASIS          =    USERDEF


 Recomputing integrals since basis changed


 Using spherical harmonics



 PROGRAM * SEWARD (Integral evaluation for generally contracted gaussian basis sets)     Author: Roland Lindh, 1990

 Geometry written to block  1 of record 700

 Orientation using atomic masses  
 Molecule type: Atom
 Symmetry elements: X,Y,Z
 Rotational constants:       0.0000000      0.0000000      0.0000000 GHz  (calculated with average atomic masses)

 Point group  D2h 



 ATOMIC COORDINATES

 NR  ATOM    CHARGE       X              Y              Z

   1  MN     15.00    0.000000000    0.000000000    0.000000000


          MN  CORE POTENTIAL

          d POTENTIAL

 POWERS             1              3              2              2
 EXPONENTIALS   21.91937       21.35527       21.27163       7.939140    
 COEFFICIENTS   15.00000       328.7906      -162.0517      -1.826943    

          s - d POTENTIAL

 POWERS             2              2
 EXPONENTIALS   18.92045       8.327648    
 COEFFICIENTS   244.6687       33.54163    

          p - d POTENTIAL

 POWERS             2              2
 EXPONENTIALS   20.17347       7.800479    
 COEFFICIENTS   162.3503       24.17957    


 BASIS DATA

   Nr Sym  Nuc  Type         Exponents   Contraction coefficients

    1.1 Ag    1  1s          76.008334     0.000993   -0.000199   -0.000091    0.000000
    2.1 Ag                   39.277974    -0.014796    0.003352    0.005374    0.000000
    3.1 Ag                   20.405805     0.120710   -0.029413   -0.058494    0.000000
    4.1 Ag                   12.218680    -0.124001    0.032091    0.056345    0.000000
                              7.182690    -0.320200    0.083152    0.227874    0.000000
                              3.850780    -0.105622    0.021283   -0.008420    0.000000
                              2.142489     0.472721   -0.129989   -0.320777    0.000000
                              1.049631     0.620387   -0.239006   -0.813137    0.000000
                              0.508682     0.204553   -0.180315    0.326475    0.000000
                              0.192243     0.005924    0.110148    1.447540    0.000000
                              0.108899    -0.000097    0.404426    0.021321    0.000000
                              0.053425    -0.000185    0.517307   -0.678323    0.000000
                              0.025236     0.000061    0.148139   -0.452828    1.000000
    5.1 Ag    1  1s           0.012000     1.000000
    6.1 Ag    1  3d0        132.688182     0.000030
                             45.266024     0.005294
                             23.267336     0.029143
                             10.605694     0.076775
                              5.074684     0.168551
                              2.469857     0.256832
                              1.205883     0.289891
                              0.590569     0.257154
                              0.292055     0.181726
                              0.149190     0.089986
                              0.076511     0.034595
    7.1 Ag    1  3d2+       132.688182     0.000030
                             45.266024     0.005294
                             23.267336     0.029143
                             10.605694     0.076775
                              5.074684     0.168551
                              2.469857     0.256832
                              1.205883     0.289891
                              0.590569     0.257154
                              0.292055     0.181726
                              0.149190     0.089986
                              0.076511     0.034595
    8.1 Ag    1  3d0        132.688182    -0.000021
                             45.266024    -0.005449
                             23.267336    -0.029032
                             10.605694    -0.079825
                              5.074684    -0.174415
                              2.469857    -0.253404
                              1.205883    -0.174305
                              0.590569     0.045081
                              0.292055     0.345760
                              0.149190     0.263725
                              0.076511     0.371715
    9.1 Ag    1  3d2+       132.688182    -0.000021
                             45.266024    -0.005449
                             23.267336    -0.029032
                             10.605694    -0.079825
                              5.074684    -0.174415
                              2.469857    -0.253404
                              1.205883    -0.174305
                              0.590569     0.045081
                              0.292055     0.345760
                              0.149190     0.263725
                              0.076511     0.371715
   10.1 Ag    1  3d0        132.688182     0.000000
                             45.266024     0.000000
                             23.267336     0.000000
                             10.605694     0.000000
                              5.074684     0.000000
                              2.469857     0.000000
                              1.205883     0.000000
                              0.590569     0.000000
                              0.292055     0.000000
                              0.149190     0.000000
                              0.076511     1.000000
   11.1 Ag    1  3d2+       132.688182     0.000000
                             45.266024     0.000000
                             23.267336     0.000000
                             10.605694     0.000000
                              5.074684     0.000000
                              2.469857     0.000000
                              1.205883     0.000000
                              0.590569     0.000000
                              0.292055     0.000000
                              0.149190     0.000000
                              0.076511     1.000000
   12.1 Ag    1  3d0          0.034000     1.000000
   13.1 Ag    1  3d2+         0.034000     1.000000
    1.2 B3u   1  2px        113.479709     0.000103    0.000019   -0.000197    0.000000
    2.2 B3u                  58.160819    -0.000894   -0.000024    0.001354    0.000000
    3.2 B3u                  30.043076     0.008844   -0.001224   -0.010102    0.000000
    4.2 B3u                  16.753323    -0.019685    0.002320    0.030603    0.000000
                             10.705604    -0.069190    0.020758    0.046200    0.000000
                              5.557903     0.011508   -0.011572   -0.017588    0.000000
                              3.080151     0.282313   -0.062919   -0.395920    0.000000
                              1.582963     0.438678   -0.136754   -0.419093    0.000000
                              0.810922     0.309843   -0.067295    0.075017    0.000000
                              0.413396     0.083945   -0.031024    1.092986    0.000000
                              0.195480     0.007517    0.378981    0.008680    0.000000
                              0.072688     0.001100    0.507824   -0.756369    0.000000
                              0.035877     0.000290    0.260941   -0.045149    1.000000
    5.2 B3u   1  2px          0.017000     1.000000
    6.2 B3u   1  4f1+         0.373591     1.000000
    7.2 B3u   1  4f3+         0.373591     1.000000
    8.2 B3u   1  4f1+         1.357898     1.000000
    9.2 B3u   1  4f3+         1.357898     1.000000
    1.3 B2u   1  2py        113.479709     0.000103    0.000019   -0.000197    0.000000
    2.3 B2u                  58.160819    -0.000894   -0.000024    0.001354    0.000000
    3.3 B2u                  30.043076     0.008844   -0.001224   -0.010102    0.000000
    4.3 B2u                  16.753323    -0.019685    0.002320    0.030603    0.000000
                             10.705604    -0.069190    0.020758    0.046200    0.000000
                              5.557903     0.011508   -0.011572   -0.017588    0.000000
                              3.080151     0.282313   -0.062919   -0.395920    0.000000
                              1.582963     0.438678   -0.136754   -0.419093    0.000000
                              0.810922     0.309843   -0.067295    0.075017    0.000000
                              0.413396     0.083945   -0.031024    1.092986    0.000000
                              0.195480     0.007517    0.378981    0.008680    0.000000
                              0.072688     0.001100    0.507824   -0.756369    0.000000
                              0.035877     0.000290    0.260941   -0.045149    1.000000
    5.3 B2u   1  2py          0.017000     1.000000
    6.3 B2u   1  4f1-         0.373591     1.000000
    7.3 B2u   1  4f3-         0.373591     1.000000
    8.3 B2u   1  4f1-         1.357898     1.000000
    9.3 B2u   1  4f3-         1.357898     1.000000
    1.4 B1g   1  3d2-       132.688182     0.000030   -0.000021    0.000000
    2.4 B1g                  45.266024     0.005294   -0.005449    0.000000
    3.4 B1g                  23.267336     0.029143   -0.029032    0.000000
                             10.605694     0.076775   -0.079825    0.000000
                              5.074684     0.168551   -0.174415    0.000000
                              2.469857     0.256832   -0.253404    0.000000
                              1.205883     0.289891   -0.174305    0.000000
                              0.590569     0.257154    0.045081    0.000000
                              0.292055     0.181726    0.345760    0.000000
                              0.149190     0.089986    0.263725    0.000000
                              0.076511     0.034595    0.371715    1.000000
    4.4 B1g   1  3d2-         0.034000     1.000000
    1.5 B1u   1  2pz        113.479709     0.000103    0.000019   -0.000197    0.000000
    2.5 B1u                  58.160819    -0.000894   -0.000024    0.001354    0.000000
    3.5 B1u                  30.043076     0.008844   -0.001224   -0.010102    0.000000
    4.5 B1u                  16.753323    -0.019685    0.002320    0.030603    0.000000
                             10.705604    -0.069190    0.020758    0.046200    0.000000
                              5.557903     0.011508   -0.011572   -0.017588    0.000000
                              3.080151     0.282313   -0.062919   -0.395920    0.000000
                              1.582963     0.438678   -0.136754   -0.419093    0.000000
                              0.810922     0.309843   -0.067295    0.075017    0.000000
                              0.413396     0.083945   -0.031024    1.092986    0.000000
                              0.195480     0.007517    0.378981    0.008680    0.000000
                              0.072688     0.001100    0.507824   -0.756369    0.000000
                              0.035877     0.000290    0.260941   -0.045149    1.000000
    5.5 B1u   1  2pz          0.017000     1.000000
    6.5 B1u   1  4f0          0.373591     1.000000
    7.5 B1u   1  4f2+         0.373591     1.000000
    8.5 B1u   1  4f0          1.357898     1.000000
    9.5 B1u   1  4f2+         1.357898     1.000000
    1.6 B2g   1  3d1+       132.688182     0.000030   -0.000021    0.000000
    2.6 B2g                  45.266024     0.005294   -0.005449    0.000000
    3.6 B2g                  23.267336     0.029143   -0.029032    0.000000
                             10.605694     0.076775   -0.079825    0.000000
                              5.074684     0.168551   -0.174415    0.000000
                              2.469857     0.256832   -0.253404    0.000000
                              1.205883     0.289891   -0.174305    0.000000
                              0.590569     0.257154    0.045081    0.000000
                              0.292055     0.181726    0.345760    0.000000
                              0.149190     0.089986    0.263725    0.000000
                              0.076511     0.034595    0.371715    1.000000
    4.6 B2g   1  3d1+         0.034000     1.000000
    1.7 B3g   1  3d1-       132.688182     0.000030   -0.000021    0.000000
    2.7 B3g                  45.266024     0.005294   -0.005449    0.000000
    3.7 B3g                  23.267336     0.029143   -0.029032    0.000000
                             10.605694     0.076775   -0.079825    0.000000
                              5.074684     0.168551   -0.174415    0.000000
                              2.469857     0.256832   -0.253404    0.000000
                              1.205883     0.289891   -0.174305    0.000000
                              0.590569     0.257154    0.045081    0.000000
                              0.292055     0.181726    0.345760    0.000000
                              0.149190     0.089986    0.263725    0.000000
                              0.076511     0.034595    0.371715    1.000000
    4.7 B3g   1  3d1-         0.034000     1.000000
    1.8 Au    1  4f2-         0.373591     1.000000
    2.8 Au    1  4f2-         1.357898     1.000000

 NUCLEAR CHARGE:                   15
 NUMBER OF PRIMITIVE AOS:         148
 NUMBER OF SYMMETRY AOS:          130
 NUMBER OF CONTRACTIONS:           54   (  13Ag  +   9B3u +   9B2u +   4B1g +   9B1u +   4B2g +   4B3g +   2Au  )
 NUMBER OF CORE ORBITALS:           4   (   1Ag  +   1B3u +   1B2u +   0B1g +   1B1u +   0B2g +   0B3g +   0Au  )
 NUMBER OF VALENCE ORBITALS:        6   (   3Ag  +   0B3u +   0B2u +   1B1g +   0B1u +   1B2g +   1B3g +   0Au  )


 NUCLEAR REPULSION ENERGY    0.00000000

 EXTRA SYMMETRY OF AOS IN SYMMETRY 1:   1 1 1 1 1 2 3 2 3 2   3 2 3
 EXTRA SYMMETRY OF AOS IN SYMMETRY 2:   1 1 1 1 1 2 3 2 3
 EXTRA SYMMETRY OF AOS IN SYMMETRY 3:   1 1 1 1 1 2 3 2 3
 EXTRA SYMMETRY OF AOS IN SYMMETRY 5:   1 1 1 1 1 2 3 2 3

 Eigenvalues of metric

         1 0.132E-01 0.106E+00 0.106E+00 0.207E+00 0.532E+00 0.532E+00 0.100E+01 0.101E+01
         2 0.377E-01 0.413E+00 0.584E+00 0.584E+00 0.814E+00 0.100E+01 0.142E+01 0.142E+01
         3 0.377E-01 0.413E+00 0.584E+00 0.584E+00 0.814E+00 0.100E+01 0.142E+01 0.142E+01
         4 0.106E+00 0.532E+00 0.101E+01 0.235E+01
         5 0.377E-01 0.413E+00 0.584E+00 0.584E+00 0.814E+00 0.100E+01 0.142E+01 0.142E+01
         6 0.106E+00 0.532E+00 0.101E+01 0.235E+01
         7 0.106E+00 0.532E+00 0.101E+01 0.235E+01
         8 0.584E+00 0.142E+01


 Contracted 2-electron integrals neglected if value below      1.0D-12
 AO integral compression algorithm  1   Integral accuracy      1.0D-12

     1.835 MB (compressed) written to integral file ( 63.3%)


 NUMBER OF SORTED TWO-ELECTRON INTEGRALS:     153544.     BUFFER LENGTH:  32768
 NUMBER OF SEGMENTS:   1  SEGMENT LENGTH:     153544      RECORD LENGTH: 524288

 Memory used in sort:       0.71 MW

 SORT1 READ      321044. AND WROTE      125920. INTEGRALS IN      1 RECORDS. CPU TIME:     0.01 SEC, REAL TIME:     0.02 SEC
 SORT2 READ      125920. AND WROTE      153544. INTEGRALS IN      7 RECORDS. CPU TIME:     0.03 SEC, REAL TIME:     0.04 SEC

 FILE SIZES:   FILE 1:    21.0 MBYTE,  FILE 4:     4.2 MBYTE,   TOTAL:     25.2 MBYTE

 OPERATOR DM      FOR CENTER  0  COORDINATES:    0.000000    0.000000    0.000000
 OPERATOR EKIN    FOR CENTER  0  COORDINATES:    0.000000    0.000000    0.000000
 OPERATOR POT     FOR CENTER  0  COORDINATES:    0.000000    0.000000    0.000000


 **********************************************************************************************************************************
 DATASETS  * FILE   NREC   LENGTH (MB)   RECORD NAMES
              1      20       19.94       500      610      700      900      950      970     1000      129      960     1100   
                                          VAR    BASINP    GEOM    SYMINP    ZMAT    AOBASIS   BASIS     P2S    ABASIS      S 
                                         1400     1410     1420     1200     1210     1080     1600     1650     1300     1700   
                                         EKIN       V       ECP      H0       H01     AOSYM     SMH    MOLCAS    ERIS     OPER   

 PROGRAMS   *        TOTAL       INT
 CPU TIMES  *         2.34      2.24
 REAL TIME  *        11.81 SEC
 DISK USED  *        25.51 MB      
 **********************************************************************************************************************************


 PROGRAM * RHF-SCF (OPEN SHELL)       Authors: W. Meyer, H.-J. Werner


 NUMBER OF ELECTRONS:      10+    5-    SPACE SYMMETRY=1    SPIN SYMMETRY: Sextet  
 CONVERGENCE THRESHOLDS:    1.00E-05 (Density)    1.00E-07 (Energy)
 MAX. NUMBER OF ITERATIONS:       60
 INTERPOLATION TYPE:            DIIS
 INTERPOLATION STEPS:              2 (START)      1 (STEP)
 LEVEL SHIFTS:                 -0.60 (CLOSED) -0.30 (OPEN) 


 Singly occupied orbitals:      3.1       4.1       1.4       1.6       1.7
 
 Extra symmetries of mos in symmetry 1:   1   1   3   2

   Atom=MN basis=ECP10MDF_GUESS    lmin=0  lmax=2

 Orbital guess generated from atomic densities. Full valence occupancy:    4   1   1   1   1   1   1   0


 Molecular orbital dump at record        2100.2

 ITERATION    DDIFF          GRAD             ENERGY        2-EL.EN.            DIPOLE MOMENTS         DIIS   ORB.
    1      0.000D+00      0.000D+00      -103.07065791    145.860388    0.00000    0.00000    0.00000    0    start
    2      0.000D+00      0.419D-01      -103.22166608    155.298727    0.00000    0.00000    0.00000    1    diag,B
    3      0.259D-01      0.221D-01      -103.23910571    153.749081    0.00000    0.00000    0.00000    2    diag,B
    4      0.110D-01      0.655D-02      -103.24273700    153.606762    0.00000    0.00000    0.00000    3    diag,B
    5      0.694D-02      0.690D-03      -103.24287284    153.632685    0.00000    0.00000    0.00000    4    diag,B
    6      0.173D-02      0.289D-03      -103.24289914    153.564020    0.00000    0.00000    0.00000    5    diag,B
    7      0.209D-02      0.984D-04      -103.24290250    153.559966    0.00000    0.00000    0.00000    6    fixocc
    8      0.906D-03      0.374D-04      -103.24290328    153.553564    0.00000    0.00000    0.00000    7    diag,B
    9      0.263D-03      0.179D-04      -103.24290344    153.552472    0.00000    0.00000    0.00000    8    diag,B
   10      0.166D-03      0.536D-05      -103.24290346    153.552429    0.00000    0.00000    0.00000    9    orth
   11      0.844D-04      0.319D-06      -103.24290346    153.552462    0.00000    0.00000    0.00000    9    diag,B
   12      0.124D-05      0.428D-07      -103.24290346    153.552455    0.00000    0.00000    0.00000    0    orth

 Final alpha occupancy:   4   1   1   1   1   1   1   0
 Final beta  occupancy:   2   1   1   0   1   0   0   0

 !RHF STATE 1.1 Energy               -103.242903457544
 Nuclear energy                         0.00000000
 One-electron energy                 -180.01913111
 Two-electron energy                   76.77622766
 Virial quotient                       -1.79102799
 !RHF STATE 1.1 Dipole moment           0.00000000     0.00000000     0.00000000
 Dipole moment /Debye                   0.00000000     0.00000000     0.00000000
 

 !RHF expec          <1.1|EKIN|1.1>    57.644494838325
 
 !RHF expec           <1.1|POT|1.1>   -16.685028647223

 ELECTRON ORBITALS
 =================


   Orb  Occ    Energy  Couls-En    Coefficients

                                   1 1s      1 1s      1 1s      1 1s      1 1s      1 3d0     1 3d2+    1 3d0     1 3d2+    1 3d0  
                                   1 3d2+    1 3d0     1 3d2+ 

   1.1   2    -3.9216  -19.3115  0.999955 -0.000129  0.000202  0.000282 -0.000060  0.000000 -0.000000  0.000000  0.000000 -0.000000
                                 0.000000  0.000000 -0.000000

   2.1   2    -0.2515   -5.3027  0.000218  1.001265  0.001721 -0.001503 -0.000011  0.000000  0.000000  0.000000 -0.000000 -0.000000
                                 0.000000  0.000000  0.000000

   3.1   +    -0.6299  -11.8059 -0.000000 -0.000000  0.000000  0.000000 -0.000000 -0.002811  0.997953  0.000238 -0.084539  0.000052
                                -0.018520 -0.000030  0.010719

   4.1   +    -0.6299  -11.8059  0.000000  0.000000 -0.000000 -0.000000  0.000000  0.997953  0.002811 -0.084539 -0.000238 -0.018520
                                -0.000052  0.010719  0.000030

                                   1 2px     1 2px     1 2px     1 2px     1 2px     1 4f1+    1 4f3+    1 4f1+    1 4f3+ 

   1.2   2    -2.4951  -16.3713  1.000046  0.015160  0.018600  0.002203 -0.002113 -0.000000 -0.000000  0.000000 -0.000000

                                   1 2py     1 2py     1 2py     1 2py     1 2py     1 4f1-    1 4f3-    1 4f1-    1 4f3- 

   1.3   2    -2.4951  -16.3713  1.000046  0.015160  0.018600  0.002203 -0.002113 -0.000000  0.000000  0.000000  0.000000

                                   1 3d2-    1 3d2-    1 3d2-    1 3d2- 

   1.4   +    -0.6299  -11.8059  0.997957 -0.084539 -0.018521  0.010719

                                   1 2pz     1 2pz     1 2pz     1 2pz     1 2pz     1 4f0     1 4f2+    1 4f0     1 4f2+ 

   1.5   2    -2.4951  -16.3713  1.000046  0.015160  0.018600  0.002203 -0.002113  0.000000  0.000000 -0.000000 -0.000000

                                   1 3d1+    1 3d1+    1 3d1+    1 3d1+ 

   1.6   +    -0.6299  -11.8059  0.997957 -0.084539 -0.018521  0.010719

                                   1 3d1-    1 3d1-    1 3d1-    1 3d1- 

   1.7   +    -0.6299  -11.8059  0.997957 -0.084539 -0.018521  0.010719

 HOMO      4.1    -0.629936 =     -17.1414eV
 LUMO      2.2     0.020708 =       0.5635eV
 LUMO-HOMO         0.650644 =      17.7049eV


 **********************************************************************************************************************************
 DATASETS  * FILE   NREC   LENGTH (MB)   RECORD NAMES
              1      20       19.94       500      610      700      900      950      970     1000      129      960     1100   
                                          VAR    BASINP    GEOM    SYMINP    ZMAT    AOBASIS   BASIS     P2S    ABASIS      S 
                                         1400     1410     1420     1200     1210     1080     1600     1650     1300     1700   
                                         EKIN       V       ECP      H0       H01     AOSYM     SMH    MOLCAS    ERIS     OPER   

              2       4        2.77       700     1000      520     2100   
                                         GEOM     BASIS   MCVARS     RHF  

 PROGRAMS   *        TOTAL        HF       INT
 CPU TIMES  *         2.38      0.04      2.24
 REAL TIME  *        11.98 SEC
 DISK USED  *        25.51 MB      
 **********************************************************************************************************************************
 SETTING SCF(I)         =      -103.24290346  AU                              
 SETTING _CC_NORM_MAX   =         2.00000000                                  


 PROGRAM * UHF-SCF       Authors: W. Meyer, H.-J. Werner


 NUMBER OF ELECTRONS:      10+    5-    SPACE SYMMETRY=1    SPIN SYMMETRY: Sextet  
 CONVERGENCE THRESHOLDS:    1.00E-05 (Density)    1.00E-07 (Energy)
 MAX. NUMBER OF ITERATIONS:        0
 INTERPOLATION TYPE:            DIIS
 INTERPOLATION STEPS:              2 (START)      1 (STEP)
 LEVEL SHIFTS:                  0.20 (ALPHA)   0.20 (BETA) 


 Singly occupied orbitals:      3.1       4.1       1.4       1.6       1.7
 
 Extra symmetries of mos in symmetry 1:   1   1   3   2
 Molecular orbitals read from record     2100.2  Type=RHF/CANONICAL (state 1.1)

 Molecular orbital dump at record        2200.2

 Initial alpha occupation   4   1   1   1   1   1   1   0
 Initial beta  occupation   2   1   1   0   1   0   0   0

 ITERATION    DDIFF          GRAD             ENERGY        2-EL.EN.            DIPOLE MOMENTS         DIIS
    1      0.000D+00      0.000D+00      -103.24290346    153.552455    0.00000    0.00000    0.00000    0
 
 Final alpha occupancy:   4   1   1   1   1   1   1   0
 Final beta  occupancy:   2   1   1   0   1   0   0   0

 !UHF STATE 1.1 Energy               -103.242903457544
 Nuclear energy                         0.00000000
 One-electron energy                 -180.01913111
 Two-electron energy                   76.77622766
 Virial quotient                       -1.79102799
 !UHF STATE 1.1 Dipole moment           0.00000000     0.00000000     0.00000000
 Dipole moment /Debye                   0.00000000     0.00000000     0.00000000
 

 !UHF expec          <1.1|EKIN|1.1>    57.644494838325
 
 !UHF expec           <1.1|POT|1.1>   -16.685028647223

 ELECTRON ORBITALS FOR POSITIVE SPIN
 ===================================


   Orb  Occ    Energy  Couls-En    Coefficients

                                   1 1s      1 1s      1 1s      1 1s      1 1s      1 3d0     1 3d2+    1 3d0     1 3d2+    1 3d0  
                                   1 3d2+    1 3d0     1 3d2+ 

   1.1   +    -3.9216  -19.3115  0.999955 -0.000129  0.000202  0.000282 -0.000060  0.000000 -0.000000  0.000000  0.000000 -0.000000
                                 0.000000  0.000000 -0.000000

   2.1   +    -0.2515   -5.3027  0.000218  1.001265  0.001721 -0.001503 -0.000011  0.000000  0.000000  0.000000 -0.000000 -0.000000
                                 0.000000  0.000000  0.000000

   3.1   +    -0.6299  -11.8059 -0.000000 -0.000000  0.000000  0.000000 -0.000000 -0.002811  0.997953  0.000238 -0.084539  0.000052
                                -0.018520 -0.000030  0.010719

   4.1   +    -0.6299  -11.8059  0.000000  0.000000 -0.000000 -0.000000  0.000000  0.997953  0.002811 -0.084539 -0.000238 -0.018520
                                -0.000052  0.010719  0.000030

                                   1 2px     1 2px     1 2px     1 2px     1 2px     1 4f1+    1 4f3+    1 4f1+    1 4f3+ 

   1.2   +    -2.4951  -16.3713  1.000046  0.015160  0.018600  0.002203 -0.002113 -0.000000 -0.000000  0.000000 -0.000000

                                   1 2py     1 2py     1 2py     1 2py     1 2py     1 4f1-    1 4f3-    1 4f1-    1 4f3- 

   1.3   +    -2.4951  -16.3713  1.000046  0.015160  0.018600  0.002203 -0.002113 -0.000000  0.000000  0.000000  0.000000

                                   1 3d2-    1 3d2-    1 3d2-    1 3d2- 

   1.4   +    -0.6299  -11.8059  0.997957 -0.084539 -0.018521  0.010719

                                   1 2pz     1 2pz     1 2pz     1 2pz     1 2pz     1 4f0     1 4f2+    1 4f0     1 4f2+ 

   1.5   +    -2.4951  -16.3713  1.000046  0.015160  0.018600  0.002203 -0.002113  0.000000  0.000000 -0.000000 -0.000000

                                   1 3d1+    1 3d1+    1 3d1+    1 3d1+ 

   1.6   +    -0.6299  -11.8059  0.997957 -0.084539 -0.018521  0.010719

                                   1 3d1-    1 3d1-    1 3d1-    1 3d1- 

   1.7   +    -0.6299  -11.8059  0.997957 -0.084539 -0.018521  0.010719

 ELECTRON ORBITALS FOR NEGATIVE SPIN
 ===================================


   Orb  Occ    Energy  Couls-En    Coefficients

                                   1 1s      1 1s      1 1s      1 1s      1 1s      1 3d0     1 3d2+    1 3d0     1 3d2+    1 3d0  
                                   1 3d2+    1 3d0     1 3d2+ 

   1.1   -    -3.9216  -19.3115  0.999955 -0.000129  0.000202  0.000282 -0.000060  0.000000 -0.000000  0.000000  0.000000 -0.000000
                                 0.000000  0.000000 -0.000000

   2.1   -    -0.2515   -5.3027  0.000218  1.001265  0.001721 -0.001503 -0.000011  0.000000  0.000000  0.000000 -0.000000 -0.000000
                                 0.000000  0.000000  0.000000

                                   1 2px     1 2px     1 2px     1 2px     1 2px     1 4f1+    1 4f3+    1 4f1+    1 4f3+ 

   1.2   -    -2.4951  -16.3713  1.000046  0.015160  0.018600  0.002203 -0.002113 -0.000000 -0.000000  0.000000 -0.000000

                                   1 2py     1 2py     1 2py     1 2py     1 2py     1 4f1-    1 4f3-    1 4f1-    1 4f3- 

   1.3   -    -2.4951  -16.3713  1.000046  0.015160  0.018600  0.002203 -0.002113 -0.000000  0.000000  0.000000  0.000000

                                   1 2pz     1 2pz     1 2pz     1 2pz     1 2pz     1 4f0     1 4f2+    1 4f0     1 4f2+ 

   1.5   -    -2.4951  -16.3713  1.000046  0.015160  0.018600  0.002203 -0.002113  0.000000  0.000000 -0.000000 -0.000000

 HOMO     -2.1    -0.251468 =      -6.8428eV
 LUMO     -3.1    -0.629936 =     -17.1414eV
 LUMO-HOMO        -0.378469 =     -10.2987eV

 EXPECTATION VALUE OF S**2:             8.75000000

 Occupation number threshold for canonical orbitals:  1.999000 (occupied),  0.001000 (virtual)

 Number of pseudo-canonical orbitals per symmetry:    2   1   1   0   1   0   0   0
 Number of active natural orbitals per symmetry:      2   0   0   1   0   1   1   0

 NATURAL CHARGE ORBITALS
 =======================


   Orb     Occ        Energy       Coefficients

                                   1 1s      1 1s      1 1s      1 1s      1 1s      1 3d0     1 3d2+    1 3d0     1 3d2+    1 3d0  
                                   1 3d2+    1 3d0     1 3d2+ 

   1.1  2.00000    -3.921611     0.999955 -0.000129  0.000202  0.000282 -0.000060  0.000000 -0.000000  0.000000  0.000000 -0.000000
                                 0.000000  0.000000 -0.000000

   2.1  2.00000    -0.251468     0.000218  1.001265  0.001721 -0.001503 -0.000011  0.000000  0.000000  0.000000 -0.000000 -0.000000
                                 0.000000  0.000000  0.000000

   3.1  1.00000    -0.135475    -0.000000 -0.000000  0.000000  0.000000 -0.000000 -0.524774  0.848841  0.044455 -0.071907  0.009739
                                -0.015753 -0.005636  0.009117

   4.1  1.00000    -0.135475     0.000000  0.000000 -0.000000 -0.000000  0.000000  0.848841  0.524774 -0.071907 -0.044455 -0.015753
                                -0.009739  0.009117  0.005636

                                   1 2px     1 2px     1 2px     1 2px     1 2px     1 4f1+    1 4f3+    1 4f1+    1 4f3+ 

   1.2  2.00000    -2.495139     1.000046  0.015160  0.018600  0.002203 -0.002113 -0.000000 -0.000000  0.000000 -0.000000

                                   1 2py     1 2py     1 2py     1 2py     1 2py     1 4f1-    1 4f3-    1 4f1-    1 4f3- 

   1.3  2.00000    -2.495139     1.000046  0.015160  0.018600  0.002203 -0.002113 -0.000000  0.000000  0.000000  0.000000

                                   1 3d2-    1 3d2-    1 3d2-    1 3d2- 

   1.4  1.00000    -0.135475     0.997957 -0.084539 -0.018521  0.010719

                                   1 2pz     1 2pz     1 2pz     1 2pz     1 2pz     1 4f0     1 4f2+    1 4f0     1 4f2+ 

   1.5  2.00000    -2.495139     1.000046  0.015160  0.018600  0.002203 -0.002113  0.000000  0.000000 -0.000000 -0.000000

                                   1 3d1+    1 3d1+    1 3d1+    1 3d1+ 

   1.6  1.00000    -0.135475     0.997957 -0.084539 -0.018521  0.010719

                                   1 3d1-    1 3d1-    1 3d1-    1 3d1- 

   1.7  1.00000    -0.135475     0.997957 -0.084539 -0.018521  0.010719

 Natural orbitals saved to record    2200.2 (Orbital set 3)

 Orbital spaces for UNO-CAS (Min. occupation: 0.020  Max. occupation: 1.980):

 Closed:        2   1   1   0   1   0   0   0
 Active:        2   0   0   1   0   1   1   0

 No convergence



 **********************************************************************************************************************************
 DATASETS  * FILE   NREC   LENGTH (MB)   RECORD NAMES
              1      20       19.94       500      610      700      900      950      970     1000      129      960     1100   
                                          VAR    BASINP    GEOM    SYMINP    ZMAT    AOBASIS   BASIS     P2S    ABASIS      S 
                                         1400     1410     1420     1200     1210     1080     1600     1650     1300     1700   
                                         EKIN       V       ECP      H0       H01     AOSYM     SMH    MOLCAS    ERIS     OPER   

              2       5        5.29       700     1000      520     2100     2200   
                                         GEOM     BASIS   MCVARS     RHF      UHF  

 PROGRAMS   *        TOTAL       UHF        HF       INT
 CPU TIMES  *         2.39      0.01      0.04      2.24
 REAL TIME  *        12.11 SEC
 DISK USED  *        25.51 MB      
 **********************************************************************************************************************************
 SETTING SCF(I)         =      -103.24290346  AU                              


 PROGRAM * MRCC (General Multireference Coupled Cluster)    Author: M. Kallay, 2000-2005

 ***  Initialisation ***

   0 Spin projections
 
 Molecular orbitals read from record     2200.2  Type=UHF/ALPHA (state 1.1)

 ?Warning: UHF not converged
 Molecular orbitals read from record     2200.2  Type=UHF/BETA (state 1.1)

 ?Warning: UHF not converged
 
 Frozen orbitals:              0 (  0  0  0  0  0  0  0  0)
 Active orbitals:             54 ( 13  9  9  4  9  4  4  2)
 Active electrons:            15
 Spin quantum number:          2.5

 Transformed integrals will be written to file mrcc_32754/fort.55

 Load integrals                2.4 sec
 Transform integrals           2.5 sec
 Storage for integrals:         870545
 Remaining memory:           *********

 Core energy:               0.00000000
 
 MRCC Input:
     4     0     0     0     3     0     0     1     0     0     0     1     1     0     0     7     0     0   0.000     0   64000
  ex.lev,nsing,ntrip, rest,method,dens,conver,symm, diag, CS ,spatial, HF, ndoub,nacto,nactv, tol, maxex, sacc, freq,  dboc,   mem
  2  2  1  1  0  0  0  0  0  0  0  0  0  2  0  0  0  0  0  0  0  0  2  0  0  0  0  0  0  0  0  1  0  0  0  2  0  0  0  0  0  0  0  0  1  0  0  0  1  0  0  0  0  0
 MRCC Input end
 Variable memory released
 MRCC now being run, temporary output in /global/cscratch1/sd/aannabe/mrcc_32754/mrcc.out
 **********************************************************************
                          MRCC program system
 **********************************************************************

                              Written by
  Mihaly Kallay, Zoltan Rolik, Jozsef Csontos, Peter Nagy, Gyula Samu,
      David Mester, Jozsef Csoka, Bernat Szabo, Istvan Ladjanszki,
       Lorant Szegedy, Bence Ladoczki, Klara Petrov, Mate Farkas,
                    Pal D. Mezei, and Bence Hegely

        Department of Physical Chemistry and Materials Science
            Budapest University of Technology and Economics
                  Budapest P.O.Box 91, H-1521 Hungary

                              www.mrcc.hu

                       Release date: May 23, 2018

 ************************ 2018-06-15 14:32:13 *************************
 Executing goldstone...

 Generation of CC equations in terms of H and T...
 Generation of antisymmetrized Goldstone diagrams...
 Number of diagrams in T^1 equations:    15
 Number of diagrams in T^2 equations:    38
 Number of diagrams in T^3 equations:    49
 Number of diagrams in T^4 equations:     5
 Translation of diagrams to factorized equations...
 Optimizing intermediate calculation...
 Number of floating-point operations per iteration step:   2.8526E+11
 Probable CPU time per iteration step (hours):      2.85
 Required memory (Mbytes):    3800.8
 Number of intermediates:                                  80
 Number of intermediates to be stored:                     31
 Length of intermediate file (Mbytes):      50.8

 ************************ 2018-06-15 14:32:13 *************************
 Executing xmrcc...

 **********************************************************************
 CC(3)(4) calculation


 Allocation of3800.8 Mbytes of memory...
 Number of spinorbitals:                   108
 Number of alpha electrons:                       10
 Number of beta electrons:                         5
 Spin multiplicity:                     2
 z-component of spin:  2.5
 Spatial symmetry:                      1
 Convergence criterion:  1.0E-07
 Construction of occupation graphs...
 Number of                     0 -fold excitations:                      1
 Number of                     1 -fold excitations:                    115
 Number of                     2 -fold excitations:                  21109
 Number of                     3 -fold excitations:                2176250
 Total number of configurations:                2197475
 Calculation of coupling coefficients...
 Length of intermediate file (Mbytes):      35.8

 ======================================================================

 Spin case  1   Alpha:  0   Beta:  4
 Number of excitations:                 133152
 Spin case  2   Alpha:  1   Beta:  3
 Number of excitations:               10130784
 Spin case  3   Alpha:  2   Beta:  2
 Number of excitations:               62585988
 Spin case  4   Alpha:  3   Beta:  1
 Number of excitations:               48668160
 Spin case  5   Alpha:  4   Beta:  0
 Number of excitations:                3566444
 Number of                     4 -fold excitations:              125084528

 Memory requirements /Mbyte/:
               Minimal        Optimal
 Real*8:         57.6895        64.9216
 Integer:        12.0531
 Total:          69.7426        76.9747


 ************************ 2018-06-15 14:32:15 *************************
 Executing mrcc...

 **********************************************************************
 CCSDT(Q) calculation


 OpenMP parallel version is running.
 Number of CPUs:   1
 Allocation of   64.9 Mbytes of memory...
 Number of spinorbitals: 108
 Number of alpha electrons: 10
 Number of beta  electrons:  5
 Spin multiplicity: 2
 z-component of spin:  2.5
 Spatial symmetry: 1
 Convergence criterion:  1.0E-07
 Construction of occupation graphs...
 Number of 0-fold excitations: 1
 Number of 1-fold excitations: 115
 Number of 2-fold excitations: 21109
 Number of 3-fold excitations: 2176250
 Total number of determinants: 2197475
 Calculation of coupling coefficients...
 Initial cluster amplitudes are generated.
 Length of intermediate file (Mbytes):      35.8
 Reading integral list from unit 55...
 Sorting integrals...
 Sorting integrals...
 Sorting integrals...
 Sorting integrals...
 Energy of reference determinant [au]:    -103.242903457544
 Calculation of MP denominators...

 Starting CC iteration...
 ======================================================================
 Norm of residual vector:     1.45489135
 CPU time [min]:     0.412                   Wall time [min]:     0.418

 Iteration  1  CC energy:  -103.59629227  Energy decrease:   0.35338881
 ======================================================================
 Norm of residual vector:     0.30604148
 CPU time [min]:     0.839                   Wall time [min]:     0.854

 Iteration  2  CC energy:  -103.59225532  Energy decrease:   0.00403695
 ======================================================================
 Norm of residual vector:     0.09252560
 CPU time [min]:     1.285                   Wall time [min]:     1.310

 Iteration  3  CC energy:  -103.61019371  Energy decrease:   0.01793839
 ======================================================================
 Norm of residual vector:     0.03218591
 CPU time [min]:     1.739                   Wall time [min]:     1.772

 Iteration  4  CC energy:  -103.61371435  Energy decrease:   0.00352064
 ======================================================================
 Norm of residual vector:     0.01472586
 CPU time [min]:     2.199                   Wall time [min]:     2.243

 Iteration  5  CC energy:  -103.61312392  Energy decrease:   0.00059043
 ======================================================================
 Norm of residual vector:     0.00673803
 CPU time [min]:     2.683                   Wall time [min]:     2.730

 Iteration  6  CC energy:  -103.61304991  Energy decrease:   0.00007402
 ======================================================================
 Norm of residual vector:     0.00347437
 CPU time [min]:     3.196                   Wall time [min]:     3.255

 Iteration  7  CC energy:  -103.61320587  Energy decrease:   0.00015597
 ======================================================================
 Norm of residual vector:     0.00211844
 CPU time [min]:     3.704                   Wall time [min]:     3.773

 Iteration  8  CC energy:  -103.61329574  Energy decrease:   0.00008987
 ======================================================================
 Norm of residual vector:     0.00130005
 CPU time [min]:     4.159                   Wall time [min]:     4.236

 Iteration  9  CC energy:  -103.61329749  Energy decrease:   0.00000174
 ======================================================================
 Norm of residual vector:     0.00081664
 CPU time [min]:     4.576                   Wall time [min]:     4.665

 Iteration 10  CC energy:  -103.61328833  Energy decrease:   0.00000915
 ======================================================================
 Norm of residual vector:     0.00047484
 CPU time [min]:     5.014                   Wall time [min]:     5.117

 Iteration 11  CC energy:  -103.61329548  Energy decrease:   0.00000714
 ======================================================================
 Norm of residual vector:     0.00025407
 CPU time [min]:     5.521                   Wall time [min]:     5.628

 Iteration 12  CC energy:  -103.61329591  Energy decrease:   0.00000043
 ======================================================================
 Norm of residual vector:     0.00015830
 CPU time [min]:     6.027                   Wall time [min]:     6.143

 Iteration 13  CC energy:  -103.61329435  Energy decrease:   0.00000156
 ======================================================================
 Norm of residual vector:     0.00008923
 CPU time [min]:     6.538                   Wall time [min]:     6.666

 Iteration 14  CC energy:  -103.61329523  Energy decrease:   0.00000088
 ======================================================================
 Norm of residual vector:     0.00004596
 CPU time [min]:     6.985                   Wall time [min]:     7.122

 Iteration 15  CC energy:  -103.61329565  Energy decrease:   0.00000042
 ======================================================================
 Norm of residual vector:     0.00002327
 CPU time [min]:     7.431                   Wall time [min]:     7.580

 Iteration 16  CC energy:  -103.61329542  Energy decrease:   0.00000024
 ======================================================================
 Norm of residual vector:     0.00001069
 CPU time [min]:     7.881                   Wall time [min]:     8.035

 Iteration 17  CC energy:  -103.61329529  Energy decrease:   0.00000013
 ======================================================================
 Norm of residual vector:     0.00000450
 CPU time [min]:     8.330                   Wall time [min]:     8.489

 Iteration 18  CC energy:  -103.61329539  Energy decrease:   0.00000010
 ======================================================================
 Norm of residual vector:     0.00000209
 CPU time [min]:     8.777                   Wall time [min]:     8.947

 Iteration 19  CC energy:  -103.61329540  Energy decrease:   0.00000001
 ======================================================================
 Norm of residual vector:     0.00000094
 CPU time [min]:     9.231                   Wall time [min]:     9.410

 Iteration 20  CC energy:  -103.61329538  Energy decrease:   0.00000002
 ======================================================================
 Norm of residual vector:     0.00000034
 CPU time [min]:     9.692                   Wall time [min]:     9.880

 Iteration 21  CC energy:  -103.61329538  Energy decrease:   3.7902E-09
 ======================================================================
 Norm of residual vector:     0.00000016
 CPU time [min]:    10.119                   Wall time [min]:    10.314

 Iteration 22  CC energy:  -103.61329538  Energy decrease:   1.3050E-09
 ======================================================================
 Norm of residual vector:     0.00000007
 CPU time [min]:    10.526                   Wall time [min]:    10.729

 Iteration 23  CC energy:  -103.61329538  Energy decrease:   3.2938E-10
 ======================================================================

 Iteration has converged in 23 steps.

 Final results:
 Total CCSDT energy [au]:           -103.613295379151
 Total MP2 energy [au]:             -103.596292268638

 Perturbative corrections are calculated...
 ======================================================================
 Spin case  1   Alpha:  0   Beta:  4
 Number of excitations:        133152
 CPU time [min]:    10.857                   Wall time [min]:    11.063
 ======================================================================
 Spin case  2   Alpha:  1   Beta:  3
 Number of excitations:        10130784
 CPU time [min]:    17.463                   Wall time [min]:    17.670
 ======================================================================
 Spin case  3   Alpha:  2   Beta:  2
 Number of excitations:        62585988
 CPU time [min]:    34.313                   Wall time [min]:    34.523
 ======================================================================
 Spin case  4   Alpha:  3   Beta:  1
 Number of excitations:        48668160
 CPU time [min]:    43.474                   Wall time [min]:    43.685
 ======================================================================
 Spin case  5   Alpha:  4   Beta:  0
 Number of excitations:        3566444
 CPU time [min]:    44.351                   Wall time [min]:    44.561
 ======================================================================
 Number of 4-fold excitations: 125084528
 CPU time [min]:    44.351                   Wall time [min]:    44.561

 Total CCSDT[Q] energy [au]:        -103.612681788329
 Total CCSDT(Q) energy [au]:        -103.613247454491

 ************************ 2018-06-15 15:16:49 *************************
                      Normal termination of mrcc.
 **********************************************************************
 !CCSDT STATE 1.1 Energy             -103.613295379151
 !MP2 STATE 1.1 Energy               -103.596292268638
 !CCSDT[Q] STATE 1.1 Energy          -103.612681788329
 !CCSDT(Q) STATE 1.1 Energy          -103.613247454491
 
 CPU-time for MRCC:           2661.1 sec
 Elapsed-time for MRCC:       2677.5 sec

 Variable memory set to 8000000000 words,  buffer space   230000 words



 **********************************************************************************************************************************
 DATASETS  * FILE   NREC   LENGTH (MB)   RECORD NAMES
              1      20       19.94       500      610      700      900      950      970     1000      129      960     1100   
                                          VAR    BASINP    GEOM    SYMINP    ZMAT    AOBASIS   BASIS     P2S    ABASIS      S 
                                         1400     1410     1420     1200     1210     1080     1600     1650     1300     1700   
                                         EKIN       V       ECP      H0       H01     AOSYM     SMH    MOLCAS    ERIS     OPER   

              2       5        5.29       700     1000      520     2100     2200   
                                         GEOM     BASIS   MCVARS     RHF      UHF  

 PROGRAMS   *        TOTAL      MRCC       UHF        HF       INT
 CPU TIMES  *      2665.22   2662.83      0.01      0.04      2.24
 REAL TIME  *      2700.79 SEC
 DISK USED  *        25.51 MB      
 **********************************************************************************************************************************
 SETTING POSTHF(I)      =      -103.61324745  AU                              
                                                                                                                                                                                                                                                                

         SCF            POSTHF       EKIN           POT
    -103.2429035   -103.6132475   57.64449484   -16.68502865
                                                  

 CCSDT(Q)/USERDEF energy=   -103.613247454491

        CCSDT(Q)        UHF-SCF         HF-SCF  
   -103.61324745   -103.24290346   -103.24290346
 **********************************************************************************************************************************
 Variable memory released
