nohup: ignoring input
----- GAMESS execution script 'rungms' -----
This job is running on host gwang18-OptiPlex-3040
under operating system Linux at 2018年 07月 25日 星期三 10:42:05 EDT
Available scratch disk space (Kbyte units) at beginning of the job is
Filesystem     1K-blocks      Used Available Use% Mounted on
/dev/sda6      216112148 110280268  94830896  54% /
GAMESS temporary binary files will be written to /home/gwang18/research/gamess/ecpcorrelation/fe/stu/pbe
GAMESS supplementary output files will be written to /home/gwang18/research/gamess/ecpcorrelation/fe/stu/pbe
Copying input file fe.inp to your run's scratch directory...
cp fe.inp /home/gwang18/research/gamess/ecpcorrelation/fe/stu/pbe/fe.F05
unset echo
/home/gwang18/software/gamess/ddikick.x /home/gwang18/software/gamess/gamess.00.x fe -ddi 1 1 gwang18-OptiPlex-3040 -scr /home/gwang18/research/gamess/ecpcorrelation/fe/stu/pbe

 Distributed Data Interface kickoff program.
 Initiating 1 compute processes on 1 nodes to run the following command:
 /home/gwang18/software/gamess/gamess.00.x fe 

          ******************************************************
          *         GAMESS VERSION =  5 DEC 2014 (R1)          *
          *             FROM IOWA STATE UNIVERSITY             *
          * M.W.SCHMIDT, K.K.BALDRIDGE, J.A.BOATZ, S.T.ELBERT, *
          *   M.S.GORDON, J.H.JENSEN, S.KOSEKI, N.MATSUNAGA,   *
          *          K.A.NGUYEN, S.J.SU, T.L.WINDUS,           *
          *       TOGETHER WITH M.DUPUIS, J.A.MONTGOMERY       *
          *         J.COMPUT.CHEM.  14, 1347-1363(1993)        *
          **************** 64 BIT LINUX VERSION ****************

  SINCE 1993, STUDENTS AND POSTDOCS WORKING AT IOWA STATE UNIVERSITY
  AND ALSO IN THEIR VARIOUS JOBS AFTER LEAVING ISU HAVE MADE IMPORTANT
  CONTRIBUTIONS TO THE CODE:
     IVANA ADAMOVIC, CHRISTINE AIKENS, YURI ALEXEEV, POOJA ARORA,
     ANDREY ASADCHEV, ROB BELL, PRADIPTA BANDYOPADHYAY, JONATHAN BENTZ,
     BRETT BODE, KURT BRORSEN, CALEB CARLIN, GALINA CHABAN, WEI CHEN,
     CHEOL HO CHOI, PAUL DAY, ALBERT DEFUSCO, NUWAN DESILVA, TIM DUDLEY,
     DMITRI FEDOROV, GRAHAM FLETCHER, MARK FREITAG, KURT GLAESEMANN,
     DAN KEMP, GRANT MERRILL, NORIYUKI MINEZAWA, JONATHAN MULLIN,
     TAKESHI NAGATA, SEAN NEDD, HEATHER NETZLOFF, BOSILJKA NJEGIC, RYAN OLSON,
     MIKE PAK, SPENCER PRUITT, LUKE ROSKOP, JIM SHOEMAKER, LYUDMILA SLIPCHENKO,
     TONY SMITH, SAROM SOK, JIE SONG, TETSUYA TAKETSUGU, SIMON WEBB,
     PENG XU, SOOHAENG YOO, FEDERICO ZAHARIEV

  ADDITIONAL CODE HAS BEEN PROVIDED BY COLLABORATORS IN OTHER GROUPS:
     IOWA STATE UNIVERSITY:
          JOE IVANIC, AARON WEST, LAIMUTIS BYTAUTAS, KLAUS RUEDENBERG
     UNIVERSITY OF TOKYO: KIMIHIKO HIRAO, TAKAHITO NAKAJIMA,
          TAKAO TSUNEDA, MUNEAKI KAMIYA, SUSUMU YANAGISAWA,
          KIYOSHI YAGI, MAHITO CHIBA, SEIKEN TOKURA, NAOAKI KAWAKAMI
     UNIVERSITY OF AARHUS: FRANK JENSEN
     UNIVERSITY OF IOWA: VISVALDAS KAIRYS, HUI LI
     NATIONAL INST. OF STANDARDS AND TECHNOLOGY: WALT STEVENS, DAVID GARMER
     UNIVERSITY OF PISA: BENEDETTA MENNUCCI, JACOPO TOMASI
     UNIVERSITY OF MEMPHIS: HENRY KURTZ, PRAKASHAN KORAMBATH
     UNIVERSITY OF ALBERTA: TOBY ZENG, MARIUSZ KLOBUKOWSKI
     UNIVERSITY OF NEW ENGLAND: MARK SPACKMAN
     MIE UNIVERSITY: HIROAKI UMEDA
     NAT. INST. OF ADVANCED INDUSTRIAL SCIENCE AND TECHNOLOGY: KAZUO KITAURA
     MICHIGAN STATE UNIVERSITY:
          KAROL KOWALSKI, MARTA WLOCH, JEFFREY GOUR, JESSE LUTZ,
          WEI LI, PIOTR PIECUCH
     UNIVERSITY OF SILESIA: MONIKA MUSIAL, STANISLAW KUCHARSKI
     FACULTES UNIVERSITAIRES NOTRE-DAME DE LA PAIX:
          OLIVIER QUINET, BENOIT CHAMPAGNE
     UNIVERSITY OF CALIFORNIA - SANTA BARBARA: BERNARD KIRTMAN
     INSTITUTE FOR MOLECULAR SCIENCE:
          KAZUYA ISHIMURA, MICHIO KATOUDA, AND SHIGERU NAGASE
     UNIVERSITY OF NOTRE DAME: ANNA POMOGAEVA, DAN CHIPMAN
     KYUSHU UNIVERSITY:
          HARUYUKI NAKANO,
          FENG LONG GU, JACEK KORCHOWIEC, MARCIN MAKOWSKI, AND YURIKO AOKI,
          HIROTOSHI MORI AND EISAKU MIYOSHI
     PENNSYLVANIA STATE UNIVERSITY:
          TZVETELIN IORDANOV, CHET SWALINA, JONATHAN SKONE,
          SHARON HAMMES-SCHIFFER
     WASEDA UNIVERSITY:
          MASATO KOBAYASHI, TOMOKO AKAMA, TSUGUKI TOUMA,
          TAKESHI YOSHIKAWA, YASUHIRO IKABATA, HIROMI NAKAI
     NANJING UNIVERSITY: SHUHUA LI
     UNIVERSITY OF NEBRASKA:
          PEIFENG SU, DEJUN SI, NANDUN THELLAMUREGE, YALI WANG, HUI LI
     UNIVERSITY OF ZURICH: ROBERTO PEVERATI, KIM BALDRIDGE
     N. COPERNICUS UNIVERSITY AND JACKSON STATE UNIVERSITY:
          MARIA BARYSZ
     UNIVERSITY OF COPENHAGEN: CASPER STEINMANN
     TOKYO INSTITUTE OF TECHNOLOGY: HIROYA NAKATA
     NAGOYA UNIVERSITY: YOSHIO NISHIMOTO, STEPHAN IRLE

 EXECUTION OF GAMESS BEGUN Wed Jul 25 10:42:05 2018

            ECHO OF THE FIRST FEW INPUT CARDS -
 INPUT CARD> $CONTRL                                                                        
 INPUT CARD>     SCFTYP=ROHF                                                                
 INPUT CARD>     MULT=5                                                                     
 INPUT CARD>     ICHARG=0                                                                   
 INPUT CARD>     DFTTYP=PBE                                                                 
 INPUT CARD>     RUNTYP=ENERGY                                                              
 INPUT CARD>     MAXIT=150                                                                  
 INPUT CARD>     PP=READ                                                                    
 INPUT CARD>     ISPHER=1                                                                   
 INPUT CARD> $END                                                                           
 INPUT CARD>                                                                                
 INPUT CARD> $SCF DAMP=.T. SOSCF=.F. SHIFT=.T. RSTRCT=.T. DIIS=.T.  $end                    
 INPUT CARD>                                                                                
 INPUT CARD> $SYSTEM                                                                        
 INPUT CARD>     KDIAG=3                                                                    
 INPUT CARD>     mwords=125                                                                 
 INPUT CARD> $END                                                                           
 INPUT CARD>                                                                                
 INPUT CARD> $GUESS                                                                         
 INPUT CARD>    GUESS=MOREAD                                                                
 INPUT CARD>    NORB=37                                                                     
 INPUT CARD>    NORDER=1                                                                    
 INPUT CARD>    IORDER(5)=10,5,6,7,8,9                                                      
 INPUT CARD> $END                                                                           
 INPUT CARD>                                                                                
 INPUT CARD> $DATA                                                                          
 INPUT CARD>                                                                                
 INPUT CARD>C1                                                                              
 INPUT CARD>Fe 26 0. 0. 0.                                                                  
 INPUT CARD>S    13                                                                         
 INPUT CARD>  1     84.322332       0.000785                                                
 INPUT CARD>  2     44.203528       -0.012781                                               
 INPUT CARD>  3     23.288963       0.104635                                                
 INPUT CARD>  4     13.385163       -0.119385                                               
 INPUT CARD>  5      7.518052       -0.339804                                               
 INPUT CARD>  6      4.101835       -0.049994                                               
 INPUT CARD>  7      2.253571       0.476955                                                
 INPUT CARD>  8      1.134924       0.593222                                                
 INPUT CARD>  9      0.561550       0.200151                                                
 INPUT CARD>  10     0.201961       0.008591                                                
 INPUT CARD>  11     0.108698       -0.002188                                               
 INPUT CARD>  12     0.053619       0.000677                                                
 INPUT CARD>  13     0.025823       -0.000144                                               
 INPUT CARD>S    13                                                                         
 INPUT CARD>  1     84.322332      -0.000162                                                
 INPUT CARD>  2     44.203528      0.002921                                                 
 INPUT CARD>  3     23.288963      -0.025466                                                
 INPUT CARD>  4     13.385163      0.031182                                                 
 INPUT CARD>  5      7.518052      0.086849                                                 
 INPUT CARD>  6      4.101835      0.006846                                                 
  125000000 WORDS OF MEMORY AVAILABLE


     RUN TITLE
     ---------
                                                                                 

 THE POINT GROUP OF THE MOLECULE IS C1      
 THE ORDER OF THE PRINCIPAL AXIS IS     0
 *** WARNING! ATOM   1 SHELL    1 TYPE S HAS NORMALIZATION   1.00000127
 *** WARNING! ATOM   1 SHELL    3 TYPE S HAS NORMALIZATION   1.00000536

 ATOM      ATOMIC                      COORDINATES (BOHR)
           CHARGE         X                   Y                   Z
 FE         26.0     0.0000000000        0.0000000000        0.0000000000

          INTERNUCLEAR DISTANCES (ANGS.)
          ------------------------------

                1 FE    

   1 FE      0.0000000  

  * ... LESS THAN  3.000


     ATOMIC BASIS SET
     ----------------
 THE CONTRACTED PRIMITIVE FUNCTIONS HAVE BEEN UNNORMALIZED
 THE CONTRACTED BASIS FUNCTIONS ARE NOW NORMALIZED TO UNITY

  SHELL TYPE  PRIMITIVE        EXPONENT          CONTRACTION COEFFICIENT(S)

 FE        

      1   S       1            84.3223320    0.000785000994
      1   S       2            44.2035280   -0.012781016184
      1   S       3            23.2889630    0.104635132497
      1   S       4            13.3851630   -0.119385151175
      1   S       5             7.5180520   -0.339804430286
      1   S       6             4.1018350   -0.049994063306
      1   S       7             2.2535710    0.476955603958
      1   S       8             1.1349240    0.593222751184
      1   S       9             0.5615500    0.200151253447
      1   S      10             0.2019610    0.008591010879
      1   S      11             0.1086980   -0.002188002771
      1   S      12             0.0536190    0.000677000857
      1   S      13             0.0258230   -0.000144000182

      2   S      14            84.3223320   -0.000161999994
      2   S      15            44.2035280    0.002920999892
      2   S      16            23.2889630   -0.025465999056
      2   S      17            13.3851630    0.031181998844
      2   S      18             7.5180520    0.086848996779
      2   S      19             4.1018350    0.006845999746
      2   S      20             2.2535710   -0.131855995111
      2   S      21             1.1349240   -0.227745991555
      2   S      22             0.5615500   -0.173078993582
      2   S      23             0.2019610    0.136141994952
      2   S      24             0.1086980    0.434012983906
      2   S      25             0.0536190    0.477554982291
      2   S      26             0.0258230    0.128803995224

      3   S      27            84.3223320    0.000002000011
      3   S      28            44.2035280    0.004103022006
      3   S      29            23.2889630   -0.046840251225
      3   S      30            13.3851630    0.052833283369
      3   S      31             7.5180520    0.218095169742
      3   S      32             4.1018350   -0.044999241351
      3   S      33             2.2535710   -0.287387541388
      3   S      34             1.1349240   -0.713223825340
      3   S      35             0.5615500    0.249175336439
      3   S      36             0.2019610    1.299878971835
      3   S      37             0.1086980    0.192120030426
      3   S      38             0.0536190   -0.658619532472
      3   S      39             0.0258230   -0.521049794624

      4   S      40            84.3223320    0.000012000006
      4   S      41            44.2035280    0.007598003966
      4   S      42            23.2889630   -0.094133049133
      4   S      43            13.3851630    0.127655066630
      4   S      44             7.5180520    0.435598227363
      4   S      45             4.1018350   -0.147911077203
      4   S      46             2.2535710   -1.084477566050
      4   S      47             1.1349240   -0.887003462977
      4   S      48             0.5615500    2.449947278766
      4   S      49             0.2019610    0.167976087676
      4   S      50             0.1086980   -2.114669103766
      4   S      51             0.0536190    0.452579236227
      4   S      52             0.0258230    0.801444418319

      5   S      53            84.3223320    0.003301000752
      5   S      54            44.2035280   -0.029197006652
      5   S      55            23.2889630    0.213227048580
      5   S      56            13.3851630   -0.408109092980
      5   S      57             7.5180520   -0.385651087863
      5   S      58             4.1018350    0.168093038297
      5   S      59             2.2535710    3.102529706854
      5   S      60             1.1349240   -3.360446765615
      5   S      61             0.5615500   -0.531619121120
      5   S      62             0.2019610    4.493982023870
      5   S      63             0.1086980   -3.689750840641
      5   S      64             0.0536190   -0.510604116332
      5   S      65             0.0258230    1.301021296413

      6   S      66             0.0258230    1.000000000000

      7   S      67             0.0120000    1.000000000000

      8   P      68           125.0927750    0.000055999974
      8   P      69            65.2115890   -0.000571999734
      8   P      70            34.4375990    0.007387996568
      8   P      71            18.9307040   -0.028480986770
      8   P      72            10.8734150   -0.063004970733
      8   P      73             6.0121720    0.024854988454
      8   P      74             3.3722050    0.277473871106
      8   P      75             1.7686410    0.425385802398
      8   P      76             0.9145160    0.314144854072
      8   P      77             0.4608950    0.090421957997
      8   P      78             0.2044900    0.006976996759
      8   P      79             0.0747410    0.001153999464
      8   P      80             0.0356710    0.000302999859

      9   P      81           125.0927750    0.000024999983
      9   P      82            65.2115890   -0.000069999952
      9   P      83            34.4375990   -0.001041999280
      9   P      84            18.9307040    0.005126996459
      9   P      85            10.8734150    0.018403987289
      9   P      86             6.0121720   -0.014691989852
      9   P      87             3.3722050   -0.061306957656
      9   P      88             1.7686410   -0.128637911151
      9   P      89             0.9145160   -0.070636951212
      9   P      90             0.4608950   -0.016313988732
      9   P      91             0.2044900    0.380701737054
      9   P      92             0.0747410    0.523070638722
      9   P      93             0.0356710    0.235764837160

     10   P      94           125.0927750   -0.000196999919
     10   P      95            65.2115890    0.001250999486
     10   P      96            34.4375990   -0.009153996241
     10   P      97            18.9307040    0.038200984312
     10   P      98            10.8734150    0.043096982302
     10   P      99             6.0121720   -0.029474987896
     10   P     100             3.3722050   -0.426995824649
     10   P     101             1.7686410   -0.394839837854
     10   P     102             0.9145160    0.077229968285
     10   P     103             0.4608950    1.119880540107
     10   P     104             0.2044900   -0.066493972693
     10   P     105             0.0747410   -0.721582703673
     10   P     106             0.0356710   -0.005694997661

     11   P     107           125.0927750    0.000263999846
     11   P     108            65.2115890   -0.001075999372
     11   P     109            34.4375990   -0.002590998487
     11   P     110            18.9307040    0.035518979254
     11   P     111            10.8734150    0.119553930170
     11   P     112             6.0121720   -0.204713880428
     11   P     113             3.3722050   -0.760626555725
     11   P     114             1.7686410   -0.262739846536
     11   P     115             0.9145160    1.779028960885
     11   P     116             0.4608950   -0.462741729717
     11   P     117             0.2044900   -1.241029275126
     11   P     118             0.0747410    0.940986450378
     11   P     119             0.0356710    0.083495951231

     12   P     120           125.0927750   -0.000083999994
     12   P     121            65.2115890    0.000767999942
     12   P     122            34.4375990   -0.009484999281
     12   P     123            18.9307040    0.088061993322
     12   P     124            10.8734150    0.156190988156
     12   P     125             6.0121720   -0.619165953048
     12   P     126             3.3722050   -1.385533894935
     12   P     127             1.7686410    2.492124811021
     12   P     128             0.9145160    0.008075999388
     12   P     129             0.4608950   -2.499514810461
     12   P     130             0.2044900    2.265575828201
     12   P     131             0.0747410   -0.748341943253
     12   P     132             0.0356710   -0.211597983954

     13   P     133           125.0927750   -0.002544000178
     13   P     134            65.2115890    0.013040000914
     13   P     135            34.4375990   -0.039444002766
     13   P     136            18.9307040   -0.024594001725
     13   P     137            10.8734150   -0.521571036575
     13   P     138             6.0121720    2.739993192144
     13   P     139             3.3722050   -1.742649122204
     13   P     140             1.7686410   -2.844006199437
     13   P     141             0.9145160    5.870826411695
     13   P     142             0.4608950   -4.902306343777
     13   P     143             0.2044900    2.136176149801
     13   P     144             0.0747410   -0.121626008529
     13   P     145             0.0356710   -0.486219034096

     14   P     146             0.0356710    1.000000000000

     15   P     147             0.0170000    1.000000000000

     16   D     148           152.7367420    0.000029000017
     16   D     149            50.7724850    0.005238003073
     16   D     150            26.2535890    0.029325017202
     16   D     151            12.1370220    0.074901043936
     16   D     152             5.8537190    0.163411095855
     16   D     153             2.8562240    0.251057147268
     16   D     154             1.3861320    0.287603168705
     16   D     155             0.6708020    0.251862147740
     16   D     156             0.3302800    0.186736109538
     16   D     157             0.1709070    0.093570054887
     16   D     158             0.0867940    0.073811043297

     17   D     159           152.7367420   -0.000026000007
     17   D     160            50.7724850   -0.006329001603
     17   D     161            26.2535890   -0.034398008711
     17   D     162            12.1370220   -0.091765023239
     17   D     163             5.8537190   -0.201592051053
     17   D     164             2.8562240   -0.283930071905
     17   D     165             1.3861320   -0.161981041021
     17   D     166             0.6708020    0.128822032624
     17   D     167             0.3302800    0.360160091210
     17   D     168             0.1709070    0.277592070300
     17   D     169             0.0867940    0.261403066200

     18   D     170           152.7367420    0.000050999990
     18   D     171            50.7724850    0.008768998302
     18   D     172            26.2535890    0.047920990722
     18   D     173            12.1370220    0.132474974350
     18   D     174             5.8537190    0.297278942441
     18   D     175             2.8562240    0.275017946751
     18   D     176             1.3861320   -0.222841956854
     18   D     177             0.6708020   -0.619066880137
     18   D     178             0.3302800   -0.076289985229
     18   D     179             0.1709070    0.256055950423
     18   D     180             0.0867940    0.541481895159

     19   D     181           152.7367420   -0.000095999986
     19   D     182            50.7724850   -0.012143998168
     19   D     183            26.2535890   -0.066970989898
     19   D     184            12.1370220   -0.196024970430
     19   D     185             5.8537190   -0.469002929253
     19   D     186             2.8562240    0.046559992977
     19   D     187             1.3861320    0.985939851275
     19   D     188             0.6708020   -0.220434966748
     19   D     189             0.3302800   -0.752481886491
     19   D     190             0.1709070   -0.111122983238
     19   D     191             0.0867940    0.753099886398

     20   D     192           152.7367420   -0.000032000005
     20   D     193            50.7724850   -0.016411002468
     20   D     194            26.2535890   -0.081036012188
     20   D     195            12.1370220   -0.292641044015
     20   D     196             5.8537190   -0.575819086606
     20   D     197             2.8562240    1.151156173140
     20   D     198             1.3861320    0.168963025413
     20   D     199             0.6708020   -1.489545224035
     20   D     200             0.3302800    0.741536111531
     20   D     201             0.1709070    0.979279147289
     20   D     202             0.0867940   -1.044905157159

     21   D     203             0.0867940    1.000000000000

     22   D     204             0.0400000    1.000000000000

     23   F     205             0.1157780    1.000000000000

     24   F     206             0.3343670    1.000000000000

     25   F     207             0.9656500    1.000000000000

     26   F     208             2.7887930    1.000000000000

     27   F     209             8.0540200    1.000000000000

     28   G     210             0.2277260    1.000000000000

     29   G     211             0.6734440    1.000000000000

     30   G     212             1.9915500    1.000000000000

     31   G     213             5.8895320    1.000000000000

 TOTAL NUMBER OF BASIS SET SHELLS             =   31
 NUMBER OF CARTESIAN GAUSSIAN BASIS FUNCTIONS =  183
 NOTE: THIS RUN WILL RESTRICT THE MO VARIATION SPACE TO SPHERICAL HARMONICS.
 THE NUMBER OF ORBITALS KEPT IN THE VARIATIONAL SPACE WILL BE PRINTED LATER.
 NUMBER OF ELECTRONS                          =   26
 CHARGE OF MOLECULE                           =    0
 SPIN MULTIPLICITY                            =    5
 NUMBER OF OCCUPIED ORBITALS (ALPHA)          =   15
 NUMBER OF OCCUPIED ORBITALS (BETA )          =   11
 TOTAL NUMBER OF ATOMS                        =    1
 THE NUCLEAR REPULSION ENERGY IS        0.0000000000
 NOTE THIS RUN IS USING CORE POTENTIALS, AND THE NUMBER OF ELECTRONS,
 OCCUPIED ORBITALS, AND NUCLEAR REPULSION ENERGY WILL BE ADJUSTED BELOW
 AFTER REMOVAL OF THE CORE CHARGES.

 THIS MOLECULE IS RECOGNIZED AS BEING LINEAR,
 ORBITAL LZ DEGENERACY TOLERANCE ETOLLZ= 1.00E-06

     LEBEDEV GRID-BASED DFT OPTIONS
     ------------------------------
     DFTTYP=PBE     
     NRAD  =      96     NLEB  =     302
     NRAD0 =      24     NLEB0 =     110
     SWOFF =    5.00E-03 (PURE SCF -> DFT)
     SWITCH=    3.00E-04 (COARSE -> TIGHT GRID)
     THRESH=    0.00E+00 GTHRE=    1.00E+00

 GRIMME'S EMPIRICAL DISPERSION CORRECTION= F

     $CONTRL OPTIONS
     ---------------
 SCFTYP=ROHF         RUNTYP=ENERGY       EXETYP=RUN     
 MPLEVL=       0     CITYP =NONE         CCTYP =NONE         VBTYP =NONE    
 DFTTYP=PBE          TDDFT =NONE    
 MULT  =       5     ICHARG=       0     NZVAR =       0     COORD =UNIQUE  
 PP    =READ         RELWFN=NONE         LOCAL =NONE         NUMGRD=       F
 ISPHER=       1     NOSYM =       0     MAXIT =     150     UNITS =ANGS    
 PLTORB=       F     MOLPLT=       F     AIMPAC=       F     FRIEND=        
 NPRINT=       7     IREST =       0     GEOM  =INPUT   
 NORMF =       0     NORMP =       0     ITOL  =      20     ICUT  =       9
 INTTYP=BEST         GRDTYP=BEST         QMTTOL= 1.0E-06

     $SYSTEM OPTIONS
     ---------------
  REPLICATED MEMORY=   125000000 WORDS (ON EVERY NODE).
 DISTRIBUTED MEMDDI=           0 MILLION WORDS IN AGGREGATE,
 MEMDDI DISTRIBUTED OVER   1 PROCESSORS IS           0 WORDS/PROCESSOR.
 TOTAL MEMORY REQUESTED ON EACH PROCESSOR=   125000000 WORDS.
 TIMLIM=      525600.00 MINUTES, OR     365.0 DAYS.
 PARALL= F  BALTYP=  DLB     KDIAG=    3  COREFL= F
 MXSEQ2=     300 MXSEQ3=     150  mem10=         0

          --------------
          ECP POTENTIALS
          --------------

 PARAMETERS FOR "FE-STU  " ON ATOM    1 WITH ZCORE  10 AND LMAX  3 ARE
 FOR L= 3      COEFF    N           ZETA
    1        0.00000    2        1.00000
 FOR L= 0      COEFF    N           ZETA
    1      253.74959    2       20.93000
    2       37.92285    2        9.44500
 FOR L= 1      COEFF    N           ZETA
    1      161.03681    2       21.76000
    2       27.65130    2        9.17800
 FOR L= 2      COEFF    N           ZETA
    1      -24.43128    2       25.90000
    2       -1.43425    2        8.83500

 THE ECP RUN REMOVES   10 CORE ELECTRONS, AND THE SAME NUMBER OF PROTONS.
 NUMBER OF ELECTRONS KEPT IN THE CALCULATION IS =   16
 NUMBER OF OCCUPIED ORBITALS (ALPHA) KEPT IS    =   10
 NUMBER OF OCCUPIED ORBITALS (BETA ) KEPT IS    =    6
 THE ADJUSTED NUCLEAR REPULSION ENERGY=        0.0000000000
          ECP ANGULAR INTS.........     0.04 SECONDS

          ----------------
          PROPERTIES INPUT
          ----------------

     MOMENTS            FIELD           POTENTIAL          DENSITY
 IEMOM =       1   IEFLD =       0   IEPOT =       0   IEDEN =       0
 WHERE =COMASS     WHERE =NUCLEI     WHERE =NUCLEI     WHERE =NUCLEI  
 OUTPUT=BOTH       OUTPUT=BOTH       OUTPUT=BOTH       OUTPUT=BOTH    
 IEMINT=       0   IEFINT=       0                     IEDINT=       0
                                                       MORB  =       0
          EXTRAPOLATION IN EFFECT
          DAMPING IN EFFECT
          LEVEL SHIFTING IN EFFECT
          RESTRICTION OF ORBITAL MIXING IN EFFECT
          DIIS IN EFFECT
 ORBITAL PRINTING OPTION: NPREO=     1   183     2     1

     -------------------------------
     INTEGRAL TRANSFORMATION OPTIONS
     -------------------------------
     NWORD  =            0
     CUTOFF = 1.0E-09     MPTRAN =       0
     DIRTRF =       F     AOINTS =DUP     

          ----------------------
          INTEGRAL INPUT OPTIONS
          ----------------------
 NOPK  =       1 NORDER=       0 SCHWRZ=       F

     ------------------------------------------
     THE POINT GROUP IS C1 , NAXIS= 0, ORDER= 1
     ------------------------------------------

 -- VARIATIONAL SPACE WILL BE RESTRICTED TO PURE SPHERICAL HARMONICS ONLY --
 AFTER EXCLUDING CONTAMINANT COMBINATIONS FROM THE CARTESIAN GAUSSIAN BASIS
 SET, THE NUMBER OF SPHERICAL HARMONICS KEPT IN THE VARIATION SPACE IS  137

     DIMENSIONS OF THE SYMMETRY SUBSPACES ARE
 A   =  137

 ..... DONE SETTING UP THE RUN .....
 STEP CPU TIME =     0.21 TOTAL CPU TIME =        0.2 (    0.0 MIN)
 TOTAL WALL CLOCK TIME=        0.2 SECONDS, CPU UTILIZATION IS  95.45%

          ********************
          1 ELECTRON INTEGRALS
          ********************
 TIME TO DO ORDINARY INTEGRALS=      0.03
 TIME TO DO      ECP INTEGRALS=      0.01
 ...... END OF ONE-ELECTRON INTEGRALS ......
 STEP CPU TIME =     0.04 TOTAL CPU TIME =        0.2 (    0.0 MIN)
 TOTAL WALL CLOCK TIME=        0.3 SECONDS, CPU UTILIZATION IS  96.15%

          -------------
          GUESS OPTIONS
          -------------
          GUESS =MOREAD            NORB  =      37          NORDER=       1
          MIX   =       F          PRTMO =       F          PUNMO =       F
          TOLZ  = 1.0E-08          TOLE  = 1.0E-05
          SYMDEN=       F          PURIFY=       F

 INITIAL GUESS ORBITALS GENERATED BY MOREAD   ROUTINE.

 STATISTICS FOR GENERATION OF SYMMETRY ORBITAL -Q- MATRIX
 NUMBER OF CARTESIAN ATOMIC ORBITALS=        183
 NUMBER OF SPHERICAL CONTAMINANTS DROPPED=    46
 NUMBER OF LINEARLY DEPENDENT MOS DROPPED=     0
 TOTAL NUMBER OF MOS IN VARIATION SPACE=     137

 SYMMETRIES FOR INITIAL GUESS ORBITALS FOLLOW.  ALPHA SET(S).
    10 ORBITALS ARE OCCUPIED (    4 CORE ORBITALS).
     5=A        6=A        7=A        8=A        9=A       10=A       11=A   
    12=A       13=A       14=A       15=A       16=A       17=A       18=A   
    19=A       20=A   

 SYMMETRIES FOR INITIAL GUESS ORBITALS FOLLOW.   BETA SET(S).
     6 ORBITALS ARE OCCUPIED (    4 CORE ORBITALS).
     5=A        6=A        7=A        8=A        9=A       10=A       11=A   
    12=A       13=A       14=A       15=A       16=A   
 ...... END OF INITIAL ORBITAL SELECTION ......
 STEP CPU TIME =     0.06 TOTAL CPU TIME =        0.3 (    0.0 MIN)
 TOTAL WALL CLOCK TIME=        0.3 SECONDS, CPU UTILIZATION IS  96.88%

                    ----------------------
                    AO INTEGRAL TECHNOLOGY
                    ----------------------
     S,P,L SHELL ROTATED AXIS INTEGRALS, REPROGRAMMED BY
        KAZUYA ISHIMURA (IMS) AND JOSE SIERRA (SYNSTAR).
     S,P,D,L SHELL ROTATED AXIS INTEGRALS PROGRAMMED BY
        KAZUYA ISHIMURA (INSTITUTE FOR MOLECULAR SCIENCE).
     S,P,D,F,G SHELL TO TOTAL QUARTET ANGULAR MOMENTUM SUM 5,
        ERIC PROGRAM BY GRAHAM FLETCHER (ELORET AND NASA ADVANCED
        SUPERCOMPUTING DIVISION, AMES RESEARCH CENTER).
     S,P,D,F,G,L SHELL GENERAL RYS QUADRATURE PROGRAMMED BY
        MICHEL DUPUIS (PACIFIC NORTHWEST NATIONAL LABORATORY).

          --------------------
          2 ELECTRON INTEGRALS
          --------------------

 THE -PK- OPTION IS OFF, THE INTEGRALS ARE NOT IN SUPERMATRIX FORM.
 STORING   15000 INTEGRALS/RECORD ON DISK, USING 12 BYTES/INTEGRAL.
 TWO ELECTRON INTEGRAL EVALUATION REQUIRES  140221 WORDS OF MEMORY.
 II,JST,KST,LST =  1  1  1  1 NREC =         1 INTLOC =    1
 II,JST,KST,LST =  2  1  1  1 NREC =         1 INTLOC =    2
 II,JST,KST,LST =  3  1  1  1 NREC =         1 INTLOC =    7
 II,JST,KST,LST =  4  1  1  1 NREC =         1 INTLOC =   22
 II,JST,KST,LST =  5  1  1  1 NREC =         1 INTLOC =   56
 II,JST,KST,LST =  6  1  1  1 NREC =         1 INTLOC =  121
 II,JST,KST,LST =  7  1  1  1 NREC =         1 INTLOC =  232
 II,JST,KST,LST =  8  1  1  1 NREC =         1 INTLOC =  407
 II,JST,KST,LST =  9  1  1  1 NREC =         1 INTLOC =  584
 II,JST,KST,LST = 10  1  1  1 NREC =         1 INTLOC = 1049
 II,JST,KST,LST = 11  1  1  1 NREC =         1 INTLOC = 1910
 II,JST,KST,LST = 12  1  1  1 NREC =         1 INTLOC = 3338
 II,JST,KST,LST = 13  1  1  1 NREC =         1 INTLOC = 5567
 II,JST,KST,LST = 14  1  1  1 NREC =         1 INTLOC = 8894
 II,JST,KST,LST = 15  1  1  1 NREC =         1 INTLOC =13679
 II,JST,KST,LST = 16  1  1  1 NREC =         2 INTLOC = 5345
 II,JST,KST,LST = 17  1  1  1 NREC =         3 INTLOC = 6680
 II,JST,KST,LST = 18  1  1  1 NREC =         5 INTLOC = 4256
 II,JST,KST,LST = 19  1  1  1 NREC =         8 INTLOC =  953
 II,JST,KST,LST = 20  1  1  1 NREC =        12 INTLOC =  659
 II,JST,KST,LST = 21  1  1  1 NREC =        17 INTLOC = 8270
 II,JST,KST,LST = 22  1  1  1 NREC =        24 INTLOC =14690
 II,JST,KST,LST = 23  1  1  1 NREC =        34 INTLOC =11831
 II,JST,KST,LST = 24  1  1  1 NREC =        55 INTLOC = 5780
 II,JST,KST,LST = 25  1  1  1 NREC =        85 INTLOC = 3416
 II,JST,KST,LST = 26  1  1  1 NREC =       126 INTLOC = 4607
 II,JST,KST,LST = 27  1  1  1 NREC =       181 INTLOC = 1757
 II,JST,KST,LST = 28  1  1  1 NREC =       252 INTLOC = 9680
 II,JST,KST,LST = 29  1  1  1 NREC =       396 INTLOC =  506
 II,JST,KST,LST = 30  1  1  1 NREC =       594 INTLOC =10436
 II,JST,KST,LST = 31  1  1  1 NREC =       860 INTLOC =13172
 TOTAL NUMBER OF NONZERO TWO-ELECTRON INTEGRALS =            18125527
       1209 INTEGRAL RECORDS WERE STORED ON DISK FILE  8.
  ...... END OF TWO-ELECTRON INTEGRALS .....
 STEP CPU TIME =   528.60 TOTAL CPU TIME =      528.9 (    8.8 MIN)
 TOTAL WALL CLOCK TIME=      540.2 SECONDS, CPU UTILIZATION IS  97.91%

          ---------------------------
               RO-PBE SCF CALCULATION
          ---------------------------

     NUCLEAR ENERGY =         0.0000000000
     MAXIT =150     NPUNCH=  2     MULT=  5
     EXTRAP=T  DAMP=T  SHIFT=T  RSTRCT=T  DIIS=T  SOSCF=F
         DENSITY MATRIX CONVERGENCE THRESHOLD=  1.00E-05
     COARSE -> FINE DFT GRID SWITCH THRESHOLD=  3.00E-04 (SWITCH IN $DFT)
                   HF -> DFT SWITCH THRESHOLD=  0.00E+00 (SWOFF IN $DFT)
     ROHF CANONICALIZATION PARAMETERS
             C-C     O-O     V-V
     ALPHA -0.5000  0.5000  1.5000
     BETA   1.5000  0.5000 -0.5000
     MEMORY REQUIRED FOR UHF/ROHF ITERS=    454690 WORDS.

 DFT CODE IS SWITCHING FROM THE FINE GRID NRAD= 96,  NLEB=  302
                      TO THE COARSE GRID NRAD0= 24, NLEB0=  110

     EXCHANGE FUNCTIONAL   =PBE       
     CORRELATION FUNCTIONAL=PBE       
     DFT THRESHOLD         =.138E-06
     GRID CHANGE THRESHOLD =.300E-03
 FOR AN EULER-MACLAURIN QUADRATURE USING  96 RADIAL POINTS:
 SMALLEST GAUSSIAN PRIMITIVE EXPONENT=        0.0120000000 OF TYPE -S-
 ON ATOM NUMBER   1 HAS RADIAL NORMALIZATION=  1.000000
  LARGEST GAUSSIAN PRIMITIVE EXPONENT=      152.7367420000 OF TYPE -D-
 ON ATOM NUMBER   1 HAS RADIAL NORMALIZATION=  1.000000

 ITER EX      TOTAL ENERGY        E CHANGE  DENSITY CHANGE    DIIS ERROR      VIR. SHIFT       DAMPING
          * * *   INITIATING DIIS PROCEDURE   * * *
   1  0     -123.8242513008  -123.8242513008   0.373077777   0.149060715     0.000000000     1.000000000
   2  1     -123.7633684201     0.0608828807   0.143998993   0.254162854     0.000000000     1.000000000
   3  2     -123.8590038607    -0.0956354406   0.061270364   0.028601360     0.000000000     1.000000000
   4  3     -123.8598131303    -0.0008092696   0.022532524   0.011938611     0.000000000     1.000000000
   5  4     -123.8601757066    -0.0003625763   0.002688835   0.000758413     0.000000000     1.000000000
   6  5     -123.8601770316    -0.0000013250   0.001403075   0.000172192     0.000000000     1.000000000
   7  6     -123.8601766763     0.0000003553   0.003995060   0.000133764     0.000000000     1.000000000
   8  7     -123.8601759601     0.0000007162   0.003035724   0.000063734     0.000000000     1.000000000
   9  8     -123.8601757820     0.0000001781   0.000238122   0.000004518     0.000000000     1.000000000
 DFT CODE IS SWITCHING BACK TO THE FINE GRID
          * * *   INITIATING DIIS PROCEDURE   * * *
  10  9     -123.8606196685    -0.0004438865   0.003218215   0.002169415
  11 10     -123.8606208189    -0.0000011504   0.000208457   0.000151318
  12 11     -123.8606208096     0.0000000093   0.000165856   0.000140209
  13 12     -123.8606208216    -0.0000000120   0.000114802   0.000057178
  14 13     -123.8606208238    -0.0000000022   0.000134706   0.000014456
  15 14     -123.8606208210     0.0000000028   0.000528233   0.000010894
  16 15     -123.8606208157     0.0000000054   0.000022314   0.000001277
  17 16     -123.8606208157    -0.0000000000   0.000001835   0.000000056
  18 17     -123.8606208157     0.0000000000   0.000000093   0.000000007

          -----------------
          DENSITY CONVERGED
          -----------------
     TIME TO FORM FOCK OPERATORS=      21.2 SECONDS (       1.2 SEC/ITER)
     TIME TO SOLVE SCF EQUATIONS=       1.5 SECONDS (       0.1 SEC/ITER)

 FINAL RO-PBE ENERGY IS     -123.8606208157 AFTER  18 ITERATIONS
 DFT EXCHANGE + CORRELATION ENERGY =       -13.1487083944
 TOTAL ELECTRON NUMBER             =        15.9999979146

          --------------------
          SPIN SZ   =    2.000
          S-SQUARED =    6.000
          --------------------

 LZ VALUE ANALYSIS FOR THE MOS
 ----------------------------------------
 MO     1 (    1) HAS LZ(WEIGHT)= 0.00(100.0%) 
 MO     2 (    2) HAS LZ(WEIGHT)=-1.00( 50.0%)  1.00( 50.0%) 
 MO     3 (    2) HAS LZ(WEIGHT)=-1.00( 50.0%)  1.00( 50.0%) 
 MO     4 (    3) HAS LZ(WEIGHT)= 0.00(100.0%) 
 MO     5 (    4) HAS LZ(WEIGHT)= 0.00(100.0%) 
 MO     6 (    5) HAS LZ(WEIGHT)= 0.00(100.0%) 
 MO     7 (    6) HAS LZ(WEIGHT)= 0.00(100.0%) 
 MO     8 (    7) HAS LZ(WEIGHT)=-1.00( 50.0%)  1.00( 50.0%) 
 MO     9 (    7) HAS LZ(WEIGHT)=-1.00( 50.0%)  1.00( 50.0%) 
 MO    10 (    8) HAS LZ(WEIGHT)= 0.00(100.0%) 
 MO    11 (    9) HAS LZ(WEIGHT)= 0.00(100.0%) 
 MO    12 (   10) HAS LZ(WEIGHT)=-1.00( 50.0%)  1.00( 50.0%) 
 MO    13 (   10) HAS LZ(WEIGHT)=-1.00( 50.0%)  1.00( 50.0%) 
 MO    14 (   11) HAS LZ(WEIGHT)= 0.00(100.0%) 
 MO    15 (   12) HAS LZ(WEIGHT)= 0.00(100.0%) 
 MO    16 (   13) HAS LZ(WEIGHT)=-1.00( 50.0%)  1.00( 50.0%) 
 MO    17 (   13) HAS LZ(WEIGHT)=-1.00( 50.0%)  1.00( 50.0%) 
 MO    18 (   14) HAS LZ(WEIGHT)= 0.00(100.0%) 
 MO    19 (   15) HAS LZ(WEIGHT)=-1.00( 50.0%)  1.00( 50.0%) 
 MO    20 (   15) HAS LZ(WEIGHT)=-1.00( 50.0%)  1.00( 50.0%) 
 MO    21 (   16) HAS LZ(WEIGHT)= 0.00(100.0%) 
 MO    22 (   17) HAS LZ(WEIGHT)= 0.00(100.0%) 
 MO    23 (   18) HAS LZ(WEIGHT)= 0.00(100.0%) 
 MO    24 (   19) HAS LZ(WEIGHT)= 0.00(100.0%) 
 MO    25 (   20) HAS LZ(WEIGHT)=-1.00( 50.0%)  1.00( 50.0%) 
 MO    26 (   20) HAS LZ(WEIGHT)=-1.00( 50.0%)  1.00( 50.0%) 
 MO    27 (   21) HAS LZ(WEIGHT)= 0.00(100.0%) 
 MO    28 (   22) HAS LZ(WEIGHT)=-1.00( 50.0%)  1.00( 50.0%) 
 MO    29 (   22) HAS LZ(WEIGHT)=-1.00( 50.0%)  1.00( 50.0%) 
 MO    30 (   23) HAS LZ(WEIGHT)= 0.00(100.0%) 
 MO    31 (   24) HAS LZ(WEIGHT)= 0.00(100.0%) 
 MO    32 (   25) HAS LZ(WEIGHT)= 0.00(100.0%) 
 MO    33 (   26) HAS LZ(WEIGHT)=-0.97( 50.0%)  0.97( 50.0%) 
 MO    34 (   26) HAS LZ(WEIGHT)=-0.97( 50.0%)  0.97( 50.0%) 
 MO    35 (   27) HAS LZ(WEIGHT)= 0.00(100.0%) 
 MO    36 (   28) HAS LZ(WEIGHT)= 0.00(100.0%) 
 MO    37 (   29) HAS LZ(WEIGHT)= 0.00(100.0%) 
 MO    38 (   30) HAS LZ(WEIGHT)= 0.00(100.0%) 
 MO    39 (   31) HAS LZ(WEIGHT)= 0.00(100.0%) 
 MO    40 (   32) HAS LZ(WEIGHT)=-1.00( 50.0%)  1.00( 50.0%) 
 MO    41 (   32) HAS LZ(WEIGHT)=-1.00( 50.0%)  1.00( 50.0%) 
 MO    42 (   33) HAS LZ(WEIGHT)= 0.00(100.0%) 
 MO    43 (   34) HAS LZ(WEIGHT)= 0.00(100.0%) 
 MO    44 (   35) HAS LZ(WEIGHT)=-1.00( 50.0%)  1.00( 50.0%) 
 MO    45 (   35) HAS LZ(WEIGHT)=-1.00( 50.0%)  1.00( 50.0%) 
 MO    46 (   36) HAS LZ(WEIGHT)= 0.00(100.0%) 
 MO    47 (   37) HAS LZ(WEIGHT)= 0.00(100.0%) 
 MO    48 (   38) HAS LZ(WEIGHT)= 0.00(100.0%) 
 MO    49 (   39) HAS LZ(WEIGHT)= 0.00(100.0%) 
 MO    50 (   40) HAS LZ(WEIGHT)=-0.69( 50.0%)  0.69( 50.0%) 
 MO    51 (   40) HAS LZ(WEIGHT)=-0.69( 50.0%)  0.69( 50.0%) 
 MO    52 (   41) HAS LZ(WEIGHT)=-2.69( 50.0%)  2.69( 50.0%) 
 MO    53 (   41) HAS LZ(WEIGHT)=-2.69( 50.0%)  2.69( 50.0%) 
 MO    54 (   42) HAS LZ(WEIGHT)= 0.00(100.0%) 
 MO    55 (   43) HAS LZ(WEIGHT)= 0.00(100.0%) 
 MO    56 (   44) HAS LZ(WEIGHT)= 0.00(100.0%) 
 MO    57 (   45) HAS LZ(WEIGHT)= 0.00(100.0%) 
 MO    58 (   46) HAS LZ(WEIGHT)=-1.00( 50.0%)  1.00( 50.0%) 
 MO    59 (   46) HAS LZ(WEIGHT)=-1.00( 50.0%)  1.00( 50.0%) 
 MO    60 (   47) HAS LZ(WEIGHT)=-1.00( 50.0%)  1.00( 50.0%) 
 MO    61 (   47) HAS LZ(WEIGHT)=-1.00( 50.0%)  1.00( 50.0%) 
 MO    62 (   48) HAS LZ(WEIGHT)= 0.00(100.0%) 
 MO    63 (   49) HAS LZ(WEIGHT)=-0.27( 50.0%)  0.27( 50.0%) 
 MO    64 (   49) HAS LZ(WEIGHT)=-0.27( 50.0%)  0.27( 50.0%) 
 MO    65 (   50) HAS LZ(WEIGHT)= 0.00(100.0%) 
 MO    66 (   51) HAS LZ(WEIGHT)= 0.00(100.0%) 
 MO    67 (   52) HAS LZ(WEIGHT)=-2.27( 50.0%)  2.27( 50.0%) 
 MO    68 (   52) HAS LZ(WEIGHT)=-2.27( 50.0%)  2.27( 50.0%) 
 MO    69 (   53) HAS LZ(WEIGHT)= 0.00(100.0%) 
 MO    70 (   54) HAS LZ(WEIGHT)= 0.00(100.0%) 
 MO    71 (   55) HAS LZ(WEIGHT)= 0.00(100.0%) 
 MO    72 (   56) HAS LZ(WEIGHT)= 0.00(100.0%) 
 MO    73 (   57) HAS LZ(WEIGHT)=-0.85( 50.0%)  0.85( 50.0%) 
 MO    74 (   57) HAS LZ(WEIGHT)=-0.85( 50.0%)  0.85( 50.0%) 
 MO    75 (   58) HAS LZ(WEIGHT)= 0.00(100.0%) 
 MO    76 (   59) HAS LZ(WEIGHT)= 0.00(100.0%) 
 MO    77 (   60) HAS LZ(WEIGHT)= 0.00(100.0%) 
 MO    78 (   61) HAS LZ(WEIGHT)= 0.00(100.0%) 
 MO    79 (   62) HAS LZ(WEIGHT)= 0.00(100.0%) 
 MO    80 (   63) HAS LZ(WEIGHT)= 0.00(100.0%) 
 MO    81 (   64) HAS LZ(WEIGHT)= 0.00(100.0%) 
 MO    82 (   65) HAS LZ(WEIGHT)= 0.00(100.0%) 
 MO    83 (   66) HAS LZ(WEIGHT)=-2.01( 50.0%)  2.01( 50.0%) 
 MO    84 (   66) HAS LZ(WEIGHT)=-2.01( 50.0%)  2.01( 50.0%) 
 MO    85 (   67) HAS LZ(WEIGHT)=-0.01( 50.0%)  0.01( 50.0%) 
 MO    86 (   67) HAS LZ(WEIGHT)=-0.01( 50.0%)  0.01( 50.0%) 
 MO    87 (   68) HAS LZ(WEIGHT)= 0.00(100.0%) 
 MO    88 (   69) HAS LZ(WEIGHT)= 0.00(100.0%) 
 MO    89 (   70) HAS LZ(WEIGHT)=-1.00( 50.0%)  1.00( 50.0%) 
 MO    90 (   70) HAS LZ(WEIGHT)=-1.00( 50.0%)  1.00( 50.0%) 
 MO    91 (   71) HAS LZ(WEIGHT)= 0.00(100.0%) 
 MO    92 (   72) HAS LZ(WEIGHT)= 0.00(100.0%) 
 MO    93 (   73) HAS LZ(WEIGHT)=-0.48( 50.0%)  0.48( 50.0%) 
 MO    94 (   73) HAS LZ(WEIGHT)=-0.48( 50.0%)  0.48( 50.0%) 
 MO    95 (   74) HAS LZ(WEIGHT)= 0.00(100.0%) 
 MO    96 (   75) HAS LZ(WEIGHT)= 0.00(100.0%) 
 MO    97 (   76) HAS LZ(WEIGHT)= 0.00(100.0%) 
 MO    98 (   77) HAS LZ(WEIGHT)= 0.00(100.0%) 
 MO    99 (   78) HAS LZ(WEIGHT)= 0.00(100.0%) 
 MO   100 (   79) HAS LZ(WEIGHT)=-1.00( 50.0%)  1.00( 50.0%) 
 MO   101 (   79) HAS LZ(WEIGHT)=-1.00( 50.0%)  1.00( 50.0%) 
 MO   102 (   80) HAS LZ(WEIGHT)= 0.00(100.0%) 
 MO   103 (   81) HAS LZ(WEIGHT)=-1.00( 50.0%)  1.00( 50.0%) 
 MO   104 (   81) HAS LZ(WEIGHT)=-1.00( 50.0%)  1.00( 50.0%) 
 MO   105 (   82) HAS LZ(WEIGHT)= 0.00(100.0%) 
 MO   106 (   83) HAS LZ(WEIGHT)= 0.00(100.0%) 
 MO   107 (   84) HAS LZ(WEIGHT)= 0.00(100.0%) 
 MO   108 (   85) HAS LZ(WEIGHT)= 0.00(100.0%) 
 MO   109 (   86) HAS LZ(WEIGHT)= 0.00(100.0%) 
 MO   110 (   87) HAS LZ(WEIGHT)=-1.00( 50.0%)  1.00( 50.0%) 
 MO   111 (   87) HAS LZ(WEIGHT)=-1.00( 50.0%)  1.00( 50.0%) 
 MO   112 (   88) HAS LZ(WEIGHT)= 0.00(100.0%) 
 MO   113 (   89) HAS LZ(WEIGHT)= 0.00(100.0%) 
 MO   114 (   90) HAS LZ(WEIGHT)= 0.00(100.0%) 
 MO   115 (   91) HAS LZ(WEIGHT)= 0.00(100.0%) 
 MO   116 (   92) HAS LZ(WEIGHT)= 0.00(100.0%) 
 MO   117 (   93) HAS LZ(WEIGHT)= 0.00(100.0%) 
 MO   118 (   94) HAS LZ(WEIGHT)= 0.00(100.0%) 
 MO   119 (   95) HAS LZ(WEIGHT)=-0.41( 50.0%)  0.41( 50.0%) 
 MO   120 (   95) HAS LZ(WEIGHT)=-0.41( 50.0%)  0.41( 50.0%) 
 MO   121 (   96) HAS LZ(WEIGHT)= 0.00(100.0%) 
 MO   122 (   97) HAS LZ(WEIGHT)= 0.00(100.0%) 
 MO   123 (   98) HAS LZ(WEIGHT)= 0.00(100.0%) 
 MO   124 (   99) HAS LZ(WEIGHT)= 0.00(100.0%) 
 MO   125 (  100) HAS LZ(WEIGHT)= 0.00(100.0%) 
 MO   126 (  101) HAS LZ(WEIGHT)= 0.00(100.0%) 
 MO   127 (  102) HAS LZ(WEIGHT)= 0.00(100.0%) 
 MO   128 (  103) HAS LZ(WEIGHT)=-0.77( 50.0%)  0.77( 50.0%) 
 MO   129 (  103) HAS LZ(WEIGHT)=-0.77( 50.0%)  0.77( 50.0%) 
 MO   130 (  104) HAS LZ(WEIGHT)=-2.77( 50.0%)  2.77( 50.0%) 
 MO   131 (  104) HAS LZ(WEIGHT)=-2.77( 50.0%)  2.77( 50.0%) 
 MO   132 (  105) HAS LZ(WEIGHT)=-2.41( 50.0%)  2.41( 50.0%) 
 MO   133 (  105) HAS LZ(WEIGHT)=-2.41( 50.0%)  2.41( 50.0%) 
 MO   134 (  106) HAS LZ(WEIGHT)= 0.00(100.0%) 
 MO   135 (  107) HAS LZ(WEIGHT)= 0.00(100.0%) 
 MO   136 (  108) HAS LZ(WEIGHT)= 0.00(100.0%) 
 MO   137 (  109) HAS LZ(WEIGHT)= 0.00(100.0%) 

          ------------
          EIGENVECTORS
          ------------

                      1          2          3          4          5
                   -3.3041    -1.9809    -1.9809    -1.9753    -0.1597
                     A          A          A          A          A   
    1  FE 1  S    1.004364   0.000000   0.000000   0.000000  -0.004493
    2  FE 1  S    0.025322   0.000000   0.000000   0.000000   0.982757
    3  FE 1  S   -0.013026   0.000000   0.000000   0.000000   0.089375
    4  FE 1  S    0.000140   0.000000   0.000000   0.000000  -0.004891
    5  FE 1  S    0.008888   0.000000   0.000000   0.000000  -0.004395
    6  FE 1  S   -0.025316   0.000000   0.000000   0.000000   0.007265
    7  FE 1  S    0.000375   0.000000   0.000000   0.000000   0.003756
    8  FE 1  X   -0.000000   0.000000   1.001822   0.000000  -0.000000
    9  FE 1  Y   -0.000000   1.001822   0.000000   0.000000  -0.000000
   10  FE 1  Z   -0.000000   0.000000   0.000000   1.001837  -0.000000
   11  FE 1  X   -0.000000   0.000000   0.032334   0.000000  -0.000000
   12  FE 1  Y   -0.000000   0.032334   0.000000   0.000000  -0.000000
   13  FE 1  Z   -0.000000   0.000000   0.000000   0.030219  -0.000000
   14  FE 1  X   -0.000000   0.000000   0.011062   0.000000  -0.000000
   15  FE 1  Y   -0.000000   0.011062   0.000000   0.000000  -0.000000
   16  FE 1  Z   -0.000000   0.000000   0.000000   0.009053  -0.000000
   17  FE 1  X   -0.000000   0.000000   0.005028   0.000000  -0.000000
   18  FE 1  Y   -0.000000   0.005028   0.000000   0.000000  -0.000000
   19  FE 1  Z   -0.000000   0.000000   0.000000   0.005641  -0.000000
   20  FE 1  X   -0.000000   0.000000  -0.004411   0.000000  -0.000000
   21  FE 1  Y   -0.000000  -0.004411   0.000000   0.000000  -0.000000
   22  FE 1  Z   -0.000000   0.000000   0.000000  -0.004009  -0.000000
   23  FE 1  X   -0.000000   0.000000  -0.008075   0.000000  -0.000000
   24  FE 1  Y   -0.000000  -0.008075   0.000000   0.000000  -0.000000
   25  FE 1  Z   -0.000000   0.000000   0.000000  -0.008511  -0.000000
   26  FE 1  X   -0.000000   0.000000  -0.027846   0.000000  -0.000000
   27  FE 1  Y   -0.000000  -0.027846   0.000000   0.000000  -0.000000
   28  FE 1  Z   -0.000000   0.000000   0.000000  -0.028021  -0.000000
   29  FE 1  X   -0.000000   0.000000   0.005317   0.000000  -0.000000
   30  FE 1  Y   -0.000000   0.005317   0.000000   0.000000  -0.000000
   31  FE 1  Z   -0.000000   0.000000   0.000000   0.005486  -0.000000
   32  FE 1 XX   -0.000809   0.000000   0.000000   0.000000   0.034217
   33  FE 1 YY   -0.000809   0.000000   0.000000   0.000000   0.034217
   34  FE 1 ZZ    0.001619   0.000000   0.000000   0.000000  -0.068435
   35  FE 1 XY   -0.000000   0.000000   0.000000   0.000000  -0.000000
   36  FE 1 XZ   -0.000000   0.000000   0.000000   0.000000  -0.000000
   37  FE 1 YZ   -0.000000   0.000000   0.000000   0.000000  -0.000000
   38  FE 1 XX    0.003062   0.000000   0.000000   0.000000  -0.009474
   39  FE 1 YY    0.003062   0.000000   0.000000   0.000000  -0.009474
   40  FE 1 ZZ   -0.006123   0.000000   0.000000   0.000000   0.018948
   41  FE 1 XY   -0.000000   0.000000   0.000000   0.000000  -0.000000
   42  FE 1 XZ   -0.000000   0.000000   0.000000   0.000000  -0.000000
   43  FE 1 YZ   -0.000000   0.000000   0.000000   0.000000  -0.000000
   44  FE 1 XX    0.001188   0.000000   0.000000   0.000000  -0.002884
   45  FE 1 YY    0.001188   0.000000   0.000000   0.000000  -0.002884
   46  FE 1 ZZ   -0.002377   0.000000   0.000000   0.000000   0.005768
   47  FE 1 XY   -0.000000   0.000000   0.000000   0.000000  -0.000000
   48  FE 1 XZ   -0.000000   0.000000   0.000000   0.000000  -0.000000
   49  FE 1 YZ   -0.000000   0.000000   0.000000   0.000000  -0.000000
   50  FE 1 XX    0.000289   0.000000   0.000000   0.000000  -0.001334
   51  FE 1 YY    0.000289   0.000000   0.000000   0.000000  -0.001334
   52  FE 1 ZZ   -0.000578   0.000000   0.000000   0.000000   0.002668
   53  FE 1 XY   -0.000000   0.000000   0.000000   0.000000  -0.000000
   54  FE 1 XZ   -0.000000   0.000000   0.000000   0.000000  -0.000000
   55  FE 1 YZ   -0.000000   0.000000   0.000000   0.000000  -0.000000
   56  FE 1 XX   -0.000620   0.000000   0.000000   0.000000   0.000467
   57  FE 1 YY   -0.000620   0.000000   0.000000   0.000000   0.000467
   58  FE 1 ZZ    0.001239   0.000000   0.000000   0.000000  -0.000934
   59  FE 1 XY   -0.000000   0.000000   0.000000   0.000000  -0.000000
   60  FE 1 XZ   -0.000000   0.000000   0.000000   0.000000  -0.000000
   61  FE 1 YZ   -0.000000   0.000000   0.000000   0.000000  -0.000000
   62  FE 1 XX   -0.002361   0.000000   0.000000   0.000000   0.002514
   63  FE 1 YY   -0.002361   0.000000   0.000000   0.000000   0.002514
   64  FE 1 ZZ    0.004722   0.000000   0.000000   0.000000  -0.005028
   65  FE 1 XY   -0.000000   0.000000   0.000000   0.000000  -0.000000
   66  FE 1 XZ   -0.000000   0.000000   0.000000   0.000000  -0.000000
   67  FE 1 YZ   -0.000000   0.000000   0.000000   0.000000  -0.000000
   68  FE 1 XX    0.000057   0.000000   0.000000   0.000000  -0.000302
   69  FE 1 YY    0.000057   0.000000   0.000000   0.000000  -0.000302
   70  FE 1 ZZ   -0.000114   0.000000   0.000000   0.000000   0.000604
   71  FE 1 XY   -0.000000   0.000000   0.000000   0.000000  -0.000000
   72  FE 1 XZ   -0.000000   0.000000   0.000000   0.000000  -0.000000
   73  FE 1 YZ   -0.000000   0.000000   0.000000   0.000000  -0.000000
   74  FE 1 XXX  -0.000000   0.000000  -0.000025   0.000000  -0.000000
   75  FE 1 YYY  -0.000000  -0.000025   0.000000   0.000000  -0.000000
   76  FE 1 ZZZ  -0.000000   0.000000   0.000000   0.000041  -0.000000
   77  FE 1 XXY  -0.000000   0.000002   0.000000   0.000000  -0.000000
   78  FE 1 XXZ  -0.000000   0.000000   0.000000  -0.000027  -0.000000
   79  FE 1 YYX  -0.000000   0.000000   0.000002   0.000000  -0.000000
   80  FE 1 YYZ  -0.000000   0.000000   0.000000  -0.000027  -0.000000
   81  FE 1 ZZX  -0.000000   0.000000   0.000032   0.000000  -0.000000
   82  FE 1 ZZY  -0.000000   0.000032   0.000000   0.000000  -0.000000
   83  FE 1 XYZ  -0.000000   0.000000   0.000000   0.000000  -0.000000
   84  FE 1 XXX  -0.000000   0.000000   0.000051   0.000000  -0.000000
   85  FE 1 YYY  -0.000000   0.000051   0.000000   0.000000  -0.000000
   86  FE 1 ZZZ  -0.000000   0.000000   0.000000   0.000036  -0.000000
   87  FE 1 XXY  -0.000000  -0.000113   0.000000   0.000000  -0.000000
   88  FE 1 XXZ  -0.000000   0.000000   0.000000  -0.000024  -0.000000
   89  FE 1 YYX  -0.000000   0.000000  -0.000113   0.000000  -0.000000
   90  FE 1 YYZ  -0.000000   0.000000   0.000000  -0.000024  -0.000000
   91  FE 1 ZZX  -0.000000   0.000000   0.000045   0.000000  -0.000000
   92  FE 1 ZZY  -0.000000   0.000045   0.000000   0.000000  -0.000000
   93  FE 1 XYZ  -0.000000   0.000000   0.000000   0.000000  -0.000000
   94  FE 1 XXX  -0.000000   0.000000  -0.000352   0.000000  -0.000000
   95  FE 1 YYY  -0.000000  -0.000352   0.000000   0.000000  -0.000000
   96  FE 1 ZZZ  -0.000000   0.000000   0.000000   0.001760  -0.000000
   97  FE 1 XXY  -0.000000  -0.001038   0.000000   0.000000  -0.000000
   98  FE 1 XXZ  -0.000000   0.000000   0.000000  -0.001181  -0.000000
   99  FE 1 YYX  -0.000000   0.000000  -0.001038   0.000000  -0.000000
  100  FE 1 YYZ  -0.000000   0.000000   0.000000  -0.001181  -0.000000
  101  FE 1 ZZX  -0.000000   0.000000   0.001511   0.000000  -0.000000
  102  FE 1 ZZY  -0.000000   0.001511   0.000000   0.000000  -0.000000
  103  FE 1 XYZ  -0.000000   0.000000   0.000000   0.000000  -0.000000
  104  FE 1 XXX  -0.000000   0.000000  -0.001558   0.000000  -0.000000
  105  FE 1 YYY  -0.000000  -0.001558   0.000000   0.000000  -0.000000
  106  FE 1 ZZZ  -0.000000   0.000000   0.000000   0.002461  -0.000000
  107  FE 1 XXY  -0.000000  -0.000263   0.000000   0.000000  -0.000000
  108  FE 1 XXZ  -0.000000   0.000000   0.000000  -0.001651  -0.000000
  109  FE 1 YYX  -0.000000   0.000000  -0.000263   0.000000  -0.000000
  110  FE 1 YYZ  -0.000000   0.000000   0.000000  -0.001651  -0.000000
  111  FE 1 ZZX  -0.000000   0.000000   0.002352   0.000000  -0.000000
  112  FE 1 ZZY  -0.000000   0.002352   0.000000   0.000000  -0.000000
  113  FE 1 XYZ  -0.000000   0.000000   0.000000   0.000000  -0.000000
  114  FE 1 XXX  -0.000000   0.000000   0.000228   0.000000  -0.000000
  115  FE 1 YYY  -0.000000   0.000228   0.000000   0.000000  -0.000000
  116  FE 1 ZZZ  -0.000000   0.000000   0.000000   0.000302  -0.000000
  117  FE 1 XXY  -0.000000  -0.000496   0.000000   0.000000  -0.000000
  118  FE 1 XXZ  -0.000000   0.000000   0.000000  -0.000202  -0.000000
  119  FE 1 YYX  -0.000000   0.000000  -0.000496   0.000000  -0.000000
  120  FE 1 YYZ  -0.000000   0.000000   0.000000  -0.000202  -0.000000
  121  FE 1 ZZX  -0.000000   0.000000   0.000191   0.000000  -0.000000
  122  FE 1 ZZY  -0.000000   0.000191   0.000000   0.000000  -0.000000
  123  FE 1 XYZ  -0.000000   0.000000   0.000000   0.000000  -0.000000
  124  FE 1XXXX  -0.000053   0.000000   0.000000   0.000000   0.000857
  125  FE 1YYYY  -0.000053   0.000000   0.000000   0.000000   0.000857
  126  FE 1ZZZZ  -0.000015   0.000000   0.000000   0.000000   0.000060
  127  FE 1XXXY  -0.000000   0.000000   0.000000   0.000000  -0.000000
  128  FE 1XXXZ  -0.000000   0.000000   0.000000   0.000000  -0.000000
  129  FE 1YYYX  -0.000000   0.000000   0.000000   0.000000  -0.000000
  130  FE 1YYYZ  -0.000000   0.000000   0.000000   0.000000  -0.000000
  131  FE 1ZZZX  -0.000000   0.000000   0.000000   0.000000  -0.000000
  132  FE 1ZZZY  -0.000000   0.000000   0.000000   0.000000  -0.000000
  133  FE 1XXYY   0.000081   0.000000   0.000000   0.000000  -0.001452
  134  FE 1XXZZ   0.000013   0.000000   0.000000   0.000000  -0.000053
  135  FE 1YYZZ   0.000013   0.000000   0.000000   0.000000  -0.000053
  136  FE 1XXYZ  -0.000000   0.000000   0.000000   0.000000  -0.000000
  137  FE 1YYXZ  -0.000000   0.000000   0.000000   0.000000  -0.000000
  138  FE 1ZZXY  -0.000000   0.000000   0.000000   0.000000  -0.000000
  139  FE 1XXXX   0.000243   0.000000   0.000000   0.000000   0.001172
  140  FE 1YYYY   0.000243   0.000000   0.000000   0.000000   0.001172
  141  FE 1ZZZZ   0.000025   0.000000   0.000000   0.000000  -0.000017
  142  FE 1XXXY  -0.000000   0.000000   0.000000   0.000000  -0.000000
  143  FE 1XXXZ  -0.000000   0.000000   0.000000   0.000000  -0.000000
  144  FE 1YYYX  -0.000000   0.000000   0.000000   0.000000  -0.000000
  145  FE 1YYYZ  -0.000000   0.000000   0.000000   0.000000  -0.000000
  146  FE 1ZZZX  -0.000000   0.000000   0.000000   0.000000  -0.000000
  147  FE 1ZZZY  -0.000000   0.000000   0.000000   0.000000  -0.000000
  148  FE 1XXYY  -0.000405   0.000000   0.000000   0.000000  -0.002074
  149  FE 1XXZZ  -0.000022   0.000000   0.000000   0.000000   0.000015
  150  FE 1YYZZ  -0.000022   0.000000   0.000000   0.000000   0.000015
  151  FE 1XXYZ  -0.000000   0.000000   0.000000   0.000000  -0.000000
  152  FE 1YYXZ  -0.000000   0.000000   0.000000   0.000000  -0.000000
  153  FE 1ZZXY  -0.000000   0.000000   0.000000   0.000000  -0.000000
  154  FE 1XXXX  -0.000028   0.000000   0.000000   0.000000  -0.000147
  155  FE 1YYYY  -0.000028   0.000000   0.000000   0.000000  -0.000147
  156  FE 1ZZZZ  -0.000033   0.000000   0.000000   0.000000  -0.000125
  157  FE 1XXXY  -0.000000   0.000000   0.000000   0.000000  -0.000000
  158  FE 1XXXZ  -0.000000   0.000000   0.000000   0.000000  -0.000000
  159  FE 1YYYX  -0.000000   0.000000   0.000000   0.000000  -0.000000
  160  FE 1YYYZ  -0.000000   0.000000   0.000000   0.000000  -0.000000
  161  FE 1ZZZX  -0.000000   0.000000   0.000000   0.000000  -0.000000
  162  FE 1ZZZY  -0.000000   0.000000   0.000000   0.000000  -0.000000
  163  FE 1XXYY   0.000020   0.000000   0.000000   0.000000   0.000148
  164  FE 1XXZZ   0.000029   0.000000   0.000000   0.000000   0.000110
  165  FE 1YYZZ   0.000029   0.000000   0.000000   0.000000   0.000110
  166  FE 1XXYZ  -0.000000   0.000000   0.000000   0.000000  -0.000000
  167  FE 1YYXZ  -0.000000   0.000000   0.000000   0.000000  -0.000000
  168  FE 1ZZXY  -0.000000   0.000000   0.000000   0.000000  -0.000000
  169  FE 1XXXX   0.000061   0.000000   0.000000   0.000000  -0.000019
  170  FE 1YYYY   0.000061   0.000000   0.000000   0.000000  -0.000019
  171  FE 1ZZZZ  -0.000003   0.000000   0.000000   0.000000  -0.000046
  172  FE 1XXXY  -0.000000   0.000000   0.000000   0.000000  -0.000000
  173  FE 1XXXZ  -0.000000   0.000000   0.000000   0.000000  -0.000000
  174  FE 1YYYX  -0.000000   0.000000   0.000000   0.000000  -0.000000
  175  FE 1YYYZ  -0.000000   0.000000   0.000000   0.000000  -0.000000
  176  FE 1ZZZX  -0.000000   0.000000   0.000000   0.000000  -0.000000
  177  FE 1ZZZY  -0.000000   0.000000   0.000000   0.000000  -0.000000
  178  FE 1XXYY  -0.000111   0.000000   0.000000   0.000000  -0.000007
  179  FE 1XXZZ   0.000003   0.000000   0.000000   0.000000   0.000041
  180  FE 1YYZZ   0.000003   0.000000   0.000000   0.000000   0.000041
  181  FE 1XXYZ  -0.000000   0.000000   0.000000   0.000000  -0.000000
  182  FE 1YYXZ  -0.000000   0.000000   0.000000   0.000000  -0.000000
  183  FE 1ZZXY  -0.000000   0.000000   0.000000   0.000000  -0.000000

                      6          7          8          9         10
                   -0.1718    -0.2663    -0.2580    -0.2580    -0.2278
                     A          A          A          A          A   
    1  FE 1  S    0.000000  -0.003770   0.000000   0.000000  -0.000000
    2  FE 1  S   -0.000000   0.067601   0.000000   0.000000  -0.000000
    3  FE 1  S   -0.000000   0.010696   0.000000   0.000000  -0.000000
    4  FE 1  S    0.000000  -0.000636   0.000000   0.000000  -0.000000
    5  FE 1  S    0.000000  -0.000062   0.000000   0.000000  -0.000000
    6  FE 1  S    0.000000   0.002620   0.000000   0.000000  -0.000000
    7  FE 1  S   -0.000000  -0.000285   0.000000   0.000000  -0.000000
    8  FE 1  X    0.000000  -0.000000   0.000000   0.000000  -0.000000
    9  FE 1  Y    0.000000  -0.000000   0.000000   0.000000  -0.000000
   10  FE 1  Z    0.000000  -0.000000   0.000000   0.000000  -0.000000
   11  FE 1  X    0.000000  -0.000000   0.000000   0.000000  -0.000000
   12  FE 1  Y    0.000000  -0.000000   0.000000   0.000000  -0.000000
   13  FE 1  Z    0.000000  -0.000000   0.000000   0.000000  -0.000000
   14  FE 1  X    0.000000  -0.000000   0.000000   0.000000  -0.000000
   15  FE 1  Y    0.000000  -0.000000   0.000000   0.000000  -0.000000
   16  FE 1  Z    0.000000  -0.000000   0.000000   0.000000  -0.000000
   17  FE 1  X    0.000000  -0.000000   0.000000   0.000000  -0.000000
   18  FE 1  Y    0.000000  -0.000000   0.000000   0.000000  -0.000000
   19  FE 1  Z    0.000000  -0.000000   0.000000   0.000000  -0.000000
   20  FE 1  X    0.000000  -0.000000   0.000000   0.000000  -0.000000
   21  FE 1  Y    0.000000  -0.000000   0.000000   0.000000  -0.000000
   22  FE 1  Z    0.000000  -0.000000   0.000000   0.000000  -0.000000
   23  FE 1  X    0.000000  -0.000000   0.000000   0.000000  -0.000000
   24  FE 1  Y    0.000000  -0.000000   0.000000   0.000000  -0.000000
   25  FE 1  Z    0.000000  -0.000000   0.000000   0.000000  -0.000000
   26  FE 1  X    0.000000  -0.000000   0.000000   0.000000  -0.000000
   27  FE 1  Y    0.000000  -0.000000   0.000000   0.000000  -0.000000
   28  FE 1  Z    0.000000  -0.000000   0.000000   0.000000  -0.000000
   29  FE 1  X    0.000000  -0.000000   0.000000   0.000000  -0.000000
   30  FE 1  Y    0.000000  -0.000000   0.000000   0.000000  -0.000000
   31  FE 1  Z    0.000000  -0.000000   0.000000   0.000000  -0.000000
   32  FE 1 XX    0.872708  -0.501601   0.000000   0.000000  -0.000000
   33  FE 1 YY   -0.872708  -0.501601   0.000000   0.000000  -0.000000
   34  FE 1 ZZ   -0.000000   1.003202   0.000000   0.000000  -0.000000
   35  FE 1 XY    0.000000  -0.000000   0.000000   0.000000   1.006570
   36  FE 1 XZ    0.000000  -0.000000   0.000000   1.005823  -0.000000
   37  FE 1 YZ    0.000000  -0.000000   1.005823   0.000000  -0.000000
   38  FE 1 XX   -0.033273   0.045256   0.000000   0.000000  -0.000000
   39  FE 1 YY    0.033273   0.045256   0.000000   0.000000  -0.000000
   40  FE 1 ZZ   -0.000000  -0.090512   0.000000   0.000000  -0.000000
   41  FE 1 XY    0.000000  -0.000000   0.000000   0.000000  -0.084319
   42  FE 1 XZ    0.000000  -0.000000   0.000000  -0.090329  -0.000000
   43  FE 1 YZ    0.000000  -0.000000  -0.090329   0.000000  -0.000000
   44  FE 1 XX    0.015022  -0.001869   0.000000   0.000000  -0.000000
   45  FE 1 YY   -0.015022  -0.001869   0.000000   0.000000  -0.000000
   46  FE 1 ZZ   -0.000000   0.003738   0.000000   0.000000  -0.000000
   47  FE 1 XY    0.000000  -0.000000   0.000000   0.000000   0.008058
   48  FE 1 XZ    0.000000  -0.000000   0.000000   0.004611  -0.000000
   49  FE 1 YZ    0.000000  -0.000000   0.004612   0.000000  -0.000000
   50  FE 1 XX   -0.004185   0.002675   0.000000   0.000000  -0.000000
   51  FE 1 YY    0.004185   0.002674   0.000000   0.000000  -0.000000
   52  FE 1 ZZ   -0.000000  -0.005349   0.000000   0.000000  -0.000000
   53  FE 1 XY    0.000000  -0.000000   0.000000   0.000000  -0.004978
   54  FE 1 XZ    0.000000  -0.000000   0.000000  -0.005289  -0.000000
   55  FE 1 YZ    0.000000  -0.000000  -0.005289   0.000000  -0.000000
   56  FE 1 XX   -0.001912   0.001466   0.000000   0.000000  -0.000000
   57  FE 1 YY    0.001912   0.001466   0.000000   0.000000  -0.000000
   58  FE 1 ZZ    0.000000  -0.002933   0.000000   0.000000  -0.000000
   59  FE 1 XY    0.000000  -0.000000   0.000000   0.000000  -0.003238
   60  FE 1 XZ    0.000000  -0.000000   0.000000  -0.003004  -0.000000
   61  FE 1 YZ    0.000000  -0.000000  -0.003004   0.000000  -0.000000
   62  FE 1 XX   -0.023020   0.012993   0.000000   0.000000  -0.000000
   63  FE 1 YY    0.023020   0.012993   0.000000   0.000000  -0.000000
   64  FE 1 ZZ    0.000000  -0.025987   0.000000   0.000000  -0.000000
   65  FE 1 XY    0.000000  -0.000000   0.000000   0.000000  -0.027873
   66  FE 1 XZ    0.000000  -0.000000   0.000000  -0.026374  -0.000000
   67  FE 1 YZ    0.000000  -0.000000  -0.026374   0.000000  -0.000000
   68  FE 1 XX    0.002968  -0.000005   0.000000   0.000000  -0.000000
   69  FE 1 YY   -0.002968  -0.000005   0.000000   0.000000  -0.000000
   70  FE 1 ZZ   -0.000000   0.000011   0.000000   0.000000  -0.000000
   71  FE 1 XY    0.000000  -0.000000   0.000000   0.000000   0.000427
   72  FE 1 XZ    0.000000  -0.000000   0.000000   0.000077  -0.000000
   73  FE 1 YZ    0.000000  -0.000000   0.000077   0.000000  -0.000000
   74  FE 1 XXX   0.000000  -0.000000   0.000000   0.000000  -0.000000
   75  FE 1 YYY   0.000000  -0.000000   0.000000   0.000000  -0.000000
   76  FE 1 ZZZ   0.000000  -0.000000   0.000000   0.000000  -0.000000
   77  FE 1 XXY   0.000000  -0.000000   0.000000   0.000000  -0.000000
   78  FE 1 XXZ   0.000000  -0.000000   0.000000   0.000000  -0.000000
   79  FE 1 YYX   0.000000  -0.000000   0.000000   0.000000  -0.000000
   80  FE 1 YYZ   0.000000  -0.000000   0.000000   0.000000  -0.000000
   81  FE 1 ZZX   0.000000  -0.000000   0.000000   0.000000  -0.000000
   82  FE 1 ZZY   0.000000  -0.000000   0.000000   0.000000  -0.000000
   83  FE 1 XYZ   0.000000  -0.000000   0.000000   0.000000  -0.000000
   84  FE 1 XXX   0.000000  -0.000000   0.000000   0.000000  -0.000000
   85  FE 1 YYY   0.000000  -0.000000   0.000000   0.000000  -0.000000
   86  FE 1 ZZZ   0.000000  -0.000000   0.000000   0.000000  -0.000000
   87  FE 1 XXY   0.000000  -0.000000   0.000000   0.000000  -0.000000
   88  FE 1 XXZ   0.000000  -0.000000   0.000000   0.000000  -0.000000
   89  FE 1 YYX   0.000000  -0.000000   0.000000   0.000000  -0.000000
   90  FE 1 YYZ   0.000000  -0.000000   0.000000   0.000000  -0.000000
   91  FE 1 ZZX   0.000000  -0.000000   0.000000   0.000000  -0.000000
   92  FE 1 ZZY   0.000000  -0.000000   0.000000   0.000000  -0.000000
   93  FE 1 XYZ   0.000000  -0.000000   0.000000   0.000000  -0.000000
   94  FE 1 XXX   0.000000  -0.000000   0.000000   0.000000  -0.000000
   95  FE 1 YYY   0.000000  -0.000000   0.000000   0.000000  -0.000000
   96  FE 1 ZZZ   0.000000  -0.000000   0.000000   0.000000  -0.000000
   97  FE 1 XXY   0.000000  -0.000000   0.000000   0.000000  -0.000000
   98  FE 1 XXZ   0.000000  -0.000000   0.000000   0.000000  -0.000000
   99  FE 1 YYX   0.000000  -0.000000   0.000000   0.000000  -0.000000
  100  FE 1 YYZ   0.000000  -0.000000   0.000000   0.000000  -0.000000
  101  FE 1 ZZX   0.000000  -0.000000   0.000000   0.000000  -0.000000
  102  FE 1 ZZY   0.000000  -0.000000   0.000000   0.000000  -0.000000
  103  FE 1 XYZ   0.000000  -0.000000   0.000000   0.000000  -0.000000
  104  FE 1 XXX   0.000000  -0.000000   0.000000   0.000000  -0.000000
  105  FE 1 YYY   0.000000  -0.000000   0.000000   0.000000  -0.000000
  106  FE 1 ZZZ   0.000000  -0.000000   0.000000   0.000000  -0.000000
  107  FE 1 XXY   0.000000  -0.000000   0.000000   0.000000  -0.000000
  108  FE 1 XXZ   0.000000  -0.000000   0.000000   0.000000  -0.000000
  109  FE 1 YYX   0.000000  -0.000000   0.000000   0.000000  -0.000000
  110  FE 1 YYZ   0.000000  -0.000000   0.000000   0.000000  -0.000000
  111  FE 1 ZZX   0.000000  -0.000000   0.000000   0.000000  -0.000000
  112  FE 1 ZZY   0.000000  -0.000000   0.000000   0.000000  -0.000000
  113  FE 1 XYZ   0.000000  -0.000000   0.000000   0.000000  -0.000000
  114  FE 1 XXX   0.000000  -0.000000   0.000000   0.000000  -0.000000
  115  FE 1 YYY   0.000000  -0.000000   0.000000   0.000000  -0.000000
  116  FE 1 ZZZ   0.000000  -0.000000   0.000000   0.000000  -0.000000
  117  FE 1 XXY   0.000000  -0.000000   0.000000   0.000000  -0.000000
  118  FE 1 XXZ   0.000000  -0.000000   0.000000   0.000000  -0.000000
  119  FE 1 YYX   0.000000  -0.000000   0.000000   0.000000  -0.000000
  120  FE 1 YYZ   0.000000  -0.000000   0.000000   0.000000  -0.000000
  121  FE 1 ZZX   0.000000  -0.000000   0.000000   0.000000  -0.000000
  122  FE 1 ZZY   0.000000  -0.000000   0.000000   0.000000  -0.000000
  123  FE 1 XYZ   0.000000  -0.000000   0.000000   0.000000  -0.000000
  124  FE 1XXXX  -0.000302   0.000386   0.000000   0.000000  -0.000000
  125  FE 1YYYY   0.000302   0.000386   0.000000   0.000000  -0.000000
  126  FE 1ZZZZ  -0.000000   0.000863   0.000000   0.000000  -0.000000
  127  FE 1XXXY   0.000000  -0.000000   0.000000   0.000000  -0.000250
  128  FE 1XXXZ   0.000000  -0.000000   0.000000  -0.000793  -0.000000
  129  FE 1YYYX   0.000000  -0.000000   0.000000   0.000000  -0.000250
  130  FE 1YYYZ   0.000000  -0.000000  -0.000793   0.000000  -0.000000
  131  FE 1ZZZX   0.000000  -0.000000   0.000000   0.000977  -0.000000
  132  FE 1ZZZY   0.000000  -0.000000   0.000977   0.000000  -0.000000
  133  FE 1XXYY   0.000000   0.000081   0.000000   0.000000  -0.000000
  134  FE 1XXZZ   0.000531  -0.000758   0.000000   0.000000  -0.000000
  135  FE 1YYZZ  -0.000531  -0.000758   0.000000   0.000000  -0.000000
  136  FE 1XXYZ   0.000000  -0.000000  -0.000246   0.000000  -0.000000
  137  FE 1YYXZ   0.000000  -0.000000   0.000000  -0.000246  -0.000000
  138  FE 1ZZXY   0.000000  -0.000000   0.000000   0.000000   0.000671
  139  FE 1XXXX  -0.000327   0.001433   0.000000   0.000000  -0.000000
  140  FE 1YYYY   0.000327   0.001433   0.000000   0.000000  -0.000000
  141  FE 1ZZZZ  -0.000000   0.002359   0.000000   0.000000  -0.000000
  142  FE 1XXXY   0.000000  -0.000000   0.000000   0.000000  -0.000620
  143  FE 1XXXZ   0.000000  -0.000000   0.000000  -0.002410  -0.000000
  144  FE 1YYYX   0.000000  -0.000000   0.000000   0.000000  -0.000620
  145  FE 1YYYZ   0.000000  -0.000000  -0.002410   0.000000  -0.000000
  146  FE 1ZZZX   0.000000  -0.000000   0.000000   0.002681  -0.000000
  147  FE 1ZZZY   0.000000  -0.000000   0.002681   0.000000  -0.000000
  148  FE 1XXYY   0.000000  -0.000446   0.000000   0.000000  -0.000000
  149  FE 1XXZZ   0.000574  -0.002072   0.000000   0.000000  -0.000000
  150  FE 1YYZZ  -0.000574  -0.002072   0.000000   0.000000  -0.000000
  151  FE 1XXYZ   0.000000  -0.000000  -0.000363   0.000000  -0.000000
  152  FE 1YYXZ   0.000000  -0.000000   0.000000  -0.000363  -0.000000
  153  FE 1ZZXY   0.000000  -0.000000   0.000000   0.000000   0.001664
  154  FE 1XXXX  -0.000693   0.001945   0.000000   0.000000  -0.000000
  155  FE 1YYYY   0.000693   0.001945   0.000000   0.000000  -0.000000
  156  FE 1ZZZZ  -0.000000   0.002479   0.000000   0.000000  -0.000000
  157  FE 1XXXY   0.000000  -0.000000   0.000000   0.000000  -0.000617
  158  FE 1XXXZ   0.000000  -0.000000   0.000000  -0.002808  -0.000000
  159  FE 1YYYX   0.000000  -0.000000   0.000000   0.000000  -0.000617
  160  FE 1YYYZ   0.000000  -0.000000  -0.002808   0.000000  -0.000000
  161  FE 1ZZZX   0.000000  -0.000000   0.000000   0.002846  -0.000000
  162  FE 1ZZZY   0.000000  -0.000000   0.002846   0.000000  -0.000000
  163  FE 1XXYY   0.000000  -0.001240   0.000000   0.000000  -0.000000
  164  FE 1XXZZ   0.001217  -0.002178   0.000000   0.000000  -0.000000
  165  FE 1YYZZ  -0.001217  -0.002178   0.000000   0.000000  -0.000000
  166  FE 1XXYZ   0.000000  -0.000000  -0.000050   0.000000  -0.000000
  167  FE 1YYXZ   0.000000  -0.000000   0.000000  -0.000050  -0.000000
  168  FE 1ZZXY   0.000000  -0.000000   0.000000   0.000000   0.001655
  169  FE 1XXXX  -0.000198   0.000852   0.000000   0.000000  -0.000000
  170  FE 1YYYY   0.000198   0.000852   0.000000   0.000000  -0.000000
  171  FE 1ZZZZ  -0.000000   0.000838   0.000000   0.000000  -0.000000
  172  FE 1XXXY   0.000000  -0.000000   0.000000   0.000000  -0.000199
  173  FE 1XXXZ   0.000000  -0.000000   0.000000  -0.001086  -0.000000
  174  FE 1YYYX   0.000000  -0.000000   0.000000   0.000000  -0.000199
  175  FE 1YYYZ   0.000000  -0.000000  -0.001086   0.000000  -0.000000
  176  FE 1ZZZX   0.000000  -0.000000   0.000000   0.000985  -0.000000
  177  FE 1ZZZY   0.000000  -0.000000   0.000985   0.000000  -0.000000
  178  FE 1XXYY   0.000000  -0.000760   0.000000   0.000000  -0.000000
  179  FE 1XXZZ   0.000348  -0.000736   0.000000   0.000000  -0.000000
  180  FE 1YYZZ  -0.000348  -0.000736   0.000000   0.000000  -0.000000
  181  FE 1XXYZ   0.000000  -0.000000   0.000136   0.000000  -0.000000
  182  FE 1YYXZ   0.000000  -0.000000   0.000000   0.000136  -0.000000
  183  FE 1ZZXY   0.000000  -0.000000   0.000000   0.000000   0.000534

                     11         12         13         14         15
                   -0.0679    -0.0551    -0.0551    -0.0014     0.0280
                     A          A          A          A          A   
    1  FE 1  S    0.000000   0.000000   0.000000  -0.006400   0.000000
    2  FE 1  S    0.000000   0.000000   0.000000  -0.202248   0.000000
    3  FE 1  S    0.000000   0.000000   0.000000  -0.196595   0.000000
    4  FE 1  S    0.000000   0.000000   0.000000   0.054162   0.000000
    5  FE 1  S    0.000000   0.000000   0.000000   0.016820   0.000000
    6  FE 1  S    0.000000   0.000000   0.000000  -0.912991   0.000000
    7  FE 1  S    0.000000   0.000000   0.000000   1.630085   0.000000
    8  FE 1  X    0.000000  -0.022240   0.000000  -0.000000   0.000000
    9  FE 1  Y    0.000000   0.000000  -0.022240  -0.000000   0.000000
   10  FE 1  Z   -0.016524   0.000000   0.000000  -0.000000   0.023873
   11  FE 1  X    0.000000   0.799250   0.000000  -0.000000   0.000000
   12  FE 1  Y    0.000000   0.000000   0.799250  -0.000000   0.000000
   13  FE 1  Z    0.878511   0.000000   0.000000  -0.000000  -0.238100
   14  FE 1  X    0.000000  -0.017156   0.000000  -0.000000   0.000000
   15  FE 1  Y    0.000000   0.000000  -0.017156  -0.000000   0.000000
   16  FE 1  Z   -0.004653   0.000000   0.000000  -0.000000  -0.073976
   17  FE 1  X    0.000000   0.012348   0.000000  -0.000000   0.000000
   18  FE 1  Y    0.000000   0.000000   0.012348  -0.000000   0.000000
   19  FE 1  Z    0.007703   0.000000   0.000000  -0.000000   0.052047
   20  FE 1  X    0.000000  -0.004249   0.000000  -0.000000   0.000000
   21  FE 1  Y    0.000000   0.000000  -0.004249  -0.000000   0.000000
   22  FE 1  Z   -0.002927   0.000000   0.000000  -0.000000  -0.024885
   23  FE 1  X    0.000000   0.000177   0.000000  -0.000000   0.000000
   24  FE 1  Y    0.000000   0.000000   0.000177  -0.000000   0.000000
   25  FE 1  Z    0.000663   0.000000   0.000000  -0.000000  -0.008834
   26  FE 1  X    0.000000   0.103049   0.000000  -0.000000   0.000000
   27  FE 1  Y    0.000000   0.000000   0.103049  -0.000000   0.000000
   28  FE 1  Z    0.055019   0.000000   0.000000  -0.000000  -0.992056
   29  FE 1  X    0.000000   0.163088   0.000000  -0.000000   0.000000
   30  FE 1  Y    0.000000   0.000000   0.163088  -0.000000   0.000000
   31  FE 1  Z    0.118272   0.000000   0.000000  -0.000000   1.656414
   32  FE 1 XX    0.000000   0.000000   0.000000  -0.000577   0.000000
   33  FE 1 YY    0.000000   0.000000   0.000000  -0.000577   0.000000
   34  FE 1 ZZ    0.000000   0.000000   0.000000   0.001153   0.000000
   35  FE 1 XY    0.000000   0.000000   0.000000  -0.000000   0.000000
   36  FE 1 XZ    0.000000   0.000000   0.000000  -0.000000   0.000000
   37  FE 1 YZ    0.000000   0.000000   0.000000  -0.000000   0.000000
   38  FE 1 XX    0.000000   0.000000   0.000000   0.005233   0.000000
   39  FE 1 YY    0.000000   0.000000   0.000000   0.005233   0.000000
   40  FE 1 ZZ    0.000000   0.000000   0.000000  -0.010466   0.000000
   41  FE 1 XY    0.000000   0.000000   0.000000  -0.000000   0.000000
   42  FE 1 XZ    0.000000   0.000000   0.000000  -0.000000   0.000000
   43  FE 1 YZ    0.000000   0.000000   0.000000  -0.000000   0.000000
   44  FE 1 XX    0.000000   0.000000   0.000000   0.000206   0.000000
   45  FE 1 YY    0.000000   0.000000   0.000000   0.000206   0.000000
   46  FE 1 ZZ    0.000000   0.000000   0.000000  -0.000412   0.000000
   47  FE 1 XY    0.000000   0.000000   0.000000  -0.000000   0.000000
   48  FE 1 XZ    0.000000   0.000000   0.000000  -0.000000   0.000000
   49  FE 1 YZ    0.000000   0.000000   0.000000  -0.000000   0.000000
   50  FE 1 XX    0.000000   0.000000   0.000000  -0.000342   0.000000
   51  FE 1 YY    0.000000   0.000000   0.000000  -0.000342   0.000000
   52  FE 1 ZZ    0.000000   0.000000   0.000000   0.000684   0.000000
   53  FE 1 XY    0.000000   0.000000   0.000000  -0.000000   0.000000
   54  FE 1 XZ    0.000000   0.000000   0.000000  -0.000000   0.000000
   55  FE 1 YZ    0.000000   0.000000   0.000000  -0.000000   0.000000
   56  FE 1 XX    0.000000   0.000000   0.000000   0.000096   0.000000
   57  FE 1 YY    0.000000   0.000000   0.000000   0.000096   0.000000
   58  FE 1 ZZ    0.000000   0.000000   0.000000  -0.000192   0.000000
   59  FE 1 XY    0.000000   0.000000   0.000000  -0.000000   0.000000
   60  FE 1 XZ    0.000000   0.000000   0.000000  -0.000000   0.000000
   61  FE 1 YZ    0.000000   0.000000   0.000000  -0.000000   0.000000
   62  FE 1 XX    0.000000   0.000000   0.000000   0.001055   0.000000
   63  FE 1 YY    0.000000   0.000000   0.000000   0.001055   0.000000
   64  FE 1 ZZ    0.000000   0.000000   0.000000  -0.002110   0.000000
   65  FE 1 XY    0.000000   0.000000   0.000000  -0.000000   0.000000
   66  FE 1 XZ    0.000000   0.000000   0.000000  -0.000000   0.000000
   67  FE 1 YZ    0.000000   0.000000   0.000000  -0.000000   0.000000
   68  FE 1 XX    0.000000   0.000000   0.000000  -0.003661   0.000000
   69  FE 1 YY    0.000000   0.000000   0.000000  -0.003661   0.000000
   70  FE 1 ZZ    0.000000   0.000000   0.000000   0.007322   0.000000
   71  FE 1 XY    0.000000   0.000000   0.000000  -0.000000   0.000000
   72  FE 1 XZ    0.000000   0.000000   0.000000  -0.000000   0.000000
   73  FE 1 YZ    0.000000   0.000000   0.000000  -0.000000   0.000000
   74  FE 1 XXX   0.000000  -0.006195   0.000000  -0.000000   0.000000
   75  FE 1 YYY   0.000000   0.000000  -0.006195  -0.000000   0.000000
   76  FE 1 ZZZ   0.008426   0.000000   0.000000  -0.000000  -0.002975
   77  FE 1 XXY   0.000000   0.000000   0.000112  -0.000000   0.000000
   78  FE 1 XXZ  -0.005652   0.000000   0.000000  -0.000000   0.001996
   79  FE 1 YYX   0.000000   0.000112   0.000000  -0.000000   0.000000
   80  FE 1 YYZ  -0.005652   0.000000   0.000000  -0.000000   0.001996
   81  FE 1 ZZX   0.000000   0.008199   0.000000  -0.000000   0.000000
   82  FE 1 ZZY   0.000000   0.000000   0.008199  -0.000000   0.000000
   83  FE 1 XYZ   0.000000   0.000000   0.000000  -0.000000   0.000000
   84  FE 1 XXX   0.000000  -0.006452   0.000000  -0.000000   0.000000
   85  FE 1 YYY   0.000000   0.000000  -0.006452  -0.000000   0.000000
   86  FE 1 ZZZ   0.006562   0.000000   0.000000  -0.000000  -0.003564
   87  FE 1 XXY   0.000000   0.000000   0.002538  -0.000000   0.000000
   88  FE 1 XXZ  -0.004402   0.000000   0.000000  -0.000000   0.002391
   89  FE 1 YYX   0.000000   0.002538   0.000000  -0.000000   0.000000
   90  FE 1 YYZ  -0.004402   0.000000   0.000000  -0.000000   0.002391
   91  FE 1 ZZX   0.000000   0.006118   0.000000  -0.000000   0.000000
   92  FE 1 ZZY   0.000000   0.000000   0.006118  -0.000000   0.000000
   93  FE 1 XYZ   0.000000   0.000000   0.000000  -0.000000   0.000000
   94  FE 1 XXX   0.000000  -0.001295   0.000000  -0.000000   0.000000
   95  FE 1 YYY   0.000000   0.000000  -0.001295  -0.000000   0.000000
   96  FE 1 ZZZ   0.001196   0.000000   0.000000  -0.000000  -0.000580
   97  FE 1 XXY   0.000000   0.000000   0.000575  -0.000000   0.000000
   98  FE 1 XXZ  -0.000802   0.000000   0.000000  -0.000000   0.000389
   99  FE 1 YYX   0.000000   0.000575   0.000000  -0.000000   0.000000
  100  FE 1 YYZ  -0.000802   0.000000   0.000000  -0.000000   0.000389
  101  FE 1 ZZX   0.000000   0.001162   0.000000  -0.000000   0.000000
  102  FE 1 ZZY   0.000000   0.000000   0.001162  -0.000000   0.000000
  103  FE 1 XYZ   0.000000   0.000000   0.000000  -0.000000   0.000000
  104  FE 1 XXX   0.000000   0.001055   0.000000  -0.000000   0.000000
  105  FE 1 YYY   0.000000   0.000000   0.001055  -0.000000   0.000000
  106  FE 1 ZZZ  -0.000742   0.000000   0.000000  -0.000000   0.000334
  107  FE 1 XXY   0.000000   0.000000  -0.000597  -0.000000   0.000000
  108  FE 1 XXZ   0.000498   0.000000   0.000000  -0.000000  -0.000224
  109  FE 1 YYX   0.000000  -0.000597   0.000000  -0.000000   0.000000
  110  FE 1 YYZ   0.000498   0.000000   0.000000  -0.000000  -0.000224
  111  FE 1 ZZX   0.000000  -0.000818   0.000000  -0.000000   0.000000
  112  FE 1 ZZY   0.000000   0.000000  -0.000818  -0.000000   0.000000
  113  FE 1 XYZ   0.000000   0.000000   0.000000  -0.000000   0.000000
  114  FE 1 XXX   0.000000   0.000383   0.000000  -0.000000   0.000000
  115  FE 1 YYY   0.000000   0.000000   0.000383  -0.000000   0.000000
  116  FE 1 ZZZ  -0.000160   0.000000   0.000000  -0.000000   0.000078
  117  FE 1 XXY   0.000000   0.000000  -0.000297  -0.000000   0.000000
  118  FE 1 XXZ   0.000107   0.000000   0.000000  -0.000000  -0.000052
  119  FE 1 YYX   0.000000  -0.000297   0.000000  -0.000000   0.000000
  120  FE 1 YYZ   0.000107   0.000000   0.000000  -0.000000  -0.000052
  121  FE 1 ZZX   0.000000  -0.000217   0.000000  -0.000000   0.000000
  122  FE 1 ZZY   0.000000   0.000000  -0.000217  -0.000000   0.000000
  123  FE 1 XYZ   0.000000   0.000000   0.000000  -0.000000   0.000000
  124  FE 1XXXX   0.000000   0.000000   0.000000   0.000365   0.000000
  125  FE 1YYYY   0.000000   0.000000   0.000000   0.000365   0.000000
[...]
   52  FE 1 ZZ   -0.000000   0.000000
   53  FE 1 XY   -0.000000  -0.000000
   54  FE 1 XZ   -0.000000   0.000000
   55  FE 1 YZ   -0.000000   0.000000
   56  FE 1 XX   -0.000000   0.000000
   57  FE 1 YY   -0.000000   0.000000
   58  FE 1 ZZ   -0.000000   0.000000
   59  FE 1 XY   -0.000000   0.000000
   60  FE 1 XZ   -0.000000   0.000000
   61  FE 1 YZ   -0.000000   0.000000
   62  FE 1 XX   -0.000000   0.000000
   63  FE 1 YY   -0.000000   0.000000
   64  FE 1 ZZ   -0.000000   0.000000
   65  FE 1 XY   -0.000000   0.000000
   66  FE 1 XZ   -0.000000   0.000000
   67  FE 1 YZ   -0.000000   0.000000
   68  FE 1 XX   -0.000000   0.000000
   69  FE 1 YY   -0.000000   0.000000
   70  FE 1 ZZ   -0.000000   0.000000
   71  FE 1 XY   -0.000000  -0.000000
   72  FE 1 XZ   -0.000000   0.000000
   73  FE 1 YZ   -0.000000   0.000000
   74  FE 1 XXX  -0.000000   0.000000
   75  FE 1 YYY  -0.000000   0.000000
   76  FE 1 ZZZ  -0.000000   0.000000
   77  FE 1 XXY  -0.000000   0.000000
   78  FE 1 XXZ  -0.000000   0.000000
   79  FE 1 YYX  -0.000000   0.000000
   80  FE 1 YYZ  -0.000000   0.000000
   81  FE 1 ZZX  -0.000000   0.000000
   82  FE 1 ZZY  -0.000000   0.000000
   83  FE 1 XYZ   0.288173   0.000000
   84  FE 1 XXX  -0.000000   0.000000
   85  FE 1 YYY  -0.000000   0.000000
   86  FE 1 ZZZ  -0.000000   0.000000
   87  FE 1 XXY  -0.000000   0.000000
   88  FE 1 XXZ  -0.000000   0.000000
   89  FE 1 YYX  -0.000000   0.000000
   90  FE 1 YYZ  -0.000000   0.000000
   91  FE 1 ZZX  -0.000000   0.000000
   92  FE 1 ZZY  -0.000000   0.000000
   93  FE 1 XYZ  -0.841268   0.000000
   94  FE 1 XXX  -0.000000   0.000000
   95  FE 1 YYY  -0.000000   0.000000
   96  FE 1 ZZZ  -0.000000   0.000000
   97  FE 1 XXY  -0.000000   0.000000
   98  FE 1 XXZ  -0.000000   0.000000
   99  FE 1 YYX  -0.000000   0.000000
  100  FE 1 YYZ  -0.000000   0.000000
  101  FE 1 ZZX  -0.000000   0.000000
  102  FE 1 ZZY  -0.000000   0.000000
  103  FE 1 XYZ   1.215689   0.000000
  104  FE 1 XXX  -0.000000   0.000000
  105  FE 1 YYY  -0.000000   0.000000
  106  FE 1 ZZZ  -0.000000   0.000000
  107  FE 1 XXY  -0.000000   0.000000
  108  FE 1 XXZ  -0.000000   0.000000
  109  FE 1 YYX  -0.000000   0.000000
  110  FE 1 YYZ  -0.000000   0.000000
  111  FE 1 ZZX  -0.000000   0.000000
  112  FE 1 ZZY  -0.000000   0.000000
  113  FE 1 XYZ   0.017393   0.000000
  114  FE 1 XXX  -0.000000   0.000000
  115  FE 1 YYY  -0.000000   0.000000
  116  FE 1 ZZZ  -0.000000   0.000000
  117  FE 1 XXY  -0.000000   0.000000
  118  FE 1 XXZ  -0.000000   0.000000
  119  FE 1 YYX  -0.000000   0.000000
  120  FE 1 YYZ  -0.000000   0.000000
  121  FE 1 ZZX  -0.000000   0.000000
  122  FE 1 ZZY  -0.000000   0.000000
  123  FE 1 XYZ   0.038854   0.000000
  124  FE 1XXXX  -0.000000   0.000000
  125  FE 1YYYY  -0.000000   0.000000
  126  FE 1ZZZZ  -0.000000   0.000000
  127  FE 1XXXY  -0.000000  -0.505866
  128  FE 1XXXZ  -0.000000   0.000000
  129  FE 1YYYX  -0.000000   0.505866
  130  FE 1YYYZ  -0.000000   0.000000
  131  FE 1ZZZX  -0.000000   0.000000
  132  FE 1ZZZY  -0.000000   0.000000
  133  FE 1XXYY  -0.000000   0.000000
  134  FE 1XXZZ  -0.000000   0.000000
  135  FE 1YYZZ  -0.000000   0.000000
  136  FE 1XXYZ  -0.000000   0.000000
  137  FE 1YYXZ  -0.000000   0.000000
  138  FE 1ZZXY  -0.000000   0.000000
  139  FE 1XXXX  -0.000000   0.000000
  140  FE 1YYYY  -0.000000   0.000000
  141  FE 1ZZZZ  -0.000000   0.000000
  142  FE 1XXXY  -0.000000   1.299487
  143  FE 1XXXZ  -0.000000   0.000000
  144  FE 1YYYX  -0.000000  -1.299487
  145  FE 1YYYZ  -0.000000   0.000000
  146  FE 1ZZZX  -0.000000   0.000000
  147  FE 1ZZZY  -0.000000   0.000000
  148  FE 1XXYY  -0.000000   0.000000
  149  FE 1XXZZ  -0.000000   0.000000
  150  FE 1YYZZ  -0.000000   0.000000
  151  FE 1XXYZ  -0.000000   0.000000
  152  FE 1YYXZ  -0.000000   0.000000
  153  FE 1ZZXY  -0.000000  -0.000000
  154  FE 1XXXX  -0.000000   0.000000
  155  FE 1YYYY  -0.000000   0.000000
  156  FE 1ZZZZ  -0.000000   0.000000
  157  FE 1XXXY  -0.000000  -0.084599
  158  FE 1XXXZ  -0.000000   0.000000
  159  FE 1YYYX  -0.000000   0.084599
  160  FE 1YYYZ  -0.000000   0.000000
  161  FE 1ZZZX  -0.000000   0.000000
  162  FE 1ZZZY  -0.000000   0.000000
  163  FE 1XXYY  -0.000000   0.000000
  164  FE 1XXZZ  -0.000000   0.000000
  165  FE 1YYZZ  -0.000000   0.000000
  166  FE 1XXYZ  -0.000000   0.000000
  167  FE 1YYXZ  -0.000000   0.000000
  168  FE 1ZZXY  -0.000000   0.000000
  169  FE 1XXXX  -0.000000   0.000000
  170  FE 1YYYY  -0.000000   0.000000
  171  FE 1ZZZZ  -0.000000   0.000000
  172  FE 1XXXY  -0.000000   0.021513
  173  FE 1XXXZ  -0.000000   0.000000
  174  FE 1YYYX  -0.000000  -0.021513
  175  FE 1YYYZ  -0.000000   0.000000
  176  FE 1ZZZX  -0.000000   0.000000
  177  FE 1ZZZY  -0.000000   0.000000
  178  FE 1XXYY  -0.000000   0.000000
  179  FE 1XXZZ  -0.000000   0.000000
  180  FE 1YYZZ  -0.000000   0.000000
  181  FE 1XXYZ  -0.000000   0.000000
  182  FE 1YYXZ  -0.000000   0.000000
  183  FE 1ZZXY  -0.000000  -0.000000
 ...... END OF ROHF CALCULATION ......
 STEP CPU TIME =    22.71 TOTAL CPU TIME =      551.6 (    9.2 MIN)
 TOTAL WALL CLOCK TIME=      563.5 SECONDS, CPU UTILIZATION IS  97.90%

     ---------------------------------------------------------------------
     PROPERTIES FOR THE PBE      DFT FUNCTIONAL (ROHF TYPE) DENSITY MATRIX
     ---------------------------------------------------------------------

          -----------------
          ENERGY COMPONENTS
          -----------------

         WAVEFUNCTION NORMALIZATION =       1.0000000000

                ONE ELECTRON ENERGY =    -216.4469142036
                TWO ELECTRON ENERGY =      92.5862933880
           NUCLEAR REPULSION ENERGY =       0.0000000000
                                      ------------------
                       TOTAL ENERGY =    -123.8606208157

 ELECTRON-ELECTRON POTENTIAL ENERGY =      92.5862933880
  NUCLEUS-ELECTRON POTENTIAL ENERGY =    -289.1546932964
   NUCLEUS-NUCLEUS POTENTIAL ENERGY =       0.0000000000
                                      ------------------
             TOTAL POTENTIAL ENERGY =    -196.5683999084
               TOTAL KINETIC ENERGY =      72.7077790928
                 VIRIAL RATIO (V/T) =       2.7035401488

          ---------------------------------------
          MULLIKEN AND LOWDIN POPULATION ANALYSES
          ---------------------------------------

     ATOMIC MULLIKEN POPULATION IN EACH MOLECULAR ORBITAL

                      1          2          3          4          5

                  2.000000   2.000000   2.000000   2.000000   2.000000

    1             2.000000   2.000000   2.000000   2.000000   2.000000

                      6          7          8          9         10

                  2.000000   1.000000   1.000000   1.000000   1.000000

    1             2.000000   1.000000   1.000000   1.000000   1.000000

          MULLIKEN SPHERICAL HARMONIC POPULATIONS
       ATOM           S       P       D      F      G      H      I    TOTAL
    1 FE            2.00    3.00    5.00   0.00   0.00   0.00   0.00   10.00

          MULLIKEN SPHERICAL HARMONIC POPULATIONS
       ATOM           S       P       D      F      G      H      I    TOTAL
    1 FE            1.99    3.00    1.01   0.00   0.00   0.00   0.00    6.00

     ATOMIC SPIN POPULATION (ALPHA MINUS BETA)
       ATOM         MULL.POP.                    LOW.POP.
    1 FE            4.000000                     4.000000

               ----- POPULATIONS IN EACH AO -----
                             MULLIKEN      LOWDIN
              1  FE 1  S      2.00867     0.34915
              2  FE 1  S      1.95840     0.24708
              3  FE 1  S      0.02059     0.01509
              4  FE 1  S      0.00008     0.00190
              5  FE 1  S      0.00012     0.00066
              6  FE 1  S      0.00253     0.13009
              7  FE 1  S      0.00447     0.04759
              8  FE 1  X      2.00314     0.50924
              9  FE 1  Y      2.00314     0.50924
             10  FE 1  Z      2.00326     0.51028
             11  FE 1  X      0.00074     0.00157
             12  FE 1  Y      0.00074     0.00157
             13  FE 1  Z      0.00059     0.00166
             14  FE 1  X     -0.00010     0.00054
             15  FE 1  Y     -0.00010     0.00054
             16  FE 1  Z     -0.00011     0.00061
             17  FE 1  X     -0.00001     0.00043
             18  FE 1  Y     -0.00001     0.00043
             19  FE 1  Z     -0.00001     0.00046
             20  FE 1  X     -0.00001     0.00026
             21  FE 1  Y     -0.00001     0.00026
             22  FE 1  Z     -0.00001     0.00029
             23  FE 1  X      0.00009     0.00016
             24  FE 1  Y      0.00009     0.00016
             25  FE 1  Z      0.00010     0.00017
             26  FE 1  X     -0.00421     0.00077
             27  FE 1  Y     -0.00421     0.00077
             28  FE 1  Z     -0.00420     0.00075
             29  FE 1  X      0.00034     0.00009
             30  FE 1  Y      0.00034     0.00009
             31  FE 1  Z      0.00035     0.00009
             32  FE 1 XX      1.00416     0.50168
             33  FE 1 YY      2.01226     0.50168
             34  FE 1 ZZ      1.00114     0.34877
             35  FE 1 XY      0.99982     0.27217
             36  FE 1 XZ      0.99982     0.27227
             37  FE 1 YZ      0.00000     0.27227
             38  FE 1 XX      0.00691     0.16559
             39  FE 1 YY      0.00132     0.16559
             40  FE 1 ZZ      0.00550     0.17648
             41  FE 1 XY      0.00635     0.01133
             42  FE 1 XZ      0.00635     0.01188
             43  FE 1 YZ      0.00000     0.01188
             44  FE 1 XX      0.00002     0.00551
             45  FE 1 YY      0.00041     0.00551
             46  FE 1 ZZ      0.00000     0.00424
             47  FE 1 XY     -0.00001     0.00183
             48  FE 1 XZ     -0.00001     0.00171
             49  FE 1 YZ      0.00000     0.00171
             50  FE 1 XX      0.00005     0.00882
             51  FE 1 YY      0.00007     0.00882
             52  FE 1 ZZ      0.00004     0.00648
             53  FE 1 XY      0.00005     0.00531
             54  FE 1 XZ      0.00005     0.00529
             55  FE 1 YZ      0.00000     0.00529
             56  FE 1 XX      0.00000     0.00359
             57  FE 1 YY      0.00000     0.00359
             58  FE 1 ZZ      0.00000     0.00295
             59  FE 1 XY      0.00000     0.00189
             60  FE 1 XZ      0.00000     0.00189
             61  FE 1 YZ      0.00000     0.00189
             62  FE 1 XX     -0.00603     0.09858
             63  FE 1 YY     -0.01498     0.09858
             64  FE 1 ZZ     -0.00674     0.09084
             65  FE 1 XY     -0.00624     0.00718
             66  FE 1 XZ     -0.00624     0.00676
             67  FE 1 YZ      0.00000     0.00676
             68  FE 1 XX     -0.00000     0.02549
             69  FE 1 YY      0.00091     0.02549
             70  FE 1 ZZ      0.00005     0.02493
             71  FE 1 XY      0.00001     0.00068
             72  FE 1 XZ      0.00001     0.00060
             73  FE 1 YZ      0.00000     0.00060
             74  FE 1 XXX    -0.00000     0.00014
             75  FE 1 YYY     0.00000     0.00014
             76  FE 1 ZZZ     0.00000     0.00014
             77  FE 1 XXY     0.00000     0.00005
             78  FE 1 XXZ     0.00000     0.00005
             79  FE 1 YYX     0.00000     0.00005
             80  FE 1 YYZ    -0.00000     0.00005
             81  FE 1 ZZX     0.00000     0.00006
             82  FE 1 ZZY     0.00000     0.00006
             83  FE 1 XYZ     0.00000     0.00000
             84  FE 1 XXX     0.00000     0.01516
             85  FE 1 YYY     0.00000     0.01516
             86  FE 1 ZZZ     0.00000     0.01492
             87  FE 1 XXY     0.00000     0.00579
             88  FE 1 XXZ     0.00000     0.00564
             89  FE 1 YYX     0.00000     0.00579
             90  FE 1 YYZ     0.00000     0.00564
             91  FE 1 ZZX     0.00000     0.00596
             92  FE 1 ZZY     0.00000     0.00596
             93  FE 1 XYZ     0.00000     0.00000
             94  FE 1 XXX     0.00000     0.18334
             95  FE 1 YYY     0.00000     0.18334
             96  FE 1 ZZZ     0.00001     0.18459
             97  FE 1 XXY     0.00001     0.07303
             98  FE 1 XXZ     0.00001     0.07226
             99  FE 1 YYX     0.00000     0.07303
            100  FE 1 YYZ     0.00000     0.07226
            101  FE 1 ZZX     0.00000     0.07501
            102  FE 1 ZZY     0.00000     0.07501
            103  FE 1 XYZ     0.00000     0.00000
            104  FE 1 XXX    -0.00000     0.42611
            105  FE 1 YYY     0.00000     0.42611
            106  FE 1 ZZZ     0.00001     0.43195
            107  FE 1 XXY     0.00002     0.17257
            108  FE 1 XXZ     0.00001     0.17175
            109  FE 1 YYX     0.00000     0.17257
            110  FE 1 YYZ    -0.00000     0.17175
            111  FE 1 ZZX     0.00000     0.17578
            112  FE 1 ZZY     0.00000     0.17578
            113  FE 1 XYZ     0.00000     0.00000
            114  FE 1 XXX     0.00000     0.19510
            115  FE 1 YYY     0.00000     0.19510
            116  FE 1 ZZZ     0.00000     0.19658
            117  FE 1 XXY     0.00000     0.07894
            118  FE 1 XXZ     0.00000     0.07905
            119  FE 1 YYX     0.00000     0.07894
            120  FE 1 YYZ     0.00000     0.07905
            121  FE 1 ZZX     0.00000     0.07989
            122  FE 1 ZZY     0.00000     0.07989
            123  FE 1 XYZ     0.00000     0.00000
            124  FE 1XXXX     0.00000     0.10632
            125  FE 1YYYY     0.00000     0.10632
            126  FE 1ZZZZ     0.00000     0.08691
            127  FE 1XXXY     0.00000     0.01120
            128  FE 1XXXZ     0.00000     0.01061
            129  FE 1YYYX     0.00000     0.01120
            130  FE 1YYYZ     0.00000     0.01061
            131  FE 1ZZZX     0.00000     0.01100
            132  FE 1ZZZY     0.00000     0.01100
            133  FE 1XXYY     0.00000     0.07788
            134  FE 1XXZZ     0.00000     0.08274
            135  FE 1YYZZ     0.00000     0.08274
            136  FE 1XXYZ     0.00000     0.00437
            137  FE 1YYXZ     0.00000     0.00437
            138  FE 1ZZXY     0.00000     0.00472
            139  FE 1XXXX     0.00001     0.19875
            140  FE 1YYYY     0.00000     0.19875
            141  FE 1ZZZZ     0.00000     0.12812
            142  FE 1XXXY     0.00001     0.05638
            143  FE 1XXXZ     0.00001     0.05524
            144  FE 1YYYX     0.00001     0.05638
            145  FE 1YYYZ     0.00000     0.05524
            146  FE 1ZZZX     0.00000     0.05722
            147  FE 1ZZZY     0.00000     0.05722
            148  FE 1XXYY     0.00000     0.07717
            149  FE 1XXZZ     0.00000     0.08928
            150  FE 1YYZZ     0.00000     0.08928
            151  FE 1XXYZ     0.00000     0.02320
            152  FE 1YYXZ     0.00000     0.02320
            153  FE 1ZZXY     0.00000     0.02403
            154  FE 1XXXX     0.00000     0.34892
            155  FE 1YYYY     0.00000     0.34892
            156  FE 1ZZZZ     0.00000     0.23686
            157  FE 1XXXY     0.00001     0.12488
            158  FE 1XXXZ     0.00001     0.12418
            159  FE 1YYYX     0.00001     0.12488
            160  FE 1YYYZ     0.00000     0.12418
            161  FE 1ZZZX     0.00000     0.12735
            162  FE 1ZZZY     0.00000     0.12735
            163  FE 1XXYY     0.00000     0.10906
            164  FE 1XXZZ     0.00000     0.13333
            165  FE 1YYZZ     0.00000     0.13333
            166  FE 1XXYZ     0.00000     0.05142
            167  FE 1YYXZ     0.00000     0.05142
            168  FE 1ZZXY     0.00000     0.05202
            169  FE 1XXXX     0.00000     0.30846
            170  FE 1YYYY     0.00000     0.30846
            171  FE 1ZZZZ     0.00000     0.23529
            172  FE 1XXXY     0.00000     0.09617
            173  FE 1XXXZ     0.00000     0.09608
            174  FE 1YYYX     0.00000     0.09617
            175  FE 1YYYZ     0.00000     0.09608
            176  FE 1ZZZX     0.00000     0.09741
            177  FE 1ZZZY     0.00000     0.09741
            178  FE 1XXYY     0.00000     0.13525
            179  FE 1XXZZ     0.00000     0.15655
            180  FE 1YYZZ     0.00000     0.15655
            181  FE 1XXYZ     0.00000     0.04151
            182  FE 1YYXZ     0.00000     0.04151
            183  FE 1ZZXY     0.00000     0.04159

          ----- MULLIKEN ATOMIC OVERLAP POPULATIONS -----
          (OFF-DIAGONAL ELEMENTS NEED TO BE MULTIPLIED BY 2)

             1

    1   16.0000000

          TOTAL MULLIKEN AND LOWDIN ATOMIC POPULATIONS
       ATOM         MULL.POP.    CHARGE          LOW.POP.     CHARGE
    1 FE           16.000000   -0.000000        16.000000   -0.000000

          MULLIKEN SPHERICAL HARMONIC POPULATIONS
       ATOM           S       P       D      F      G      H      I    TOTAL
    1 FE            3.99    6.00    6.01   0.00   0.00   0.00   0.00   16.00

          -------------------------------
          BOND ORDER AND VALENCE ANALYSIS     BOND ORDER THRESHOLD=0.050
          -------------------------------

                   BOND                       BOND                       BOND
  ATOM PAIR DIST  ORDER      ATOM PAIR DIST  ORDER      ATOM PAIR DIST  ORDER

                       TOTAL       BONDED        FREE
      ATOM            VALENCE     VALENCE     VALENCE
    1 FE                4.000       0.000       4.000

          -----------------------------------------
          ATOMIC SPIN DENSITY AT THE NUCLEUS (A.U.)
          -----------------------------------------
                            SPIN DENS    ALPHA DENS     BETA DENS
    1  FE          16.0     0.0000007       0.00141       0.00141

          ---------------------
          ELECTROSTATIC MOMENTS
          ---------------------

 POINT   1           X           Y           Z (BOHR)    CHARGE
                 0.000000    0.000000    0.000000       -0.00 (A.U.)
         DX          DY          DZ         /D/  (DEBYE)
     0.000000    0.000000    0.000000    0.000000
 ...... END OF PROPERTY EVALUATION ......
 STEP CPU TIME =     0.15 TOTAL CPU TIME =      551.8 (    9.2 MIN)
 TOTAL WALL CLOCK TIME=      563.6 SECONDS, CPU UTILIZATION IS  97.89%
               842223  WORDS OF DYNAMIC MEMORY USED
 EXECUTION OF GAMESS TERMINATED NORMALLY Wed Jul 25 10:51:29 2018
 DDI: 263640 bytes (0.3 MB / 0 MWords) used by master data server.

 ----------------------------------------
 CPU timing information for all processes
 ========================================
 0: 547.332 + 4.452 = 551.784
 ----------------------------------------
Note: The following floating-point exceptions are signalling: IEEE_UNDERFLOW_FLAG IEEE_DENORMAL
 ddikick.x: exited gracefully.
unset echo
----- accounting info -----
Files used on the master node gwang18-OptiPlex-3040 were:
-rw-rw-r-- 1 gwang18 gwang18    417067 7月  25 10:51 /home/gwang18/research/gamess/ecpcorrelation/fe/stu/pbe/fe.dat
-rw------- 1 gwang18 gwang18    414176 7月  25 10:42 /home/gwang18/research/gamess/ecpcorrelation/fe/stu/pbe/fe.F05
-rw-rw-r-- 1 gwang18 gwang18 217639344 7月  25 10:51 /home/gwang18/research/gamess/ecpcorrelation/fe/stu/pbe/fe.F08
-rw-rw-r-- 1 gwang18 gwang18  11353840 7月  25 10:51 /home/gwang18/research/gamess/ecpcorrelation/fe/stu/pbe/fe.F10
-rw------- 1 gwang18 gwang18    414176 7月  25 10:36 /home/gwang18/research/gamess/ecpcorrelation/fe/stu/pbe/fe.inp
-rw-rw-r-- 1 gwang18 gwang18    422173 7月  25 10:51 /home/gwang18/research/gamess/ecpcorrelation/fe/stu/pbe/fe.out
ls: No match.
ls: No match.
ls: No match.
2018年 07月 25日 星期三 10:51:32 EDT
0.0u 0.0s 9:26.85 0.0% 0+0k 0+816io 0pf+0w
