
 Primary working directories    : /global/cscratch1/sd/aannabe
 Secondary working directories  : /global/cscratch1/sd/aannabe
 Wavefunction directory         : /global/homes/a/aannabe/wfu/
 Main file repository           : /global/cscratch1/sd/aannabe/

 SHA1      : 2873118e99aab1bc19f5b6fc1784693c06d15c95
 NAME      : 2015.1.8
 ARCHNAME  : linux/x86_64
 FC        : /opt/cray/pe/craype/2.5.5/bin/ftn
 BLASLIB   : -Wl,-_start-group /opt/intel/compilers_and_libraries_2016.3.210/linux/mkl/lib/intel64/libmkl_intel_ilp64.a /opt/intel/compilers_and_libraries_2016.3.210/linux/mkl/lib/intel64/libmkl_intel_thread.a /opt/intel/compilers_and_libraries_2016.3.210/linux/mkl/lib/intel64/libmkl_core.a -Wl,-_end-group
 id        : lbl

 Nodes     nprocs
 nid00507     1

 Using customized tuning parameters: mindgm=8; mindgv=16; mindgc=4; mindgr=1; noblas=0; minvec=7
 default implementation of scratch files=df  

 ***,N
 memory,512,m
 gthresh,twoint=1.e-12
 
 gprint,basis,orbitals
 gexpec,ekin,pot
 
 angstrom
 geometry={
 1                                                                               ! Number of atoms
 N 0.0 0.0 0.0
 }
 
 basis={
 Including file /global/homes/a/aannabe/docs/totals_bfd/pps/N.pp
 Including file /global/homes/a/aannabe/docs/totals_bfd/basis/aug-cc-pVnZ/N_6z.basis
 }
 
 {hf
 wf,5,8,3
 occ,1,1,1,0,1,0,0,0
                                                                                 !open,1.3
 closed,1,0,0,0,0,0,0,0
                                                                                 !sym,
 }
 scf(i)=energy
 
 _CC_NORM_MAX=2.0
 {rccsd(t)
 maxit,100
 core
 }
 posthf(i)=energy
 
 table,scf,posthf,ekin,pot
 save,6.csv,new
 
 

 Variables initialized (889), CPU time= 0.00 sec
 Commands  initialized (702), CPU time= 0.01 sec, 572 directives.
 Default parameters read. Elapsed time= 0.13 sec

 Checking input...
 Passed
1


                                         ***  PROGRAM SYSTEM MOLPRO  ***
                                       Copyright, TTI GmbH Stuttgart, 2015
                                    Version 2015.1 linked Sep  7 2016 23:09:38


 **********************************************************************************************************************************
 LABEL *   N                                                                             
  64 bit serial version                                                                  DATE: 20-Jun-18          TIME: 01:10:49  
 **********************************************************************************************************************************

 SHA1:             2873118e99aab1bc19f5b6fc1784693c06d15c95
 **********************************************************************************************************************************

 THRESHOLDS:

 ZERO    =  1.00D-12  ONEINT  =  1.00D-12  TWOINT  =  1.00D-12  PREFAC  =  1.00D-14  LOCALI  =  1.00D-09  EORDER  =  1.00D-04
 ENERGY  =  0.00D+00  ETEST   =  0.00D+00  EDENS   =  0.00D+00  THRDEDEF=  1.00D-06  GRADIENT=  1.00D-02  STEP    =  1.00D-03
 ORBITAL =  1.00D-05  CIVEC   =  1.00D-05  COEFF   =  1.00D-04  PRINTCI =  5.00D-02  PUNCHCI =  9.90D+01  OPTGRAD =  3.00D-04
 OPTENERG=  1.00D-06  OPTSTEP =  3.00D-04  THRGRAD =  1.00D-10  COMPRESS=  1.00D-11  VARMIN  =  1.00D-07  VARMAX  =  1.00D-03
 THRDOUB =  0.00D+00  THRDIV  =  1.00D-05  THRRED  =  1.00D-07  THRPSP  =  1.00D+00  THRDC   =  1.00D-10  THRCS   =  1.00D-10
 THRNRM  =  1.00D-08  THREQ   =  0.00D+00  THRDE   =  1.00D+00  THRREF  =  1.00D-05  SPARFAC =  1.00D+00  THRDLP  =  1.00D-07
 THRDIA  =  1.00D-10  THRDLS  =  1.00D-07  THRGPS  =  0.00D+00  THRKEX  =  0.00D+00  THRDIS  =  2.00D-01  THRVAR  =  1.00D-10
 THRLOC  =  1.00D-06  THRGAP  =  1.00D-06  THRLOCT = -1.00D+00  THRGAPT = -1.00D+00  THRORB  =  1.00D-06  THRMLTP =  0.00D+00
 THRCPQCI=  1.00D-10  KEXTA   =  0.00D+00  THRCOARS=  0.00D+00  SYMTOL  =  1.00D-06  GRADTOL =  1.00D-06  THROVL  =  1.00D-08
 THRORTH =  1.00D-08  GRID    =  1.00D-06  GRIDMAX =  1.00D-03  DTMAX   =  0.00D+00  THROCCDE=  1.00D-01  THROCCDE=  1.00D-01



 ZUNIT=ANG
 

Geometry recognized as XYZ


 Variable memory set to  512000000 words,  buffer space   230000 words

 SETTING BASIS          =    USERDEF


 Recomputing integrals since basis changed


 Using spherical harmonics



 PROGRAM * SEWARD (Integral evaluation for generally contracted gaussian basis sets)     Author: Roland Lindh, 1990

 Geometry written to block  1 of record 700

 Orientation using atomic masses  
 Molecule type: Atom
 Symmetry elements: X,Y,Z
 Rotational constants:       0.0000000      0.0000000      0.0000000 GHz  (calculated with average atomic masses)

 Point group  D2h 



 ATOMIC COORDINATES

 NR  ATOM    CHARGE       X              Y              Z

   1  N       5.00    0.000000000    0.000000000    0.000000000


          N   CORE POTENTIAL

          p POTENTIAL

 POWERS             1              3              2
 EXPONENTIALS   9.235010       7.668300       7.344861    
 COEFFICIENTS   5.000000       46.17505      -30.18894    

          s - p POTENTIAL

 POWERS             2
 EXPONENTIALS   6.995365    
 COEFFICIENTS   31.69720    


 BASIS DATA

   Nr Sym  Nuc  Type         Exponents   Contraction coefficients

    1.1 Ag    1  1s           0.098869     0.067266
                              0.211443     0.334290
                              0.452197     0.454257
                              0.967080     0.267861
                              2.068221     0.000248
                              4.423150    -0.132606
                              9.459462     0.014437
                             20.230246     0.000359
                             43.264919    -0.000094
    2.1 Ag    1  1s           0.041268     1.000000
    3.1 Ag    1  1s           0.103171     1.000000
    4.1 Ag    1  1s           0.236182     1.000000
    5.1 Ag    1  1s           0.530399     1.000000
    6.1 Ag    1  1s           1.101198     1.000000
    7.1 Ag    1  1s           2.386742     1.000000
    8.1 Ag    1  3d0          0.097442     1.000000
    9.1 Ag    1  3d2+         0.097442     1.000000
   10.1 Ag    1  3d0          0.243606     1.000000
   11.1 Ag    1  3d2+         0.243606     1.000000
   12.1 Ag    1  3d0          0.625451     1.000000
   13.1 Ag    1  3d2+         0.625451     1.000000
   14.1 Ag    1  3d0          1.395216     1.000000
   15.1 Ag    1  3d2+         1.395216     1.000000
   16.1 Ag    1  3d0          2.708889     1.000000
   17.1 Ag    1  3d2+         2.708889     1.000000
   18.1 Ag    1  3d0          6.671193     1.000000
   19.1 Ag    1  3d2+         6.671193     1.000000
   20.1 Ag    1  5g0          0.305106     1.000000
   21.1 Ag    1  5g4+         0.305106     1.000000
   22.1 Ag    1  5g2+         0.305106     1.000000
   23.1 Ag    1  5g0          0.762765     1.000000
   24.1 Ag    1  5g4+         0.762765     1.000000
   25.1 Ag    1  5g2+         0.762765     1.000000
   26.1 Ag    1  5g0          1.808740     1.000000
   27.1 Ag    1  5g4+         1.808740     1.000000
   28.1 Ag    1  5g2+         1.808740     1.000000
   29.1 Ag    1  5g0          3.690676     1.000000
   30.1 Ag    1  5g4+         3.690676     1.000000
   31.1 Ag    1  5g2+         3.690676     1.000000
   32.1 Ag    1  7i6+         0.833886     1.000000
   33.1 Ag    1  7i4+         0.833886     1.000000
   34.1 Ag    1  7i2+         0.833886     1.000000
   35.1 Ag    1  7i0          0.833886     1.000000
   36.1 Ag    1  7i6+         2.084716     1.000000
   37.1 Ag    1  7i4+         2.084716     1.000000
   38.1 Ag    1  7i2+         2.084716     1.000000
   39.1 Ag    1  7i0          2.084716     1.000000
    1.2 B3u   1  2px          0.073234     0.035758
                              0.145867     0.153945
                              0.290535     0.277656
                              0.578683     0.297676
                              1.152612     0.234403
                              2.295756     0.140321
                              4.572652     0.067219
                              9.107739     0.031594
                             18.140657     0.003301
    2.2 B3u   1  2px          0.042244     1.000000
    3.2 B3u   1  2px          0.105611     1.000000
    4.2 B3u   1  2px          0.262849     1.000000
    5.2 B3u   1  2px          0.597244     1.000000
    6.2 B3u   1  2px          1.508762     1.000000
    7.2 B3u   1  2px          2.096116     1.000000
    8.2 B3u   1  4f1+         0.157028     1.000000
    9.2 B3u   1  4f3+         0.157028     1.000000
   10.2 B3u   1  4f1+         0.392571     1.000000
   11.2 B3u   1  4f3+         0.392571     1.000000
   12.2 B3u   1  4f1+         0.934622     1.000000
   13.2 B3u   1  4f3+         0.934622     1.000000
   14.2 B3u   1  4f1+         1.879609     1.000000
   15.2 B3u   1  4f3+         1.879609     1.000000
   16.2 B3u   1  4f1+         3.904393     1.000000
   17.2 B3u   1  4f3+         3.904393     1.000000
   18.2 B3u   1  6h1+         0.468255     1.000000
   19.2 B3u   1  6h3+         0.468255     1.000000
   20.2 B3u   1  6h5+         0.468255     1.000000
   21.2 B3u   1  6h1+         1.170637     1.000000
   22.2 B3u   1  6h3+         1.170637     1.000000
   23.2 B3u   1  6h5+         1.170637     1.000000
   24.2 B3u   1  6h1+         2.723494     1.000000
   25.2 B3u   1  6h3+         2.723494     1.000000
   26.2 B3u   1  6h5+         2.723494     1.000000
    1.3 B2u   1  2py          0.073234     0.035758
                              0.145867     0.153945
                              0.290535     0.277656
                              0.578683     0.297676
                              1.152612     0.234403
                              2.295756     0.140321
                              4.572652     0.067219
                              9.107739     0.031594
                             18.140657     0.003301
    2.3 B2u   1  2py          0.042244     1.000000
    3.3 B2u   1  2py          0.105611     1.000000
    4.3 B2u   1  2py          0.262849     1.000000
    5.3 B2u   1  2py          0.597244     1.000000
    6.3 B2u   1  2py          1.508762     1.000000
    7.3 B2u   1  2py          2.096116     1.000000
    8.3 B2u   1  4f1-         0.157028     1.000000
    9.3 B2u   1  4f3-         0.157028     1.000000
   10.3 B2u   1  4f1-         0.392571     1.000000
   11.3 B2u   1  4f3-         0.392571     1.000000
   12.3 B2u   1  4f1-         0.934622     1.000000
   13.3 B2u   1  4f3-         0.934622     1.000000
   14.3 B2u   1  4f1-         1.879609     1.000000
   15.3 B2u   1  4f3-         1.879609     1.000000
   16.3 B2u   1  4f1-         3.904393     1.000000
   17.3 B2u   1  4f3-         3.904393     1.000000
   18.3 B2u   1  6h1-         0.468255     1.000000
   19.3 B2u   1  6h3-         0.468255     1.000000
   20.3 B2u   1  6h5-         0.468255     1.000000
   21.3 B2u   1  6h1-         1.170637     1.000000
   22.3 B2u   1  6h3-         1.170637     1.000000
   23.3 B2u   1  6h5-         1.170637     1.000000
   24.3 B2u   1  6h1-         2.723494     1.000000
   25.3 B2u   1  6h3-         2.723494     1.000000
   26.3 B2u   1  6h5-         2.723494     1.000000
    1.4 B1g   1  3d2-         0.097442     1.000000
    2.4 B1g   1  3d2-         0.243606     1.000000
    3.4 B1g   1  3d2-         0.625451     1.000000
    4.4 B1g   1  3d2-         1.395216     1.000000
    5.4 B1g   1  3d2-         2.708889     1.000000
    6.4 B1g   1  3d2-         6.671193     1.000000
    7.4 B1g   1  5g2-         0.305106     1.000000
    8.4 B1g   1  5g4-         0.305106     1.000000
    9.4 B1g   1  5g2-         0.762765     1.000000
   10.4 B1g   1  5g4-         0.762765     1.000000
   11.4 B1g   1  5g2-         1.808740     1.000000
   12.4 B1g   1  5g4-         1.808740     1.000000
   13.4 B1g   1  5g2-         3.690676     1.000000
   14.4 B1g   1  5g4-         3.690676     1.000000
   15.4 B1g   1  7i2-         0.833886     1.000000
   16.4 B1g   1  7i6-         0.833886     1.000000
   17.4 B1g   1  7i4-         0.833886     1.000000
   18.4 B1g   1  7i2-         2.084716     1.000000
   19.4 B1g   1  7i6-         2.084716     1.000000
   20.4 B1g   1  7i4-         2.084716     1.000000
    1.5 B1u   1  2pz          0.073234     0.035758
                              0.145867     0.153945
                              0.290535     0.277656
                              0.578683     0.297676
                              1.152612     0.234403
                              2.295756     0.140321
                              4.572652     0.067219
                              9.107739     0.031594
                             18.140657     0.003301
    2.5 B1u   1  2pz          0.042244     1.000000
    3.5 B1u   1  2pz          0.105611     1.000000
    4.5 B1u   1  2pz          0.262849     1.000000
    5.5 B1u   1  2pz          0.597244     1.000000
    6.5 B1u   1  2pz          1.508762     1.000000
    7.5 B1u   1  2pz          2.096116     1.000000
    8.5 B1u   1  4f0          0.157028     1.000000
    9.5 B1u   1  4f2+         0.157028     1.000000
   10.5 B1u   1  4f0          0.392571     1.000000
   11.5 B1u   1  4f2+         0.392571     1.000000
   12.5 B1u   1  4f0          0.934622     1.000000
   13.5 B1u   1  4f2+         0.934622     1.000000
   14.5 B1u   1  4f0          1.879609     1.000000
   15.5 B1u   1  4f2+         1.879609     1.000000
   16.5 B1u   1  4f0          3.904393     1.000000
   17.5 B1u   1  4f2+         3.904393     1.000000
   18.5 B1u   1  6h2+         0.468255     1.000000
   19.5 B1u   1  6h4+         0.468255     1.000000
   20.5 B1u   1  6h0          0.468255     1.000000
   21.5 B1u   1  6h2+         1.170637     1.000000
   22.5 B1u   1  6h4+         1.170637     1.000000
   23.5 B1u   1  6h0          1.170637     1.000000
   24.5 B1u   1  6h2+         2.723494     1.000000
   25.5 B1u   1  6h4+         2.723494     1.000000
   26.5 B1u   1  6h0          2.723494     1.000000
    1.6 B2g   1  3d1+         0.097442     1.000000
    2.6 B2g   1  3d1+         0.243606     1.000000
    3.6 B2g   1  3d1+         0.625451     1.000000
    4.6 B2g   1  3d1+         1.395216     1.000000
    5.6 B2g   1  3d1+         2.708889     1.000000
    6.6 B2g   1  3d1+         6.671193     1.000000
    7.6 B2g   1  5g1+         0.305106     1.000000
    8.6 B2g   1  5g3+         0.305106     1.000000
    9.6 B2g   1  5g1+         0.762765     1.000000
   10.6 B2g   1  5g3+         0.762765     1.000000
   11.6 B2g   1  5g1+         1.808740     1.000000
   12.6 B2g   1  5g3+         1.808740     1.000000
   13.6 B2g   1  5g1+         3.690676     1.000000
   14.6 B2g   1  5g3+         3.690676     1.000000
   15.6 B2g   1  7i5+         0.833886     1.000000
   16.6 B2g   1  7i3+         0.833886     1.000000
   17.6 B2g   1  7i1+         0.833886     1.000000
   18.6 B2g   1  7i5+         2.084716     1.000000
   19.6 B2g   1  7i3+         2.084716     1.000000
   20.6 B2g   1  7i1+         2.084716     1.000000
    1.7 B3g   1  3d1-         0.097442     1.000000
    2.7 B3g   1  3d1-         0.243606     1.000000
    3.7 B3g   1  3d1-         0.625451     1.000000
    4.7 B3g   1  3d1-         1.395216     1.000000
    5.7 B3g   1  3d1-         2.708889     1.000000
    6.7 B3g   1  3d1-         6.671193     1.000000
    7.7 B3g   1  5g1-         0.305106     1.000000
    8.7 B3g   1  5g3-         0.305106     1.000000
    9.7 B3g   1  5g1-         0.762765     1.000000
   10.7 B3g   1  5g3-         0.762765     1.000000
   11.7 B3g   1  5g1-         1.808740     1.000000
   12.7 B3g   1  5g3-         1.808740     1.000000
   13.7 B3g   1  5g1-         3.690676     1.000000
   14.7 B3g   1  5g3-         3.690676     1.000000
   15.7 B3g   1  7i5-         0.833886     1.000000
   16.7 B3g   1  7i3-         0.833886     1.000000
   17.7 B3g   1  7i1-         0.833886     1.000000
   18.7 B3g   1  7i5-         2.084716     1.000000
   19.7 B3g   1  7i3-         2.084716     1.000000
   20.7 B3g   1  7i1-         2.084716     1.000000
    1.8 Au    1  4f2-         0.157028     1.000000
    2.8 Au    1  4f2-         0.392571     1.000000
    3.8 Au    1  4f2-         0.934622     1.000000
    4.8 Au    1  4f2-         1.879609     1.000000
    5.8 Au    1  4f2-         3.904393     1.000000
    6.8 Au    1  6h4-         0.468255     1.000000
    7.8 Au    1  6h2-         0.468255     1.000000
    8.8 Au    1  6h4-         1.170637     1.000000
    9.8 Au    1  6h2-         1.170637     1.000000
   10.8 Au    1  6h4-         2.723494     1.000000
   11.8 Au    1  6h2-         2.723494     1.000000

 NUCLEAR CHARGE:                    5
 NUMBER OF PRIMITIVE AOS:         325
 NUMBER OF SYMMETRY AOS:          220
 NUMBER OF CONTRACTIONS:          188   (  39Ag  +  26B3u +  26B2u +  20B1g +  26B1u +  20B2g +  20B3g +  11Au  )
 NUMBER OF CORE ORBITALS:           0   (   0Ag  +   0B3u +   0B2u +   0B1g +   0B1u +   0B2g +   0B3g +   0Au  )
 NUMBER OF VALENCE ORBITALS:        4   (   1Ag  +   1B3u +   1B2u +   0B1g +   1B1u +   0B2g +   0B3g +   0Au  )


 NUCLEAR REPULSION ENERGY    0.00000000

 EXTRA SYMMETRY OF AOS IN SYMMETRY 1:   1 1 1 1 1 1 1 2 3 2   3 2 3 2 3 2 3 2 3 4   5 6 4 5 6 4 5 6 4 5   6 7 8 910 7 8 910
 EXTRA SYMMETRY OF AOS IN SYMMETRY 2:   1 1 1 1 1 1 1 2 3 2   3 2 3 2 3 2 3 4 5 6   4 5 6 4 5 6
 EXTRA SYMMETRY OF AOS IN SYMMETRY 3:   1 1 1 1 1 1 1 2 3 2   3 2 3 2 3 2 3 4 5 6   4 5 6 4 5 6
 EXTRA SYMMETRY OF AOS IN SYMMETRY 4:   1 1 1 1 1 1 2 3 2 3   2 3 2 3 4 5 6 4 5 6
 EXTRA SYMMETRY OF AOS IN SYMMETRY 5:   1 1 1 1 1 1 1 2 3 2   3 2 3 2 3 2 3 4 5 6   4 5 6 4 5 6
 EXTRA SYMMETRY OF AOS IN SYMMETRY 6:   1 1 1 1 1 1 2 3 2 3   2 3 2 3 4 5 6 4 5 6
 EXTRA SYMMETRY OF AOS IN SYMMETRY 7:   1 1 1 1 1 1 2 3 2 3   2 3 2 3 4 5 6 4 5 6
 EXTRA SYMMETRY OF AOS IN SYMMETRY 8:   1 1 1 1 1 2 3 2 3 2   3

 Eigenvalues of metric

         1 0.159E-03 0.258E-02 0.178E-01 0.222E-01 0.222E-01 0.990E-01 0.113E+00 0.113E+00
         2 0.119E-02 0.709E-02 0.333E-01 0.463E-01 0.463E-01 0.162E+00 0.223E+00 0.223E+00
         3 0.119E-02 0.709E-02 0.333E-01 0.463E-01 0.463E-01 0.162E+00 0.223E+00 0.223E+00
         4 0.222E-01 0.113E+00 0.125E+00 0.125E+00 0.346E+00 0.459E+00 0.459E+00 0.533E+00
         5 0.119E-02 0.709E-02 0.333E-01 0.463E-01 0.463E-01 0.162E+00 0.223E+00 0.223E+00
         6 0.222E-01 0.113E+00 0.125E+00 0.125E+00 0.346E+00 0.459E+00 0.459E+00 0.533E+00
         7 0.222E-01 0.113E+00 0.125E+00 0.125E+00 0.346E+00 0.459E+00 0.459E+00 0.533E+00
         8 0.463E-01 0.223E+00 0.281E+00 0.281E+00 0.643E+00 0.895E+00 0.895E+00 0.148E+01


 Contracted 2-electron integrals neglected if value below      1.0D-12
 AO integral compression algorithm  1   Integral accuracy      1.0D-12

     120.848 MB (compressed) written to integral file ( 47.7%)


 NUMBER OF SORTED TWO-ELECTRON INTEGRALS:   20212815.     BUFFER LENGTH:  32768
 NUMBER OF SEGMENTS:   2  SEGMENT LENGTH:   15998787      RECORD LENGTH: 524288

 Memory used in sort:      16.56 MW

 SORT1 READ    31710950. AND WROTE    13213985. INTEGRALS IN     39 RECORDS. CPU TIME:     1.17 SEC, REAL TIME:     1.60 SEC
 SORT2 READ    13213985. AND WROTE    20212815. INTEGRALS IN    461 RECORDS. CPU TIME:     0.73 SEC, REAL TIME:     1.34 SEC

 FILE SIZES:   FILE 1:   140.7 MBYTE,  FILE 4:   163.6 MBYTE,   TOTAL:    304.4 MBYTE

 OPERATOR DM      FOR CENTER  0  COORDINATES:    0.000000    0.000000    0.000000
 OPERATOR EKIN    FOR CENTER  0  COORDINATES:    0.000000    0.000000    0.000000
 OPERATOR POT     FOR CENTER  0  COORDINATES:    0.000000    0.000000    0.000000


 **********************************************************************************************************************************
 DATASETS  * FILE   NREC   LENGTH (MB)   RECORD NAMES
              1      20       97.67       500      610      700      900      950      970     1000      129      960     1100   
                                          VAR    BASINP    GEOM    SYMINP    ZMAT    AOBASIS   BASIS     P2S    ABASIS      S 
                                         1400     1410     1420     1200     1210     1080     1600     1650     1300     1700   
                                         EKIN       V       ECP      H0       H01     AOSYM     SMH    MOLCAS    ERIS     OPER   

 PROGRAMS   *        TOTAL       INT
 CPU TIMES  *         8.73      8.62
 REAL TIME  *        11.78 SEC
 DISK USED  *       304.69 MB      
 **********************************************************************************************************************************


 PROGRAM * RHF-SCF (OPEN SHELL)       Authors: W. Meyer, H.-J. Werner


 NUMBER OF ELECTRONS:       4+    1-    SPACE SYMMETRY=8    SPIN SYMMETRY: Quartet 
 CONVERGENCE THRESHOLDS:    1.00E-05 (Density)    1.00E-07 (Energy)
 MAX. NUMBER OF ITERATIONS:       60
 INTERPOLATION TYPE:            DIIS
 INTERPOLATION STEPS:              2 (START)      1 (STEP)
 LEVEL SHIFTS:                 -0.60 (CLOSED) -0.30 (OPEN) 

 Number of closed-shell orbitals:    1 (   1   0   0   0   0   0   0   0 )
 Number of open-shell orbitals:      3 (   0   1   1   0   1   0   0   0 )



   Atom=N  basis=ECP2MWB_GUESS     lmin=0  lmax=1

 Orbital guess generated from atomic densities. Full valence occupancy:    1   1   1   0   1   0   0   0


 Molecular orbital dump at record        2100.2

 ITERATION    DDIFF          GRAD             ENERGY        2-EL.EN.            DIPOLE MOMENTS         DIIS   ORB.
    1      0.000D+00      0.000D+00        -9.62230406     11.235494    0.00000    0.00000    0.00000    0    start
    2      0.000D+00      0.124D-01        -9.66444476     11.987359    0.00000    0.00000    0.00000    1    diag,B
    3      0.848D-02      0.301D-02        -9.66749528     12.096094    0.00000    0.00000    0.00000    2    diag,B
    4      0.150D-02      0.146D-02        -9.66833375     12.145990    0.00000    0.00000    0.00000    3    diag,B
    5      0.127D-02      0.345D-03        -9.66837530     12.151366    0.00000    0.00000    0.00000    4    diag,B
    6      0.392D-03      0.651D-04        -9.66837632     12.150680    0.00000    0.00000    0.00000    5    diag,B
    7      0.791D-04      0.141D-04        -9.66837636     12.150531    0.00000    0.00000    0.00000    6    fixocc
    8      0.302D-04      0.228D-05        -9.66837636     12.150503    0.00000    0.00000    0.00000    7    diag,B
    9      0.317D-05      0.645D-06        -9.66837636     12.150502    0.00000    0.00000    0.00000    0    orth

 Final alpha occupancy:   1   1   1   0   1   0   0   0
 Final beta  occupancy:   1   0   0   0   0   0   0   0

 !RHF STATE 1.8 Energy                 -9.668376362716
 Nuclear energy                         0.00000000
 One-electron energy                  -15.74362755
 Two-electron energy                    6.07525119
 Virial quotient                       -1.43195489
 !RHF STATE 1.8 Dipole moment           0.00000000     0.00000000     0.00000000
 Dipole moment /Debye                   0.00000000     0.00000000     0.00000000
 

 !RHF expec          <1.8|EKIN|1.8>     6.751872141566
 
 !RHF expec           <1.8|POT|1.8>    -4.748771687138

 ELECTRON ORBITALS
 =================


   Orb  Occ    Energy  Couls-En    Coefficients

                                   1 1s      1 1s      1 1s      1 1s      1 1s      1 1s      1 1s      1 3d0     1 3d2+    1 3d0  
                                   1 3d2+    1 3d0     1 3d2+    1 3d0     1 3d2+    1 3d0     1 3d2+    1 3d0     1 3d2+    1 5g0  
                                   1 5g4+    1 5g2+    1 5g0     1 5g4+    1 5g2+    1 5g0     1 5g4+    1 5g2+    1 5g0     1 5g4+ 
                                   1 5g2+    1 7i6+    1 7i4+    1 7i2+    1 7i0     1 7i6+    1 7i4+    1 7i2+    1 7i0  

   1.1   2    -0.9454   -4.3761  0.999978  0.000211 -0.000391  0.000372 -0.000214  0.000100 -0.000022 -0.000000 -0.000000  0.000000
                                 0.000000 -0.000000 -0.000000  0.000000  0.000000 -0.000000 -0.000000  0.000000  0.000000 -0.000000
                                -0.000000  0.000000  0.000000  0.000000 -0.000000 -0.000000 -0.000000  0.000000  0.000000  0.000000
                                -0.000000  0.000000 -0.000000 -0.000000  0.000000 -0.000000  0.000000  0.000000 -0.000000

                                   1 2px     1 2px     1 2px     1 2px     1 2px     1 2px     1 2px     1 4f1+    1 4f3+    1 4f1+ 
                                   1 4f3+    1 4f1+    1 4f3+    1 4f1+    1 4f3+    1 4f1+    1 4f3+    1 6h1+    1 6h3+    1 6h5+ 
                                   1 6h1+    1 6h3+    1 6h5+    1 6h1+    1 6h3+    1 6h5+ 

   1.2   +    -0.5675   -3.5282  1.000074  0.000339 -0.000427  0.000259 -0.000178  0.000096 -0.000079 -0.000000  0.000000  0.000000
                                -0.000000 -0.000000  0.000000  0.000000 -0.000000 -0.000000  0.000000 -0.000000  0.000000 -0.000000
                                 0.000000 -0.000000  0.000000 -0.000000  0.000000 -0.000000

                                   1 2py     1 2py     1 2py     1 2py     1 2py     1 2py     1 2py     1 4f1-    1 4f3-    1 4f1- 
                                   1 4f3-    1 4f1-    1 4f3-    1 4f1-    1 4f3-    1 4f1-    1 4f3-    1 6h1-    1 6h3-    1 6h5- 
                                   1 6h1-    1 6h3-    1 6h5-    1 6h1-    1 6h3-    1 6h5- 

   1.3   +    -0.5675   -3.5282  1.000074  0.000339 -0.000427  0.000259 -0.000178  0.000096 -0.000079 -0.000000 -0.000000  0.000000
                                 0.000000 -0.000000 -0.000000  0.000000  0.000000 -0.000000 -0.000000 -0.000000 -0.000000 -0.000000
                                 0.000000  0.000000  0.000000 -0.000000 -0.000000 -0.000000

                                   1 2pz     1 2pz     1 2pz     1 2pz     1 2pz     1 2pz     1 2pz     1 4f0     1 4f2+    1 4f0  
                                   1 4f2+    1 4f0     1 4f2+    1 4f0     1 4f2+    1 4f0     1 4f2+    1 6h2+    1 6h4+    1 6h0  
                                   1 6h2+    1 6h4+    1 6h0     1 6h2+    1 6h4+    1 6h0  

   1.5   +    -0.5675   -3.5282  1.000074  0.000339 -0.000427  0.000259 -0.000178  0.000096 -0.000079 -0.000000 -0.000000  0.000000
                                 0.000000 -0.000000 -0.000000  0.000000  0.000000 -0.000000 -0.000000  0.000000 -0.000000 -0.000000
                                 0.000000  0.000000  0.000000 -0.000000 -0.000000 -0.000000

 HOMO      1.2    -0.567463 =     -15.4414eV
 LUMO      2.1     0.067685 =       1.8418eV
 LUMO-HOMO         0.635148 =      17.2833eV


 **********************************************************************************************************************************
 DATASETS  * FILE   NREC   LENGTH (MB)   RECORD NAMES
              1      20       97.67       500      610      700      900      950      970     1000      129      960     1100   
                                          VAR    BASINP    GEOM    SYMINP    ZMAT    AOBASIS   BASIS     P2S    ABASIS      S 
                                         1400     1410     1420     1200     1210     1080     1600     1650     1300     1700   
                                         EKIN       V       ECP      H0       H01     AOSYM     SMH    MOLCAS    ERIS     OPER   

              2       4        2.92       700     1000      520     2100   
                                         GEOM     BASIS   MCVARS     RHF  

 PROGRAMS   *        TOTAL        HF       INT
 CPU TIMES  *         9.45      0.72      8.62
 REAL TIME  *        12.71 SEC
 DISK USED  *       304.69 MB      
 **********************************************************************************************************************************
 SETTING SCF(I)         =        -9.66837636  AU                              
 SETTING _CC_NORM_MAX   =         2.00000000                                  


 PROGRAM * CCSD (Restricted open-shell coupled cluster)     Authors: C. Hampel, H.-J. Werner, 1991, M. Deegan, P.J. Knowles, 1992


 Convergence thresholds:  THRVAR = 1.00D-08  THRDEN = 1.00D-06

 CCSD(T)     terms to be evaluated (factor= 1.000)


 Number of closed-shell orbitals:   1 (   1   0   0   0   0   0   0   0 )
 Number of active  orbitals:        3 (   0   1   1   0   1   0   0   0 )
 Number of external orbitals:     184 (  38  25  25  20  25  20  20  11 )

 Memory could be reduced to 8.70 Mwords without degradation in triples

 Number of N-1 electron functions:               5
 Number of N-2 electron functions:              10
 Number of singly external CSFs:               154
 Number of doubly external CSFs:             31391
 Total number of CSFs:                       31545

 Molecular orbitals read from record     2100.2  Type=RHF/CANONICAL (state 1.8)

 Integral transformation finished. Total CPU:   0.30 sec, npass=  1  Memory used:   1.35 MW

 Starting RMP2 calculation

 Wavefunction is spin-projected

 ITER.      SQ.NORM     CORR.ENERGY   TOTAL ENERGY   ENERGY CHANGE        DEN1      VAR(S)    VAR(P)  DIIS     TIME
   1      1.02873122    -0.11537858    -9.78375494    -0.11537858    -0.00025306  0.17D-05  0.83D-04  1  1     0.31
   2      1.02895098    -0.11565182    -9.78402819    -0.00027324    -0.00000054  0.57D-08  0.20D-06  2  2     0.31
   3      1.02895820    -0.11565796    -9.78403432    -0.00000613    -0.00000000  0.59D-11  0.43D-09  3  3     0.31
   4      1.02895829    -0.11565800    -9.78403437    -0.00000005    -0.00000000  0.12D-13  0.15D-11  4  4     0.31

 Norm of t1 vector:      0.03697333      S-energy:    -0.00239603      T1 diagnostic:  0.00153002
 Norm of t2 vector:      0.16610618      P-energy:    -0.11326198
                                         Alpha-Beta:  -0.08199973
                                         Alpha-Alpha: -0.03126224
                                         Beta-Beta:    0.00000000

 Spin contamination <S**2-Sz**2-Sz>     0.00000000
  Reference energy                     -9.668376362716
  RHF-RMP2 correlation energy          -0.115658002402
 !RHF-RMP2 energy                      -9.784034365117
 (NB above energy spin projected)

 Starting RCCSD calculation

 ITER.      SQ.NORM     CORR.ENERGY   TOTAL ENERGY   ENERGY CHANGE        DEN1      VAR(S)    VAR(P)  DIIS     TIME
   1      1.03671956    -0.12493961    -9.79331597    -0.12493961    -0.00338588  0.17D-03  0.93D-03  1  1     0.66
   2      1.04051535    -0.12860810    -9.79698446    -0.00366848    -0.00013380  0.21D-04  0.38D-04  2  2     0.99
   3      1.04146728    -0.12916962    -9.79754598    -0.00056152    -0.00000682  0.10D-05  0.18D-05  3  3     1.32
   4      1.04162925    -0.12922308    -9.79759944    -0.00005346    -0.00000032  0.12D-06  0.79D-07  4  4     1.65
   5      1.04165552    -0.12923064    -9.79760700    -0.00000756    -0.00000002  0.10D-07  0.33D-08  5  5     1.99
   6      1.04165791    -0.12923068    -9.79760704    -0.00000004    -0.00000000  0.42D-09  0.15D-09  6  6     2.33

 Norm of t1 vector:      0.05203270      S-energy:    -0.00323304      T1 diagnostic:  0.00431218
                                                                       D1 diagnostic:  0.00699719
 Norm of t2 vector:      0.19735883      P-energy:    -0.12599765
                                         Alpha-Beta:  -0.09320180
                                         Alpha-Alpha: -0.03279584
                                         Beta-Beta:    0.00000000

 Spin contamination <S**2-Sz**2-Sz>     0.00000000

 Memory could be reduced to 8.95 Mwords without degradation in triples
 

 RESULTS
 =======

  Reference energy                     -9.668376362716
  RCCSD singles energy                 -0.003233035699
  RCCSD pair energy                    -0.125997645893
  RCCSD correlation energy             -0.129230681592
  Triples (T) contribution             -0.003357938462
  Total correlation energy             -0.132588620055
 
  RHF-RCCSD energy                     -9.797607044308
  RHF-RCCSD[T] energy                  -9.800951655819
  RHF-RCCSD-T energy                   -9.800967865624
 !RHF-RCCSD(T) energy                  -9.800964982770

 Program statistics:

 Available memory in ccsd:               511999732
 Min. memory needed in ccsd:                233653
 Max. memory used in ccsd:                  259967
 Max. memory used in cckext:                248235 ( 6 integral passes)
 Max. memory used in cckint:               1350172 ( 1 integral passes)



 **********************************************************************************************************************************
 DATASETS  * FILE   NREC   LENGTH (MB)   RECORD NAMES
              1      20       97.67       500      610      700      900      950      970     1000      129      960     1100   
                                          VAR    BASINP    GEOM    SYMINP    ZMAT    AOBASIS   BASIS     P2S    ABASIS      S 
                                         1400     1410     1420     1200     1210     1080     1600     1650     1300     1700   
                                         EKIN       V       ECP      H0       H01     AOSYM     SMH    MOLCAS    ERIS     OPER   

              2       4        2.92       700     1000      520     2100   
                                         GEOM     BASIS   MCVARS     RHF  

 PROGRAMS   *        TOTAL  RCCSD(T)        HF       INT
 CPU TIMES  *        12.55      3.09      0.72      8.62
 REAL TIME  *        17.10 SEC
 DISK USED  *       304.69 MB      
 **********************************************************************************************************************************
 SETTING POSTHF(I)      =        -9.80096498  AU                              
                                                                                                                                                                                                                                                                

       SCF           POSTHF       EKIN          POT
    -9.66837636   -9.80096498   6.75187214   -4.74877169
                                                  

 RCCSD(T)/USERDEF energy=     -9.800964982770

        RCCSD(T)        HF-SCF  
     -9.80096498     -9.66837636
 **********************************************************************************************************************************
 Variable memory released
