
 Primary working directories    : /global/cscratch1/sd/aannabe
 Secondary working directories  : /global/cscratch1/sd/aannabe
 Wavefunction directory         : /global/homes/a/aannabe/wfu/
 Main file repository           : /global/cscratch1/sd/aannabe/

 SHA1      : 2873118e99aab1bc19f5b6fc1784693c06d15c95
 NAME      : 2015.1.8
 ARCHNAME  : linux/x86_64
 FC        : /opt/cray/pe/craype/2.5.5/bin/ftn
 BLASLIB   : -Wl,-_start-group /opt/intel/compilers_and_libraries_2016.3.210/linux/mkl/lib/intel64/libmkl_intel_ilp64.a /opt/intel/compilers_and_libraries_2016.3.210/linux/mkl/lib/intel64/libmkl_intel_thread.a /opt/intel/compilers_and_libraries_2016.3.210/linux/mkl/lib/intel64/libmkl_core.a -Wl,-_end-group
 id        : lbl

 Nodes     nprocs
 nid00466     1

 Using customized tuning parameters: mindgm=8; mindgv=16; mindgc=4; mindgr=1; noblas=0; minvec=7
 default implementation of scratch files=df  

 ***,Ni
 memory,512,m
 gthresh,twoint=1.e-12
 
 gprint,basis,orbitals
 gexpec,ekin,pot
 
 angstrom
 geometry={
 1                                                                               ! Number of atoms
 Ni 0.0 0.0 0.0
 }
 
 basis={
 Including file /global/homes/a/aannabe/docs/totals_stu_symm/pps/Ni.pp
 Including file /global/homes/a/aannabe/docs/totals_stu_symm/basis/unc-aug-cc-pwCVnZ/Ni_tz.basis
 }
 
 {rhf
  start,atden
  print,orbitals=2
  wf,18,6,2
  occ,4,1,1,1,1,1,1,0
  open,1.4,1.7
  sym,1,1,1,3,2
  orbital,4202.2
 }
 pop
 {multi
  start,4202.2
  occ,4,1,1,1,1,1,1,0
  closed,2,1,1,0,1,0,0
  wf,18,1,2;state,1
  wf,18,4,2;state,3
  wf,18,6,2;state,3
  wf,18,7,2;state,3
  natorb,ci,print
  orbital,5202.2
 }
 {rhf,nitord=1,maxit=0
  start,5202.2
  wf,18,1,2
  occ,4,1,1,1,1,1,1,0
  open,3.1,4.1
  sym,1,1,1,3,2
 }
 
 scf(i)=energy
 
 _CC_NORM_MAX=2.0
 {ci
 maxit,100
 core
 }
 posthf(i)=energy
 
 table,scf,posthf,ekin,pot
 save,3.csv,new
 
 

 Variables initialized (889), CPU time= 0.01 sec
 Commands  initialized (702), CPU time= 0.01 sec, 572 directives.
 Default parameters read. Elapsed time= 0.12 sec

 Checking input...
 Passed
1


                                         ***  PROGRAM SYSTEM MOLPRO  ***
                                       Copyright, TTI GmbH Stuttgart, 2015
                                    Version 2015.1 linked Sep  7 2016 23:09:38


 **********************************************************************************************************************************
 LABEL *   Ni                                                                            
  64 bit serial version                                                                  DATE: 05-Oct-18          TIME: 08:44:32  
 **********************************************************************************************************************************

 SHA1:             2873118e99aab1bc19f5b6fc1784693c06d15c95
 **********************************************************************************************************************************

 THRESHOLDS:

 ZERO    =  1.00D-12  ONEINT  =  1.00D-12  TWOINT  =  1.00D-12  PREFAC  =  1.00D-14  LOCALI  =  1.00D-09  EORDER  =  1.00D-04
 ENERGY  =  0.00D+00  ETEST   =  0.00D+00  EDENS   =  0.00D+00  THRDEDEF=  1.00D-06  GRADIENT=  1.00D-02  STEP    =  1.00D-03
 ORBITAL =  1.00D-05  CIVEC   =  1.00D-05  COEFF   =  1.00D-04  PRINTCI =  5.00D-02  PUNCHCI =  9.90D+01  OPTGRAD =  3.00D-04
 OPTENERG=  1.00D-06  OPTSTEP =  3.00D-04  THRGRAD =  1.00D-10  COMPRESS=  1.00D-11  VARMIN  =  1.00D-07  VARMAX  =  1.00D-03
 THRDOUB =  0.00D+00  THRDIV  =  1.00D-05  THRRED  =  1.00D-07  THRPSP  =  1.00D+00  THRDC   =  1.00D-10  THRCS   =  1.00D-10
 THRNRM  =  1.00D-08  THREQ   =  0.00D+00  THRDE   =  1.00D+00  THRREF  =  1.00D-05  SPARFAC =  1.00D+00  THRDLP  =  1.00D-07
 THRDIA  =  1.00D-10  THRDLS  =  1.00D-07  THRGPS  =  0.00D+00  THRKEX  =  0.00D+00  THRDIS  =  2.00D-01  THRVAR  =  1.00D-10
 THRLOC  =  1.00D-06  THRGAP  =  1.00D-06  THRLOCT = -1.00D+00  THRGAPT = -1.00D+00  THRORB  =  1.00D-06  THRMLTP =  0.00D+00
 THRCPQCI=  1.00D-10  KEXTA   =  0.00D+00  THRCOARS=  0.00D+00  SYMTOL  =  1.00D-06  GRADTOL =  1.00D-06  THROVL  =  1.00D-08
 THRORTH =  1.00D-08  GRID    =  1.00D-06  GRIDMAX =  1.00D-03  DTMAX   =  0.00D+00  THROCCDE=  1.00D-01  THROCCDE=  1.00D-01



 ZUNIT=ANG
 

Geometry recognized as XYZ


 Variable memory set to  512000000 words,  buffer space   230000 words

 SETTING BASIS          =    USERDEF


 Recomputing integrals since basis changed


 Using spherical harmonics



 PROGRAM * SEWARD (Integral evaluation for generally contracted gaussian basis sets)     Author: Roland Lindh, 1990

 Geometry written to block  1 of record 700

 Orientation using atomic masses  
 Molecule type: Atom
 Symmetry elements: X,Y,Z
 Rotational constants:       0.0000000      0.0000000      0.0000000 GHz  (calculated with average atomic masses)

 Point group  D2h 



 ATOMIC COORDINATES

 NR  ATOM    CHARGE       X              Y              Z

   1  NI     18.00    0.000000000    0.000000000    0.000000000


          NI  CORE POTENTIAL

          f POTENTIAL

 POWERS             2
 EXPONENTIALS   1.000000    
 COEFFICIENTS   0.000000    

          s - f POTENTIAL

 POWERS             2              2
 EXPONENTIALS   26.74000       11.86000    
 COEFFICIENTS   317.6823       58.25539    

          p - f POTENTIAL

 POWERS             2              2
 EXPONENTIALS   28.80000       11.79000    
 COEFFICIENTS   252.4744       36.08150    

          d - f POTENTIAL

 POWERS             2              2
 EXPONENTIALS   33.70000       11.66000    
 COEFFICIENTS  -18.52295      -4.557668    


 BASIS DATA

   Nr Sym  Nuc  Type         Exponents   Contraction coefficients

    1.1 Ag    1  1s     5045991.000000     1.000000
    2.1 Ag    1  1s      755614.200000     1.000000
    3.1 Ag    1  1s      171956.800000     1.000000
    4.1 Ag    1  1s       48704.790000     1.000000
    5.1 Ag    1  1s       15888.410000     1.000000
    6.1 Ag    1  1s        5735.123000     1.000000
    7.1 Ag    1  1s        2236.137000     1.000000
    8.1 Ag    1  1s         926.646800     1.000000
    9.1 Ag    1  1s         403.174300     1.000000
   10.1 Ag    1  1s         182.347600     1.000000
   11.1 Ag    1  1s          84.548850     1.000000
   12.1 Ag    1  1s          38.396340     1.000000
   13.1 Ag    1  1s          18.458590     1.000000
   14.1 Ag    1  1s           8.863548     1.000000
   15.1 Ag    1  1s           3.916227     1.000000
   16.1 Ag    1  1s           1.838870     1.000000
   17.1 Ag    1  1s           0.804362     1.000000
   18.1 Ag    1  1s           0.169797     1.000000
   19.1 Ag    1  1s           0.079306     1.000000
   20.1 Ag    1  1s           0.034677     1.000000
   21.1 Ag    1  1s           5.833000     1.000000
   22.1 Ag    1  1s           1.523100     1.000000
   23.1 Ag    1  1s           0.015160     1.000000
   24.1 Ag    1  3d0        142.590400     1.000000
   25.1 Ag    1  3d2+       142.590400     1.000000
   26.1 Ag    1  3d0         42.102190     1.000000
   27.1 Ag    1  3d2+        42.102190     1.000000
   28.1 Ag    1  3d0         15.463370     1.000000
   29.1 Ag    1  3d2+        15.463370     1.000000
   30.1 Ag    1  3d0          6.283810     1.000000
   31.1 Ag    1  3d2+         6.283810     1.000000
   32.1 Ag    1  3d0          2.614170     1.000000
   33.1 Ag    1  3d2+         2.614170     1.000000
   34.1 Ag    1  3d0          1.048020     1.000000
   35.1 Ag    1  3d2+         1.048020     1.000000
   36.1 Ag    1  3d0          0.388652     1.000000
   37.1 Ag    1  3d2+         0.388652     1.000000
   38.1 Ag    1  3d0          0.124664     1.000000
   39.1 Ag    1  3d2+         0.124664     1.000000
   40.1 Ag    1  3d0          5.776700     1.000000
   41.1 Ag    1  3d2+         5.776700     1.000000
   42.1 Ag    1  3d0          2.695600     1.000000
   43.1 Ag    1  3d2+         2.695600     1.000000
   44.1 Ag    1  3d0          0.039990     1.000000
   45.1 Ag    1  3d2+         0.039990     1.000000
   46.1 Ag    1  5g0          7.301700     1.000000
   47.1 Ag    1  5g4+         7.301700     1.000000
   48.1 Ag    1  5g2+         7.301700     1.000000
   49.1 Ag    1  5g0          2.928400     1.000000
   50.1 Ag    1  5g4+         2.928400     1.000000
   51.1 Ag    1  5g2+         2.928400     1.000000
   52.1 Ag    1  5g0          1.174460     1.000000
   53.1 Ag    1  5g4+         1.174460     1.000000
   54.1 Ag    1  5g2+         1.174460     1.000000
    1.2 B3u   1  2px      21027.920000     1.000000
    2.2 B3u   1  2px       4977.560000     1.000000
    3.2 B3u   1  2px       1616.740000     1.000000
    4.2 B3u   1  2px        618.671800     1.000000
    5.2 B3u   1  2px        262.518300     1.000000
    6.2 B3u   1  2px        119.690700     1.000000
    7.2 B3u   1  2px         57.465850     1.000000
    8.2 B3u   1  2px         28.528290     1.000000
    9.2 B3u   1  2px         14.521480     1.000000
   10.2 B3u   1  2px          7.453850     1.000000
   11.2 B3u   1  2px          3.723553     1.000000
   12.2 B3u   1  2px          1.809813     1.000000
   13.2 B3u   1  2px          0.851336     1.000000
   14.2 B3u   1  2px          0.323406     1.000000
   15.2 B3u   1  2px          0.119021     1.000000
   16.2 B3u   1  2px          0.042162     1.000000
   17.2 B3u   1  2px          8.740900     1.000000
   18.2 B3u   1  2px          2.007300     1.000000
   19.2 B3u   1  2px          0.014940     1.000000
   20.2 B3u   1  4f1+         7.916400     1.000000
   21.2 B3u   1  4f3+         7.916400     1.000000
   22.2 B3u   1  4f1+         3.023500     1.000000
   23.2 B3u   1  4f3+         3.023500     1.000000
   24.2 B3u   1  4f1+         1.068000     1.000000
   25.2 B3u   1  4f3+         1.068000     1.000000
   26.2 B3u   1  4f1+         0.377250     1.000000
   27.2 B3u   1  4f3+         0.377250     1.000000
    1.3 B2u   1  2py      21027.920000     1.000000
    2.3 B2u   1  2py       4977.560000     1.000000
    3.3 B2u   1  2py       1616.740000     1.000000
    4.3 B2u   1  2py        618.671800     1.000000
    5.3 B2u   1  2py        262.518300     1.000000
    6.3 B2u   1  2py        119.690700     1.000000
    7.3 B2u   1  2py         57.465850     1.000000
    8.3 B2u   1  2py         28.528290     1.000000
    9.3 B2u   1  2py         14.521480     1.000000
   10.3 B2u   1  2py          7.453850     1.000000
   11.3 B2u   1  2py          3.723553     1.000000
   12.3 B2u   1  2py          1.809813     1.000000
   13.3 B2u   1  2py          0.851336     1.000000
   14.3 B2u   1  2py          0.323406     1.000000
   15.3 B2u   1  2py          0.119021     1.000000
   16.3 B2u   1  2py          0.042162     1.000000
   17.3 B2u   1  2py          8.740900     1.000000
   18.3 B2u   1  2py          2.007300     1.000000
   19.3 B2u   1  2py          0.014940     1.000000
   20.3 B2u   1  4f1-         7.916400     1.000000
   21.3 B2u   1  4f3-         7.916400     1.000000
   22.3 B2u   1  4f1-         3.023500     1.000000
   23.3 B2u   1  4f3-         3.023500     1.000000
   24.3 B2u   1  4f1-         1.068000     1.000000
   25.3 B2u   1  4f3-         1.068000     1.000000
   26.3 B2u   1  4f1-         0.377250     1.000000
   27.3 B2u   1  4f3-         0.377250     1.000000
    1.4 B1g   1  3d2-       142.590400     1.000000
    2.4 B1g   1  3d2-        42.102190     1.000000
    3.4 B1g   1  3d2-        15.463370     1.000000
    4.4 B1g   1  3d2-         6.283810     1.000000
    5.4 B1g   1  3d2-         2.614170     1.000000
    6.4 B1g   1  3d2-         1.048020     1.000000
    7.4 B1g   1  3d2-         0.388652     1.000000
    8.4 B1g   1  3d2-         0.124664     1.000000
    9.4 B1g   1  3d2-         5.776700     1.000000
   10.4 B1g   1  3d2-         2.695600     1.000000
   11.4 B1g   1  3d2-         0.039990     1.000000
   12.4 B1g   1  5g2-         7.301700     1.000000
   13.4 B1g   1  5g4-         7.301700     1.000000
   14.4 B1g   1  5g2-         2.928400     1.000000
   15.4 B1g   1  5g4-         2.928400     1.000000
   16.4 B1g   1  5g2-         1.174460     1.000000
   17.4 B1g   1  5g4-         1.174460     1.000000
    1.5 B1u   1  2pz      21027.920000     1.000000
    2.5 B1u   1  2pz       4977.560000     1.000000
    3.5 B1u   1  2pz       1616.740000     1.000000
    4.5 B1u   1  2pz        618.671800     1.000000
    5.5 B1u   1  2pz        262.518300     1.000000
    6.5 B1u   1  2pz        119.690700     1.000000
    7.5 B1u   1  2pz         57.465850     1.000000
    8.5 B1u   1  2pz         28.528290     1.000000
    9.5 B1u   1  2pz         14.521480     1.000000
   10.5 B1u   1  2pz          7.453850     1.000000
   11.5 B1u   1  2pz          3.723553     1.000000
   12.5 B1u   1  2pz          1.809813     1.000000
   13.5 B1u   1  2pz          0.851336     1.000000
   14.5 B1u   1  2pz          0.323406     1.000000
   15.5 B1u   1  2pz          0.119021     1.000000
   16.5 B1u   1  2pz          0.042162     1.000000
   17.5 B1u   1  2pz          8.740900     1.000000
   18.5 B1u   1  2pz          2.007300     1.000000
   19.5 B1u   1  2pz          0.014940     1.000000
   20.5 B1u   1  4f0          7.916400     1.000000
   21.5 B1u   1  4f2+         7.916400     1.000000
   22.5 B1u   1  4f0          3.023500     1.000000
   23.5 B1u   1  4f2+         3.023500     1.000000
   24.5 B1u   1  4f0          1.068000     1.000000
   25.5 B1u   1  4f2+         1.068000     1.000000
   26.5 B1u   1  4f0          0.377250     1.000000
   27.5 B1u   1  4f2+         0.377250     1.000000
    1.6 B2g   1  3d1+       142.590400     1.000000
    2.6 B2g   1  3d1+        42.102190     1.000000
    3.6 B2g   1  3d1+        15.463370     1.000000
    4.6 B2g   1  3d1+         6.283810     1.000000
    5.6 B2g   1  3d1+         2.614170     1.000000
    6.6 B2g   1  3d1+         1.048020     1.000000
    7.6 B2g   1  3d1+         0.388652     1.000000
    8.6 B2g   1  3d1+         0.124664     1.000000
    9.6 B2g   1  3d1+         5.776700     1.000000
   10.6 B2g   1  3d1+         2.695600     1.000000
   11.6 B2g   1  3d1+         0.039990     1.000000
   12.6 B2g   1  5g1+         7.301700     1.000000
   13.6 B2g   1  5g3+         7.301700     1.000000
   14.6 B2g   1  5g1+         2.928400     1.000000
   15.6 B2g   1  5g3+         2.928400     1.000000
   16.6 B2g   1  5g1+         1.174460     1.000000
   17.6 B2g   1  5g3+         1.174460     1.000000
    1.7 B3g   1  3d1-       142.590400     1.000000
    2.7 B3g   1  3d1-        42.102190     1.000000
    3.7 B3g   1  3d1-        15.463370     1.000000
    4.7 B3g   1  3d1-         6.283810     1.000000
    5.7 B3g   1  3d1-         2.614170     1.000000
    6.7 B3g   1  3d1-         1.048020     1.000000
    7.7 B3g   1  3d1-         0.388652     1.000000
    8.7 B3g   1  3d1-         0.124664     1.000000
    9.7 B3g   1  3d1-         5.776700     1.000000
   10.7 B3g   1  3d1-         2.695600     1.000000
   11.7 B3g   1  3d1-         0.039990     1.000000
   12.7 B3g   1  5g1-         7.301700     1.000000
   13.7 B3g   1  5g3-         7.301700     1.000000
   14.7 B3g   1  5g1-         2.928400     1.000000
   15.7 B3g   1  5g3-         2.928400     1.000000
   16.7 B3g   1  5g1-         1.174460     1.000000
   17.7 B3g   1  5g3-         1.174460     1.000000
    1.8 Au    1  4f2-         7.916400     1.000000
    2.8 Au    1  4f2-         3.023500     1.000000
    3.8 Au    1  4f2-         1.068000     1.000000
    4.8 Au    1  4f2-         0.377250     1.000000

 NUCLEAR CHARGE:                   18
 NUMBER OF PRIMITIVE AOS:         231
 NUMBER OF SYMMETRY AOS:          190
 NUMBER OF CONTRACTIONS:          190   (  54Ag  +  27B3u +  27B2u +  17B1g +  27B1u +  17B2g +  17B3g +   4Au  )
 NUMBER OF CORE ORBITALS:           4   (   1Ag  +   1B3u +   1B2u +   0B1g +   1B1u +   0B2g +   0B3g +   0Au  )
 NUMBER OF VALENCE ORBITALS:        6   (   3Ag  +   0B3u +   0B2u +   1B1g +   0B1u +   1B2g +   1B3g +   0Au  )


 NUCLEAR REPULSION ENERGY    0.00000000

 EXTRA SYMMETRY OF AOS IN SYMMETRY 1:   1 1 1 1 1 1 1 1 1 1   1 1 1 1 1 1 1 1 1 1   1 1 1 2 3 2 3 2 3 2   3 2 3 2 3 2 3 2 3 2
                                        3 2 3 2 3 4 5 6 4 5   6 4 5 6
 EXTRA SYMMETRY OF AOS IN SYMMETRY 2:   1 1 1 1 1 1 1 1 1 1   1 1 1 1 1 1 1 1 1 2   3 2 3 2 3 2 3
 EXTRA SYMMETRY OF AOS IN SYMMETRY 3:   1 1 1 1 1 1 1 1 1 1   1 1 1 1 1 1 1 1 1 2   3 2 3 2 3 2 3
 EXTRA SYMMETRY OF AOS IN SYMMETRY 4:   1 1 1 1 1 1 1 1 1 1   1 2 3 2 3 2 3
 EXTRA SYMMETRY OF AOS IN SYMMETRY 5:   1 1 1 1 1 1 1 1 1 1   1 1 1 1 1 1 1 1 1 2   3 2 3 2 3 2 3
 EXTRA SYMMETRY OF AOS IN SYMMETRY 6:   1 1 1 1 1 1 1 1 1 1   1 2 3 2 3 2 3
 EXTRA SYMMETRY OF AOS IN SYMMETRY 7:   1 1 1 1 1 1 1 1 1 1   1 2 3 2 3 2 3

 Eigenvalues of metric

         1 0.411E-05 0.411E-05 0.545E-05 0.561E-04 0.180E-03 0.180E-03 0.582E-03 0.167E-02
         2 0.384E-05 0.270E-04 0.111E-02 0.469E-02 0.120E-01 0.271E-01 0.465E-01 0.865E-01
         3 0.384E-05 0.270E-04 0.111E-02 0.469E-02 0.120E-01 0.271E-01 0.465E-01 0.865E-01
         4 0.411E-05 0.180E-03 0.536E-01 0.120E+00 0.251E+00 0.251E+00 0.257E+00 0.449E+00
         5 0.384E-05 0.270E-04 0.111E-02 0.469E-02 0.120E-01 0.271E-01 0.465E-01 0.865E-01
         6 0.411E-05 0.180E-03 0.536E-01 0.120E+00 0.251E+00 0.251E+00 0.257E+00 0.449E+00
         7 0.411E-05 0.180E-03 0.536E-01 0.120E+00 0.251E+00 0.251E+00 0.257E+00 0.449E+00
         8 0.186E+00 0.527E+00 0.123E+01 0.205E+01


 Contracted 2-electron integrals neglected if value below      1.0D-12
 AO integral compression algorithm  1   Integral accuracy      1.0D-12

     148.374 MB (compressed) written to integral file ( 47.3%)


 NUMBER OF SORTED TWO-ELECTRON INTEGRALS:   21725389.     BUFFER LENGTH:  32768
 NUMBER OF SEGMENTS:   2  SEGMENT LENGTH:   15999094      RECORD LENGTH: 524288

 Memory used in sort:      16.56 MW

 SORT1 READ    39142000. AND WROTE    14699212. INTEGRALS IN     43 RECORDS. CPU TIME:     1.09 SEC, REAL TIME:     1.58 SEC
 SORT2 READ    14699212. AND WROTE    21725389. INTEGRALS IN    566 RECORDS. CPU TIME:     0.73 SEC, REAL TIME:     1.25 SEC

 FILE SIZES:   FILE 1:   168.4 MBYTE,  FILE 4:   180.4 MBYTE,   TOTAL:    348.8 MBYTE

 OPERATOR DM      FOR CENTER  0  COORDINATES:    0.000000    0.000000    0.000000
 OPERATOR EKIN    FOR CENTER  0  COORDINATES:    0.000000    0.000000    0.000000
 OPERATOR POT     FOR CENTER  0  COORDINATES:    0.000000    0.000000    0.000000


 **********************************************************************************************************************************
 DATASETS  * FILE   NREC   LENGTH (MB)   RECORD NAMES
              1      20       94.98       500      610      700      900      950      970     1000      129      960     1100   
                                          VAR    BASINP    GEOM    SYMINP    ZMAT    AOBASIS   BASIS     P2S    ABASIS      S 
                                         1400     1410     1420     1200     1210     1080     1600     1650     1300     1700   
                                         EKIN       V       ECP      H0       H01     AOSYM     SMH    MOLCAS    ERIS     OPER   

 PROGRAMS   *        TOTAL       INT
 CPU TIMES  *        18.06     17.92
 REAL TIME  *        21.58 SEC
 DISK USED  *       349.07 MB      
 **********************************************************************************************************************************


 PROGRAM * RHF-SCF (OPEN SHELL)       Authors: W. Meyer, H.-J. Werner


 NUMBER OF ELECTRONS:      10+    8-    SPACE SYMMETRY=6    SPIN SYMMETRY: Triplet 
 CONVERGENCE THRESHOLDS:    1.00E-05 (Density)    1.00E-07 (Energy)
 MAX. NUMBER OF ITERATIONS:       60
 INTERPOLATION TYPE:            DIIS
 INTERPOLATION STEPS:              2 (START)      1 (STEP)
 LEVEL SHIFTS:                 -0.60 (CLOSED) -0.30 (OPEN) 


 Singly occupied orbitals:      1.4       1.7
 
 Extra symmetries of mos in symmetry 1:   1   1   3   2

   Atom=NI basis=ECP10MDF_GUESS    lmin=0  lmax=2

 Orbital guess generated from atomic densities. Full valence occupancy:    4   1   1   1   1   1   1   0


 Molecular orbital dump at record        4202.2

 ITERATION    DDIFF          GRAD             ENERGY        2-EL.EN.            DIPOLE MOMENTS         DIIS   ORB.
    1      0.000D+00      0.000D+00      -168.73996334    234.498498    0.00000    0.00000    0.00000    0    start
    2      0.000D+00      0.933D-01      -169.51610601    278.841927    0.00000    0.00000    0.00000    1    diag,B
    3      0.291D-01      0.731D-01      -169.90612906    266.764180    0.00000    0.00000    0.00000    2    diag,B
    4      0.138D-01      0.102D-01      -169.92246384    266.008201    0.00000    0.00000    0.00000    3    diag,B
    5      0.798D-02      0.196D-02      -169.92629249    266.538408    0.00000    0.00000    0.00000    4    diag,B
    6      0.466D-02      0.800D-03      -169.92745554    266.877337    0.00000    0.00000    0.00000    5    diag,B
    7      0.269D-02      0.373D-03      -169.92780481    267.011546    0.00000    0.00000    0.00000    6    fixocc
    8      0.188D-02      0.126D-03      -169.92784016    267.054877    0.00000    0.00000    0.00000    7    diag,B
    9      0.505D-03      0.411D-04      -169.92784256    267.058740    0.00000    0.00000    0.00000    8    diag,B
   10      0.346D-03      0.112D-04      -169.92784276    267.058195    0.00000    0.00000    0.00000    9    orth
   11      0.110D-03      0.442D-05      -169.92784279    267.057558    0.00000    0.00000    0.00000    9    diag,B
   12      0.402D-04      0.138D-05      -169.92784280    267.057320    0.00000    0.00000    0.00000    9    diag,B
   13      0.141D-04      0.185D-06      -169.92784280    267.057260    0.00000    0.00000    0.00000    9    diag,B
   14      0.563D-06      0.681D-07      -169.92784280    267.057263    0.00000    0.00000    0.00000    0    orth

 Final alpha occupancy:   4   1   1   1   1   1   1   0
 Final beta  occupancy:   4   1   1   0   1   1   0   0

 !RHF STATE 1.6 Energy               -169.927842795488
 Nuclear energy                         0.00000000
 One-electron energy                 -303.45647451
 Two-electron energy                  133.52863172
 Virial quotient                       -1.55757024
 !RHF STATE 1.6 Dipole moment           0.00000000     0.00000000     0.00000000
 Dipole moment /Debye                   0.00000000     0.00000000     0.00000000
 

 !RHF expec          <1.6|EKIN|1.6>   109.098029002869
 
 !RHF expec           <1.6|POT|1.6>   -23.758443633650

 ELECTRON ORBITALS
 =================


   Orb  Occ    Energy  Couls-En    Coefficients

                                   1 1s      1 1s      1 1s      1 1s      1 1s      1 1s      1 1s      1 1s      1 1s      1 1s   
                                   1 1s      1 1s      1 1s      1 1s      1 1s      1 1s      1 1s      1 1s      1 1s      1 1s   
                                   1 1s      1 1s      1 1s      1 3d0     1 3d2+    1 3d0     1 3d2+    1 3d0     1 3d2+    1 3d0  
                                   1 3d2+    1 3d0     1 3d2+    1 3d0     1 3d2+    1 3d0     1 3d2+    1 3d0     1 3d2+    1 3d0  
                                   1 3d2+    1 3d0     1 3d2+    1 3d0     1 3d2+    1 5g0     1 5g4+    1 5g2+    1 5g0     1 5g4+ 
                                   1 5g2+    1 5g0     1 5g4+    1 5g2+ 

   1.1   2    -5.0620  -26.5675  0.000000  0.000000  0.000000  0.000004 -0.000003  0.000061 -0.000079  0.000613 -0.001071  0.004786
                                -0.013571  0.055926 -0.014187 -0.531122  0.070591  0.846971  0.368013  0.011343 -0.005537  0.002222
                                 0.158102 -0.090797 -0.000581 -0.000007 -0.000012 -0.000078 -0.000135 -0.000334 -0.000579  0.000356
                                 0.000616 -0.006586 -0.011407 -0.000518 -0.000897  0.000098  0.000170 -0.000010 -0.000018 -0.001545
                                -0.002676  0.004799  0.008312  0.000004  0.000007  0.000104  0.000205  0.000155  0.000145  0.000286
                                 0.000216  0.000307  0.000606  0.000458

   2.1   2    -0.2807   -7.0797 -0.000000 -0.000000 -0.000000 -0.000001  0.000001 -0.000014  0.000018 -0.000143  0.000244 -0.001112
                                 0.003154 -0.013367  0.005097  0.129560 -0.022570 -0.236466 -0.218908  0.339997  0.557342  0.256263
                                -0.040932  0.000644 -0.000828  0.000005  0.000009  0.000060  0.000105  0.000267  0.000462  0.000541
                                 0.000937  0.001455  0.002520  0.000279  0.000484 -0.003007 -0.005208 -0.003561 -0.006168  0.000169
                                 0.000293 -0.000317 -0.000550 -0.000526 -0.000911 -0.000001 -0.000001 -0.000001  0.000068  0.000134
                                 0.000101 -0.000056 -0.000110 -0.000083

   3.1   2    -0.7102  -16.8395  0.000000  0.000000  0.000000  0.000000 -0.000000  0.000000 -0.000000  0.000003 -0.000004  0.000020
                                -0.000058  0.000236  0.000077 -0.002934 -0.001150  0.007948  0.003760  0.001993 -0.000467  0.000334
                                 0.001640 -0.005100 -0.000099  0.001004  0.001739  0.011742  0.020338  0.053818  0.093215  0.125447
                                 0.217280  0.183036  0.317027  0.180472  0.312587  0.106477  0.184423  0.019695  0.034112  0.001216
                                 0.002107 -0.000137 -0.000237 -0.001067 -0.001848 -0.000263 -0.000518 -0.000392 -0.000517 -0.001020
                                -0.000771 -0.000878 -0.001731 -0.001309

   4.1   2    -0.6499  -16.6698 -0.000000  0.000000 -0.000000  0.000000 -0.000000  0.000000 -0.000000  0.000000 -0.000000  0.000000
                                -0.000000  0.000000 -0.000000  0.000000  0.000000 -0.000000 -0.000000  0.000000 -0.000000  0.000000
                                -0.000000  0.000000 -0.000000  0.001722 -0.000994  0.020146 -0.011631  0.092329 -0.053306  0.214522
                                -0.123854  0.316395 -0.182671  0.311139 -0.179636  0.192777 -0.111300  0.041070 -0.023712  0.002530
                                -0.001461 -0.003397  0.001961 -0.002084  0.001203 -0.000142  0.000168 -0.000127 -0.000350  0.000414
                                -0.000313 -0.000409  0.000484 -0.000366

   5.1   0     0.0310   -2.0286  0.000000  0.000000  0.000000 -0.000000  0.000001 -0.000001  0.000010 -0.000012  0.000078 -0.000114
                                 0.000238  0.000192  0.008622 -0.085209 -0.177946  0.629023  0.219230 -0.402726  0.800618 -2.279086
                                 0.155654 -0.612156  2.329018 -0.000002 -0.000003 -0.000022 -0.000038 -0.000100 -0.000173 -0.000123
                                -0.000213 -0.001092 -0.001892 -0.000021 -0.000036  0.000883  0.001529  0.001031  0.001786 -0.000157
                                -0.000272  0.000701  0.001214 -0.000299 -0.000519 -0.000013 -0.000025 -0.000019 -0.000029 -0.000056
                                -0.000042  0.000111  0.000219  0.000166

   6.1   0     0.1249   -2.6338 -0.000000 -0.000000 -0.000000 -0.000000 -0.000000 -0.000000 -0.000000 -0.000000 -0.000000 -0.000002
                                 0.000007 -0.000037 -0.000072  0.001095  0.001420 -0.005554 -0.002208  0.002574 -0.003585  0.011383
                                -0.001403  0.004726 -0.005046 -0.000040 -0.000070 -0.000767 -0.001328 -0.002068 -0.003582 -0.053973
                                -0.093484  0.348461  0.603552 -0.029267 -0.050691  0.027594  0.047795 -0.087327 -0.151256  0.057479
                                 0.099557 -0.359884 -0.623337  0.543558  0.941472  0.000008  0.000015  0.000011  0.000027  0.000052
                                 0.000040 -0.000003 -0.000005 -0.000004

                                   1 2px     1 2px     1 2px     1 2px     1 2px     1 2px     1 2px     1 2px     1 2px     1 2px  
                                   1 2px     1 2px     1 2px     1 2px     1 2px     1 2px     1 2px     1 2px     1 2px     1 4f1+ 
                                   1 4f3+    1 4f1+    1 4f3+    1 4f1+    1 4f3+    1 4f1+    1 4f3+ 

   1.2   2    -3.3537  -23.0156  0.000001 -0.000003  0.000031 -0.000062  0.000513 -0.001261  0.007786 -0.010735 -0.109975  0.009300
                                 0.358977  0.449734  0.266839  0.037306 -0.002538  0.001476  0.043049  0.002105 -0.000445  0.000142
                                 0.000549  0.000140  0.000543  0.000467  0.001810  0.000200  0.000775

   2.2   0     0.0241   -2.5791  0.000000 -0.000000  0.000000 -0.000005  0.000002 -0.000035 -0.000097 -0.000572  0.012532  0.047392
                                -0.054574 -0.234058  0.015239 -0.010518  0.207178 -0.088148 -0.044983  0.205742  0.988782  0.000019
                                 0.000075  0.000049  0.000190 -0.000013 -0.000051 -0.000404 -0.001564

   3.2   0     0.0808   -3.5495  0.000000 -0.000001  0.000010 -0.000036  0.000163 -0.000499  0.002046 -0.005481  0.009684  0.170604
                                -0.071193 -0.656426  0.159406 -0.189312  0.066360 -1.431989 -0.143522  0.715824  1.125065 -0.000037
                                -0.000144 -0.000096 -0.000374  0.000038  0.000146  0.000790  0.003061

                                   1 2py     1 2py     1 2py     1 2py     1 2py     1 2py     1 2py     1 2py     1 2py     1 2py  
                                   1 2py     1 2py     1 2py     1 2py     1 2py     1 2py     1 2py     1 2py     1 2py     1 4f1- 
                                   1 4f3-    1 4f1-    1 4f3-    1 4f1-    1 4f3-    1 4f1-    1 4f3- 

   1.3   2    -3.3627  -23.0347  0.000001 -0.000003  0.000031 -0.000062  0.000512 -0.001258  0.007770 -0.010634 -0.110272  0.007590
                                 0.360475  0.456444  0.264730  0.035455 -0.002565  0.001435  0.044087 -0.002629 -0.000431 -0.001261
                                -0.001627 -0.003372 -0.004353 -0.003215 -0.004151 -0.000519 -0.000670

   2.3   0     0.0225   -2.7066 -0.000000 -0.000000 -0.000000 -0.000004 -0.000004 -0.000016 -0.000185 -0.000382  0.012797  0.042981
                                -0.054679 -0.220465  0.010230 -0.000504  0.218640 -0.044963 -0.041522  0.187953  0.946932  0.000015
                                 0.000019  0.000008  0.000010  0.000023  0.000030 -0.000777 -0.001003

   3.3   0     0.0767   -3.5284  0.000000 -0.000001  0.000010 -0.000035  0.000161 -0.000491  0.002033 -0.005378  0.008561  0.165072
                                -0.065834 -0.629909  0.155520 -0.192192  0.041422 -1.394885 -0.138473  0.691607  1.150924 -0.000025
                                -0.000032 -0.000018 -0.000023 -0.000026 -0.000034  0.001355  0.001749

                                   1 3d2-    1 3d2-    1 3d2-    1 3d2-    1 3d2-    1 3d2-    1 3d2-    1 3d2-    1 3d2-    1 3d2- 
                                   1 3d2-    1 5g2-    1 5g4-    1 5g2-    1 5g4-    1 5g2-    1 5g4- 

   1.4   +    -0.7770  -17.0357  0.002030  0.023737  0.108789  0.252857  0.378260  0.361947  0.200373  0.031272  0.004015 -0.006651
                                -0.001683 -0.000240 -0.000634 -0.000504 -0.001334 -0.000731 -0.001934

   2.4   0     0.1248   -2.6323 -0.000073 -0.001438 -0.003703 -0.106754  0.697047 -0.056852  0.056804 -0.172825  0.114736 -0.718451
                                 1.086236  0.000010  0.000026  0.000033  0.000088 -0.000004 -0.000010

   3.4   0     0.4379   -4.2940 -0.000563 -0.004438 -0.031027  0.287881 -2.731969  0.072158 -0.259515  1.372765 -0.422708  2.659516
                                -0.656532  0.000040  0.000107  0.000155  0.000410 -0.000085 -0.000225

                                   1 2pz     1 2pz     1 2pz     1 2pz     1 2pz     1 2pz     1 2pz     1 2pz     1 2pz     1 2pz  
                                   1 2pz     1 2pz     1 2pz     1 2pz     1 2pz     1 2pz     1 2pz     1 2pz     1 2pz     1 4f0  
                                   1 4f2+    1 4f0     1 4f2+    1 4f0     1 4f2+    1 4f0     1 4f2+ 

   1.5   2    -3.3537  -23.0156  0.000001 -0.000003  0.000031 -0.000062  0.000513 -0.001261  0.007786 -0.010735 -0.109975  0.009300
                                 0.358977  0.449734  0.266839  0.037306 -0.002538  0.001476  0.043049  0.002105 -0.000445  0.000347
                                 0.000448  0.000343  0.000443  0.001145  0.001478  0.000490  0.000633

   2.5   0     0.0241   -2.5791  0.000000 -0.000000  0.000000 -0.000005  0.000002 -0.000035 -0.000097 -0.000572  0.012532  0.047392
                                -0.054574 -0.234058  0.015239 -0.010518  0.207178 -0.088148 -0.044983  0.205742  0.988782  0.000047
                                 0.000061  0.000120  0.000155 -0.000032 -0.000042 -0.000989 -0.001277

   3.5   0     0.0808   -3.5495  0.000000 -0.000001  0.000010 -0.000036  0.000163 -0.000499  0.002046 -0.005481  0.009684  0.170604
                                -0.071193 -0.656426  0.159406 -0.189312  0.066360 -1.431989 -0.143522  0.715824  1.125065 -0.000091
                                -0.000118 -0.000236 -0.000305  0.000092  0.000119  0.001936  0.002499

                                   1 3d1+    1 3d1+    1 3d1+    1 3d1+    1 3d1+    1 3d1+    1 3d1+    1 3d1+    1 3d1+    1 3d1+ 
                                   1 3d1+    1 5g1+    1 5g3+    1 5g1+    1 5g3+    1 5g1+    1 5g3+ 

   1.6   2    -0.6499  -16.6698  0.001988  0.023263  0.106612  0.247708  0.365342  0.359272  0.222599  0.047424  0.002922 -0.003922
                                -0.002407 -0.000090 -0.000238 -0.000221 -0.000585 -0.000259 -0.000685

   2.6   0     0.1256   -2.6306 -0.000087 -0.001609 -0.004456 -0.109447  0.701284 -0.060075  0.054007 -0.179691  0.115850 -0.725273
                                 1.089553  0.000018  0.000048  0.000054  0.000142  0.000009  0.000023

   3.6   0     0.4454   -4.3438 -0.000604 -0.004864 -0.033277  0.292841 -2.813221  0.068171 -0.280425  1.379994 -0.434539  2.734322
                                -0.653248  0.000073  0.000192  0.000238  0.000630 -0.000066 -0.000175

                                   1 3d1-    1 3d1-    1 3d1-    1 3d1-    1 3d1-    1 3d1-    1 3d1-    1 3d1-    1 3d1-    1 3d1- 
                                   1 3d1-    1 5g1-    1 5g3-    1 5g1-    1 5g3-    1 5g1-    1 5g3- 

   1.7   +    -0.7770  -17.0357  0.002030  0.023737  0.108789  0.252857  0.378260  0.361947  0.200373  0.031272  0.004015 -0.006651
                                -0.001683 -0.000509 -0.000448 -0.001070 -0.000943 -0.001551 -0.001368

   2.7   0     0.1248   -2.6323 -0.000073 -0.001438 -0.003703 -0.106754  0.697047 -0.056852  0.056804 -0.172825  0.114736 -0.718451
                                 1.086236  0.000021  0.000018  0.000070  0.000062 -0.000008 -0.000007

   3.7   0     0.4379   -4.2940 -0.000563 -0.004438 -0.031027  0.287881 -2.731969  0.072158 -0.259515  1.372765 -0.422708  2.659516
                                -0.656532  0.000086  0.000076  0.000328  0.000290 -0.000181 -0.000159

                                   1 4f2-    1 4f2-    1 4f2-    1 4f2- 

   1.8   0     1.3302   -4.8477 -0.005548  0.053109 -0.109999  1.052313

   2.8   0     3.8773   -4.1255  0.053702 -0.032035  1.214332 -0.613949

 HOMO      1.6    -0.649887 =     -17.6843eV
 LUMO      2.3     0.022537 =       0.6133eV
 LUMO-HOMO         0.672424 =      18.2976eV


 **********************************************************************************************************************************
 DATASETS  * FILE   NREC   LENGTH (MB)   RECORD NAMES
              1      20       94.98       500      610      700      900      950      970     1000      129      960     1100   
                                          VAR    BASINP    GEOM    SYMINP    ZMAT    AOBASIS   BASIS     P2S    ABASIS      S 
                                         1400     1410     1420     1200     1210     1080     1600     1650     1300     1700   
                                         EKIN       V       ECP      H0       H01     AOSYM     SMH    MOLCAS    ERIS     OPER   

              2       4        2.94       700     1000      520     4202   
                                         GEOM     BASIS   MCVARS     RHF  

 PROGRAMS   *        TOTAL       RHF       INT
 CPU TIMES  *        19.52      1.47     17.92
 REAL TIME  *        23.44 SEC
 DISK USED  *       349.07 MB      
 **********************************************************************************************************************************


 PROGRAM * POP (Mulliken population analysis)

 
 Density matrix read from record         4202.2  Type=RHF/CHARGE (state 1.6)
 
 Population analysis by basis function type

 Unique atom        s        p        d        f        g    Total    Charge
   1  NI      3.99969  5.99973  8.00025  0.00027  0.00006 18.00000  - 0.00000


 **********************************************************************************************************************************
 DATASETS  * FILE   NREC   LENGTH (MB)   RECORD NAMES
              1      20       94.98       500      610      700      900      950      970     1000      129      960     1100   
                                          VAR    BASINP    GEOM    SYMINP    ZMAT    AOBASIS   BASIS     P2S    ABASIS      S 
                                         1400     1410     1420     1200     1210     1080     1600     1650     1300     1700   
                                         EKIN       V       ECP      H0       H01     AOSYM     SMH    MOLCAS    ERIS     OPER   

              2       4        2.94       700     1000      520     4202   
                                         GEOM     BASIS   MCVARS     RHF  

 PROGRAMS   *        TOTAL       POP       RHF       INT
 CPU TIMES  *        19.53      0.00      1.47     17.92
 REAL TIME  *        23.45 SEC
 DISK USED  *       349.07 MB      
 **********************************************************************************************************************************


 PROGRAM * MULTI (Direct Multiconfiguration SCF)       Authors: P.J. Knowles, H.-J. Werner (1984)     S.T. Elbert (1988)


 Number of closed-shell orbitals:   5 (   2   1   1   0   1   0   0   0 )
 Number of active  orbitals:        5 (   2   0   0   1   0   1   1   0 )
 Number of external orbitals:     180 (  50  26  26  16  26  16  16   4 )

 State symmetry 1

 Number of electrons:     8    Spin symmetry=Triplet   Space symmetry=1
 Number of states:        1
 Number of CSFs:          1   (1 determinants, 10 intermediate states)

 State symmetry 2

 Number of electrons:     8    Spin symmetry=Triplet   Space symmetry=4
 Number of states:        3
 Number of CSFs:          3   (3 determinants, 10 intermediate states)

 State symmetry 3

 Number of electrons:     8    Spin symmetry=Triplet   Space symmetry=6
 Number of states:        3
 Number of CSFs:          3   (3 determinants, 10 intermediate states)

 State symmetry 4

 Number of electrons:     8    Spin symmetry=Triplet   Space symmetry=7
 Number of states:        3
 Number of CSFs:          3   (3 determinants, 10 intermediate states)

 Molecular orbitals read from record     4202.2  Type=RHF/CANONICAL (state 1.6)
 *** IN SYMMETRY 1 ORBITAL  1 SYMMETRY CONTAMINATION OF 0.188D-01 HAS BEEN REMOVED
 *** IN SYMMETRY 1 ORBITAL  2 SYMMETRY CONTAMINATION OF 0.153D-01 HAS BEEN REMOVED
 *** IN SYMMETRY 1 ORBITAL  3 SYMMETRY CONTAMINATION OF 0.377D+00 HAS BEEN REMOVED
 *** IN SYMMETRY 1 ORBITAL  4 SYMMETRY CONTAMINATION OF 0.367D+00 HAS BEEN REMOVED

 EXTRA SYMMETRY OF MOS IN SYMMETRY 1:   1 1 3 2 1 3 2 1 3 2   1 3 2 1 3 2 5 6 4 1   3 2 5 6 4 1 3 2 1 5   6 4 3 2 1 2 1 1 3 2
                                        1 1 3 2 1 1 1 1 1 1   1 1 1 3
 *** IN SYMMETRY 2 ORBITAL  1 SYMMETRY CONTAMINATION OF 0.354D-02 HAS BEEN REMOVED
 EXTRA SYMMETRY OF MOS IN SYMMETRY 2:   1 1 1 1 1 3 2 1 3 2   1 3 2 1 3 2 1 1 1 1   1 1 1 1 1 1 1
 *** IN SYMMETRY 3 ORBITAL  1 SYMMETRY CONTAMINATION OF 0.145D-01 HAS BEEN REMOVED
 EXTRA SYMMETRY OF MOS IN SYMMETRY 3:   1 1 1 1 1 3 2 1 2 3   1 2 3 1 2 3 1 1 1 1   1 1 1 1 1 1 1
 *** IN SYMMETRY 4 ORBITAL  1 SYMMETRY CONTAMINATION OF 0.391D-02 HAS BEEN REMOVED
 EXTRA SYMMETRY OF MOS IN SYMMETRY 4:   1 1 1 1 1 3 2 1 3 2   1 3 2 1 1 1 1
 *** IN SYMMETRY 5 ORBITAL  1 SYMMETRY CONTAMINATION OF 0.407D-02 HAS BEEN REMOVED
 EXTRA SYMMETRY OF MOS IN SYMMETRY 5:   1 1 1 1 1 3 2 1 3 2   1 3 2 1 3 2 1 1 1 1   1 1 1 1 1 1 1
 *** IN SYMMETRY 6 ORBITAL  1 SYMMETRY CONTAMINATION OF 0.150D-02 HAS BEEN REMOVED
 EXTRA SYMMETRY OF MOS IN SYMMETRY 6:   1 1 1 1 1 3 2 1 3 2   1 3 2 1 1 1 1
 *** IN SYMMETRY 7 ORBITAL  1 SYMMETRY CONTAMINATION OF 0.427D-02 HAS BEEN REMOVED
 EXTRA SYMMETRY OF MOS IN SYMMETRY 7:   1 1 1 1 1 2 3 1 2 3   1 2 3 1 1 1 1

 Wavefunction dump at record             5202.2

 Convergence thresholds  0.10E-01 (gradient)  0.10E-05 (energy)  0.10E-02 (step length)

 Weight factors for state symmetry  1:    0.10000
 Weight factors for state symmetry  2:    0.10000   0.10000   0.10000
 Weight factors for state symmetry  3:    0.10000   0.10000   0.10000
 Weight factors for state symmetry  4:    0.10000   0.10000   0.10000

 Number of orbital rotations:      330   (     4 Core/Active    178 Core/Virtual   0 Active/Active    148 Active/Virtual)
 Total number of variables:        358


 ITER. MIC  NCI  NEG     ENERGY(VAR)     ENERGY(PROJ)   ENERGY CHANGE     GRAD(0)  GRAD(ORB)   GRAD(CI)     STEP       TIME

   1   35   16    0    -169.91151391    -169.91403727   -0.00252336    0.09353067 0.00000000 0.00000000  0.37D-01      0.32
   2   29   20    0    -169.91404484    -169.91404506   -0.00000022    0.00139183 0.00000000 0.00000000  0.49D-03      0.60
   3   30   20    0    -169.91404506    -169.91404506   -0.00000000    0.00000011 0.00000000 0.00000000  0.77D-07      0.92

 ** WVFN ****  CONVERGENCE REACHED, FINAL GRADIENT:  0.59D-11



 Results for state 1.1
 =====================

 !MCSCF STATE 1.1 Energy             -169.940855415731
 Nuclear energy                         0.00000000
 Kinetic energy                       109.07364129
 One electron energy                 -303.45273583
 Two electron energy                  133.51188041
 Virial ratio                           2.55803779

 !MCSCF STATE 1.1 Dipole moment         0.00000000     0.00000000     0.00000000
 Dipole moment /Debye                   0.00000000     0.00000000     0.00000000



 Results for state 1.4
 =====================

 !MCSCF STATE 1.4 Energy             -169.940855415731
 Nuclear energy                         0.00000000
 Kinetic energy                       109.07364129
 One electron energy                 -303.45273583
 Two electron energy                  133.51188041
 Virial ratio                           2.55803779

 !MCSCF STATE 1.4 Dipole moment         0.00000000     0.00000000     0.00000000
 Dipole moment /Debye                   0.00000000     0.00000000     0.00000000

 Results for state 2.4
 =====================

 !MCSCF STATE 2.4 Energy             -169.940855415730
 Nuclear energy                         0.00000000
 Kinetic energy                       109.07364129
 One electron energy                 -303.45273583
 Two electron energy                  133.51188041
 Virial ratio                           2.55803779

 !MCSCF STATE 2.4 Dipole moment         0.00000000     0.00000000     0.00000000
 Dipole moment /Debye                   0.00000000     0.00000000     0.00000000

 Results for state 3.4
 =====================

 !MCSCF STATE 3.4 Energy             -169.851487565690
 Nuclear energy                         0.00000000
 Kinetic energy                       109.07364129
 One electron energy                 -303.45273583
 Two electron energy                  133.60124826
 Virial ratio                           2.55721846

 !MCSCF STATE 3.4 Dipole moment         0.00000000     0.00000000     0.00000000
 Dipole moment /Debye                   0.00000000     0.00000000     0.00000000



 Results for state 1.6
 =====================

 !MCSCF STATE 1.6 Energy             -169.940855415731
 Nuclear energy                         0.00000000
 Kinetic energy                       109.07364129
 One electron energy                 -303.45273583
 Two electron energy                  133.51188041
 Virial ratio                           2.55803779

 !MCSCF STATE 1.6 Dipole moment         0.00000000     0.00000000     0.00000000
 Dipole moment /Debye                   0.00000000     0.00000000     0.00000000

 Results for state 2.6
 =====================

 !MCSCF STATE 2.6 Energy             -169.940855415729
 Nuclear energy                         0.00000000
 Kinetic energy                       109.07364129
 One electron energy                 -303.45273583
 Two electron energy                  133.51188041
 Virial ratio                           2.55803779

 !MCSCF STATE 2.6 Dipole moment         0.00000000     0.00000000     0.00000000
 Dipole moment /Debye                   0.00000000     0.00000000     0.00000000

 Results for state 3.6
 =====================

 !MCSCF STATE 3.6 Energy             -169.851487565692
 Nuclear energy                         0.00000000
 Kinetic energy                       109.07364129
 One electron energy                 -303.45273583
 Two electron energy                  133.60124826
 Virial ratio                           2.55721846

 !MCSCF STATE 3.6 Dipole moment         0.00000000     0.00000000     0.00000000
 Dipole moment /Debye                   0.00000000     0.00000000     0.00000000



 Results for state 1.7
 =====================

 !MCSCF STATE 1.7 Energy             -169.940855415731
 Nuclear energy                         0.00000000
 Kinetic energy                       109.07364129
 One electron energy                 -303.45273583
 Two electron energy                  133.51188041
 Virial ratio                           2.55803779

 !MCSCF STATE 1.7 Dipole moment         0.00000000     0.00000000     0.00000000
 Dipole moment /Debye                   0.00000000     0.00000000     0.00000000

 Results for state 2.7
 =====================

 !MCSCF STATE 2.7 Energy             -169.940855415729
 Nuclear energy                         0.00000000
 Kinetic energy                       109.07364129
 One electron energy                 -303.45273583
 Two electron energy                  133.51188041
 Virial ratio                           2.55803779

 !MCSCF STATE 2.7 Dipole moment         0.00000000     0.00000000     0.00000000
 Dipole moment /Debye                   0.00000000     0.00000000     0.00000000

 Results for state 3.7
 =====================

 !MCSCF STATE 3.7 Energy             -169.851487565692
 Nuclear energy                         0.00000000
 Kinetic energy                       109.07364129
 One electron energy                 -303.45273583
 Two electron energy                  133.60124826
 Virial ratio                           2.55721846

 !MCSCF STATE 3.7 Dipole moment         0.00000000     0.00000000     0.00000000
 Dipole moment /Debye                   0.00000000     0.00000000     0.00000000

 State-averaged charge density matrix saved on record  5202.2 (density set 1)

 !MCSCF expec        <1.1|EKIN|1.1>   109.073641292117
 !MCSCF expec        <1.4|EKIN|1.4>   109.073641292115
 !MCSCF expec        <2.4|EKIN|2.4>   109.073641292110
 !MCSCF expec        <3.4|EKIN|3.4>   109.073641292112
 !MCSCF expec        <1.6|EKIN|1.6>   109.073641292111
 !MCSCF expec        <2.6|EKIN|2.6>   109.073641292112
 !MCSCF expec        <3.6|EKIN|3.6>   109.073641292113
 !MCSCF expec        <1.7|EKIN|1.7>   109.073641292111
 !MCSCF expec        <2.7|EKIN|2.7>   109.073641292112
 !MCSCF expec        <3.7|EKIN|3.7>   109.073641292113

 !MCSCF expec         <1.1|POT|1.1>   -23.757059452918
 !MCSCF expec         <1.4|POT|1.4>   -23.757059452918
 !MCSCF expec         <2.4|POT|2.4>   -23.757059452917
 !MCSCF expec         <3.4|POT|3.4>   -23.757059452917
 !MCSCF expec         <1.6|POT|1.6>   -23.757059452917
 !MCSCF expec         <2.6|POT|2.6>   -23.757059452918
 !MCSCF expec         <3.6|POT|3.6>   -23.757059452918
 !MCSCF expec         <1.7|POT|1.7>   -23.757059452917
 !MCSCF expec         <2.7|POT|2.7>   -23.757059452918
 !MCSCF expec         <3.7|POT|3.7>   -23.757059452918


 NATURAL ORBITALS (state averaged)
 =================================

   Orb     Occ        Energy       Coefficients

                                   1 1s      1 1s      1 1s      1 1s      1 1s      1 1s      1 1s      1 1s      1 1s      1 1s   
                                   1 1s      1 1s      1 1s      1 1s      1 1s      1 1s      1 1s      1 1s      1 1s      1 1s   
                                   1 1s      1 1s      1 1s      1 3d0     1 3d2+    1 3d0     1 3d2+    1 3d0     1 3d2+    1 3d0  
                                   1 3d2+    1 3d0     1 3d2+    1 3d0     1 3d2+    1 3d0     1 3d2+    1 3d0     1 3d2+    1 3d0  
                                   1 3d2+    1 3d0     1 3d2+    1 3d0     1 3d2+    1 5g0     1 5g4+    1 5g2+    1 5g0     1 5g4+ 
                                   1 5g2+    1 5g0     1 5g4+    1 5g2+ 

   1.1  2.00000    -5.062426     0.000000  0.000000  0.000000  0.000004 -0.000003  0.000061 -0.000079  0.000613 -0.001071  0.004786
                                -0.013572  0.055931 -0.014190 -0.531166  0.070641  0.847089  0.367986  0.011343 -0.005537  0.002222
                                 0.158108 -0.090884 -0.000581  0.000000  0.000000  0.000000  0.000000  0.000000  0.000000  0.000000
                                 0.000000  0.000000  0.000000  0.000000  0.000000  0.000000  0.000000  0.000000  0.000000  0.000000
                                 0.000000  0.000000  0.000000  0.000000  0.000000  0.000000  0.000000  0.000000  0.000000  0.000000
                                 0.000000  0.000000  0.000000  0.000000

   2.1  2.00000    -0.280571    -0.000000 -0.000000 -0.000000 -0.000001  0.000001 -0.000014  0.000018 -0.000143  0.000244 -0.001112
                                 0.003154 -0.013366  0.005095  0.129568 -0.022548 -0.236604 -0.218864  0.339742  0.557390  0.256490
                                -0.040955  0.000802 -0.000802  0.000000  0.000000  0.000000  0.000000  0.000000  0.000000  0.000000
                                 0.000000  0.000000  0.000000  0.000000  0.000000  0.000000  0.000000  0.000000  0.000000  0.000000
                                 0.000000  0.000000  0.000000  0.000000  0.000000  0.000000  0.000000  0.000000  0.000000  0.000000
                                 0.000000  0.000000  0.000000  0.000000

   3.1  1.60000    -0.496352     0.000000  0.000000  0.000000  0.000000  0.000000  0.000000  0.000000  0.000000  0.000000  0.000000
                                 0.000000  0.000000  0.000000  0.000000  0.000000  0.000000  0.000000  0.000000  0.000000  0.000000
                                 0.000000  0.000000  0.000000  0.002003  0.000000  0.023436  0.000000  0.107405  0.000000  0.249886
                                 0.000000  0.367708  0.000000  0.360469  0.000000  0.215025  0.000000  0.041245  0.000000  0.002903
                                 0.000000 -0.002770  0.000000 -0.002204  0.000000  0.000000  0.000000  0.000000  0.000000  0.000000
                                 0.000000  0.000000  0.000000  0.000000

   4.1  1.60000    -0.496352     0.000000  0.000000  0.000000  0.000000  0.000000  0.000000  0.000000  0.000000  0.000000  0.000000
                                 0.000000  0.000000  0.000000  0.000000  0.000000  0.000000  0.000000  0.000000  0.000000  0.000000
                                 0.000000  0.000000  0.000000  0.000000  0.002003  0.000000  0.023436  0.000000  0.107405  0.000000
                                 0.249886  0.000000  0.367708  0.000000  0.360469  0.000000  0.215025  0.000000  0.041245  0.000000
                                 0.002903  0.000000 -0.002770  0.000000 -0.002204  0.000000  0.000000  0.000000  0.000000  0.000000
                                 0.000000  0.000000  0.000000  0.000000

                                   1 2px     1 2px     1 2px     1 2px     1 2px     1 2px     1 2px     1 2px     1 2px     1 2px  
                                   1 2px     1 2px     1 2px     1 2px     1 2px     1 2px     1 2px     1 2px     1 2px     1 4f1+ 
                                   1 4f3+    1 4f1+    1 4f3+    1 4f1+    1 4f3+    1 4f1+    1 4f3+ 

   1.2  2.00000    -3.356917     0.000001 -0.000003  0.000031 -0.000062  0.000512 -0.001260  0.007781 -0.010702 -0.110085  0.008736
                                 0.359526  0.451969  0.266103  0.036680 -0.002549  0.001462  0.043398  0.000541 -0.000441  0.000000
                                 0.000000  0.000000  0.000000  0.000000  0.000000  0.000000  0.000000

                                   1 2py     1 2py     1 2py     1 2py     1 2py     1 2py     1 2py     1 2py     1 2py     1 2py  
                                   1 2py     1 2py     1 2py     1 2py     1 2py     1 2py     1 2py     1 2py     1 2py     1 4f1- 
                                   1 4f3-    1 4f1-    1 4f3-    1 4f1-    1 4f3-    1 4f1-    1 4f3- 

   1.3  2.00000    -3.356917     0.000001 -0.000003  0.000031 -0.000062  0.000512 -0.001260  0.007781 -0.010702 -0.110085  0.008736
                                 0.359526  0.451969  0.266103  0.036680 -0.002549  0.001462  0.043398  0.000541 -0.000441  0.000000
                                 0.000000  0.000000  0.000000  0.000000  0.000000  0.000000  0.000000

                                   1 3d2-    1 3d2-    1 3d2-    1 3d2-    1 3d2-    1 3d2-    1 3d2-    1 3d2-    1 3d2-    1 3d2- 
                                   1 3d2-    1 5g2-    1 5g4-    1 5g2-    1 5g4-    1 5g2-    1 5g4- 

   1.4  1.60000    -0.496352     0.002003  0.023436  0.107405  0.249886  0.367708  0.360469  0.215025  0.041245  0.002903 -0.002770
                                -0.002204  0.000000  0.000000  0.000000  0.000000  0.000000  0.000000

                                   1 2pz     1 2pz     1 2pz     1 2pz     1 2pz     1 2pz     1 2pz     1 2pz     1 2pz     1 2pz  
                                   1 2pz     1 2pz     1 2pz     1 2pz     1 2pz     1 2pz     1 2pz     1 2pz     1 2pz     1 4f0  
                                   1 4f2+    1 4f0     1 4f2+    1 4f0     1 4f2+    1 4f0     1 4f2+ 

   1.5  2.00000    -3.356917     0.000001 -0.000003  0.000031 -0.000062  0.000512 -0.001260  0.007781 -0.010702 -0.110085  0.008736
                                 0.359526  0.451969  0.266103  0.036680 -0.002549  0.001462  0.043398  0.000541 -0.000441  0.000000
                                 0.000000  0.000000  0.000000  0.000000  0.000000  0.000000  0.000000

                                   1 3d1+    1 3d1+    1 3d1+    1 3d1+    1 3d1+    1 3d1+    1 3d1+    1 3d1+    1 3d1+    1 3d1+ 
                                   1 3d1+    1 5g1+    1 5g3+    1 5g1+    1 5g3+    1 5g1+    1 5g3+ 

   1.6  1.60000    -0.496352     0.002003  0.023436  0.107405  0.249886  0.367708  0.360469  0.215025  0.041245  0.002903 -0.002770
                                -0.002204  0.000000  0.000000  0.000000  0.000000  0.000000  0.000000

                                   1 3d1-    1 3d1-    1 3d1-    1 3d1-    1 3d1-    1 3d1-    1 3d1-    1 3d1-    1 3d1-    1 3d1- 
                                   1 3d1-    1 5g1-    1 5g3-    1 5g1-    1 5g3-    1 5g1-    1 5g3- 

   1.7  1.60000    -0.496352     0.002003  0.023436  0.107405  0.249886  0.367708  0.360469  0.215025  0.041245  0.002903 -0.002770
                                -0.002204  0.000000  0.000000  0.000000  0.000000  0.000000  0.000000
 

 EXTRA SYMMETRY OF MOS IN SYMMETRY 1:   1 1 2 3 1 2 3 1 2 3   1 3 2 1 2 3 5 4 6 1   2 3 6 4 5 1 2 3 1 6   4 5 2 3 2 3 1 1 2 3
                                        1 1 2 3 1 1 1 1 1 1   1 1 1 1
 EXTRA SYMMETRY OF MOS IN SYMMETRY 2:   1 1 1 1 1 2 3 1 2 3   1 2 3 1 3 2 1 1 1 1   1 1 1 1 1 1 1
 EXTRA SYMMETRY OF MOS IN SYMMETRY 3:   1 1 1 1 1 2 3 1 2 3   1 2 3 1 3 2 1 1 1 1   1 1 1 1 1 1 1
 EXTRA SYMMETRY OF MOS IN SYMMETRY 4:   1 1 1 1 1 2 3 1 2 3   1 2 3 1 1 1 1
 EXTRA SYMMETRY OF MOS IN SYMMETRY 5:   1 1 1 1 1 3 2 1 2 3   1 2 3 1 2 3 1 1 1 1   1 1 1 1 1 1 1
 EXTRA SYMMETRY OF MOS IN SYMMETRY 7:   1 1 1 1 1 3 2 1 3 2   1 3 2 1 1 1 1

 Natural orbital dump (state averaged) at molpro section  5202.2    (Orbital set 2)


 CI vector for state symmetry 1
 ==============================

 aa 2 2 2          1.0000000

 TOTAL ENERGIES                      -169.94085542

 CI vector for state symmetry 2
 ==============================

 a2 a 2 2          1.0000000   0.0000000   0.0000000
 22 2 a a          0.0000000   0.8944272   0.4472136
 2a a 2 2          0.0000000  -0.4472136   0.8944272

 TOTAL ENERGIES                      -169.94085542  -169.94085542  -169.85148757

 CI vector for state symmetry 3
 ==============================

 a2 2 a 2          0.0408400   0.6311356   0.7745967
 22 a 2 a          0.7409995   0.5009189  -0.4472136
 2a 2 a 2         -0.6702625   0.5922399  -0.4472136

 TOTAL ENERGIES                      -169.94085542  -169.94085542  -169.85148757

 CI vector for state symmetry 4
 ==============================

 a2 2 2 a          0.0360219   0.6314289   0.7745967
 22 a a 2          0.7371548   0.5065598  -0.4472136
 2a 2 2 a          0.6747631  -0.5871071   0.4472136

 TOTAL ENERGIES                      -169.94085542  -169.94085542  -169.85148757



 **********************************************************************************************************************************
 DATASETS  * FILE   NREC   LENGTH (MB)   RECORD NAMES
              1      21       98.31       500      610      700      900      950      970     1000      129      960     1100   
                                          VAR    BASINP    GEOM    SYMINP    ZMAT    AOBASIS   BASIS     P2S    ABASIS      S 
                                         1400     1410     1420     1200     1210     1080     1600     1650     1300     1700   
                                         EKIN       V       ECP      H0       H01     AOSYM     SMH    MOLCAS    ERIS     OPER   
                                         1380   
                                         JKOP   

              2       5        5.66       700     1000      520     4202     5202   
                                         GEOM     BASIS   MCVARS     RHF     MCSCF   

 PROGRAMS   *        TOTAL     MULTI       POP       RHF       INT
 CPU TIMES  *        20.79      1.26      0.00      1.47     17.92
 REAL TIME  *        26.20 SEC
 DISK USED  *       349.07 MB      
 **********************************************************************************************************************************


 PROGRAM * RHF-SCF (OPEN SHELL)       Authors: W. Meyer, H.-J. Werner


 NUMBER OF ELECTRONS:      10+    8-    SPACE SYMMETRY=1    SPIN SYMMETRY: Triplet 
 CONVERGENCE THRESHOLDS:    1.00E-05 (Density)    1.00E-07 (Energy)
 MAX. NUMBER OF ITERATIONS:        0
 INTERPOLATION TYPE:            DIIS
 INTERPOLATION STEPS:              2 (START)      1 (STEP)
 LEVEL SHIFTS:                 -0.60 (CLOSED) -0.30 (OPEN) 


 Singly occupied orbitals:      3.1       4.1
 
 Extra symmetries of mos in symmetry 1:   1   1   3   2
 Molecular orbitals read from record     5202.2  Type=MCSCF/NATURAL (state averaged)

 Molecular orbital dump at record        2101.2

 ITERATION    DDIFF          GRAD             ENERGY        2-EL.EN.            DIPOLE MOMENTS         DIIS   ORB.
    1      0.000D+00      0.000D+00      -169.94085542    267.023761    0.00000    0.00000    0.00000    0    start

 Final alpha occupancy:   4   1   1   1   1   1   1   0
 Final beta  occupancy:   2   1   1   1   1   1   1   0

 !RHF STATE 1.1 Energy               -169.940855415731
 Nuclear energy                         0.00000000
 One-electron energy                 -303.45273583
 Two-electron energy                  133.51188041
 Virial quotient                       -1.55803779
 !RHF STATE 1.1 Dipole moment           0.00000000     0.00000000     0.00000000
 Dipole moment /Debye                   0.00000000     0.00000000     0.00000000
 

 !RHF expec          <1.1|EKIN|1.1>   109.073641292117
 
 !RHF expec           <1.1|POT|1.1>   -23.757059452918

 ELECTRON ORBITALS
 =================


   Orb  Occ    Energy  Couls-En    Coefficients

                                   1 1s      1 1s      1 1s      1 1s      1 1s      1 1s      1 1s      1 1s      1 1s      1 1s   
                                   1 1s      1 1s      1 1s      1 1s      1 1s      1 1s      1 1s      1 1s      1 1s      1 1s   
                                   1 1s      1 1s      1 1s      1 3d0     1 3d2+    1 3d0     1 3d2+    1 3d0     1 3d2+    1 3d0  
                                   1 3d2+    1 3d0     1 3d2+    1 3d0     1 3d2+    1 3d0     1 3d2+    1 3d0     1 3d2+    1 3d0  
                                   1 3d2+    1 3d0     1 3d2+    1 3d0     1 3d2+    1 5g0     1 5g4+    1 5g2+    1 5g0     1 5g4+ 
                                   1 5g2+    1 5g0     1 5g4+    1 5g2+ 

   1.1   2    -5.0624  -26.5683  0.000000  0.000000  0.000000  0.000004 -0.000003  0.000061 -0.000079  0.000613 -0.001071  0.004786
                                -0.013572  0.055931 -0.014190 -0.531166  0.070641  0.847089  0.367986  0.011343 -0.005537  0.002222
                                 0.158108 -0.090884 -0.000581  0.000000  0.000000  0.000000  0.000000  0.000000  0.000000  0.000000
                                 0.000000  0.000000  0.000000  0.000000  0.000000  0.000000  0.000000  0.000000  0.000000  0.000000
                                 0.000000  0.000000  0.000000  0.000000  0.000000  0.000000  0.000000  0.000000  0.000000  0.000000
                                 0.000000  0.000000  0.000000  0.000000

   2.1   2    -0.2806   -7.0789 -0.000000 -0.000000 -0.000000 -0.000001  0.000001 -0.000014  0.000018 -0.000143  0.000244 -0.001112
                                 0.003154 -0.013366  0.005095  0.129568 -0.022548 -0.236604 -0.218864  0.339742  0.557390  0.256490
                                -0.040955  0.000802 -0.000802  0.000000  0.000000  0.000000  0.000000  0.000000  0.000000  0.000000
                                 0.000000  0.000000  0.000000  0.000000  0.000000  0.000000  0.000000  0.000000  0.000000  0.000000
                                 0.000000  0.000000  0.000000  0.000000  0.000000  0.000000  0.000000  0.000000  0.000000  0.000000
                                 0.000000  0.000000  0.000000  0.000000

   3.1   +    -0.4964  -16.6024  0.000000  0.000000  0.000000  0.000000  0.000000  0.000000  0.000000  0.000000  0.000000  0.000000
                                 0.000000  0.000000  0.000000  0.000000  0.000000  0.000000  0.000000  0.000000  0.000000  0.000000
                                 0.000000  0.000000  0.000000  0.000000  0.002003  0.000000  0.023436  0.000000  0.107405  0.000000
                                 0.249886  0.000000  0.367708  0.000000  0.360469  0.000000  0.215025  0.000000  0.041245  0.000000
                                 0.002903  0.000000 -0.002770  0.000000 -0.002204  0.000000  0.000000  0.000000  0.000000  0.000000
                                 0.000000  0.000000  0.000000  0.000000

   4.1   +    -0.4964  -16.6024  0.000000  0.000000  0.000000  0.000000  0.000000  0.000000  0.000000  0.000000  0.000000  0.000000
                                 0.000000  0.000000  0.000000  0.000000  0.000000  0.000000  0.000000  0.000000  0.000000  0.000000
                                 0.000000  0.000000  0.000000  0.002003  0.000000  0.023436  0.000000  0.107405  0.000000  0.249886
                                 0.000000  0.367708  0.000000  0.360469  0.000000  0.215025  0.000000  0.041245  0.000000  0.002903
                                 0.000000 -0.002770  0.000000 -0.002204  0.000000  0.000000  0.000000  0.000000  0.000000  0.000000
                                 0.000000  0.000000  0.000000  0.000000

                                   1 2px     1 2px     1 2px     1 2px     1 2px     1 2px     1 2px     1 2px     1 2px     1 2px  
                                   1 2px     1 2px     1 2px     1 2px     1 2px     1 2px     1 2px     1 2px     1 2px     1 4f1+ 
                                   1 4f3+    1 4f1+    1 4f3+    1 4f1+    1 4f3+    1 4f1+    1 4f3+ 

   1.2   2    -3.3569  -23.0229  0.000001 -0.000003  0.000031 -0.000062  0.000512 -0.001260  0.007781 -0.010702 -0.110085  0.008736
                                 0.359526  0.451969  0.266103  0.036680 -0.002549  0.001462  0.043398  0.000541 -0.000441  0.000000
                                 0.000000  0.000000  0.000000  0.000000  0.000000  0.000000  0.000000

                                   1 2py     1 2py     1 2py     1 2py     1 2py     1 2py     1 2py     1 2py     1 2py     1 2py  
                                   1 2py     1 2py     1 2py     1 2py     1 2py     1 2py     1 2py     1 2py     1 2py     1 4f1- 
                                   1 4f3-    1 4f1-    1 4f3-    1 4f1-    1 4f3-    1 4f1-    1 4f3- 

   1.3   2    -3.3569  -23.0229  0.000001 -0.000003  0.000031 -0.000062  0.000512 -0.001260  0.007781 -0.010702 -0.110085  0.008736
                                 0.359526  0.451969  0.266103  0.036680 -0.002549  0.001462  0.043398  0.000541 -0.000441  0.000000
                                 0.000000  0.000000  0.000000  0.000000  0.000000  0.000000  0.000000

                                   1 3d2-    1 3d2-    1 3d2-    1 3d2-    1 3d2-    1 3d2-    1 3d2-    1 3d2-    1 3d2-    1 3d2- 
                                   1 3d2-    1 5g2-    1 5g4-    1 5g2-    1 5g4-    1 5g2-    1 5g4- 

   1.4   2    -0.4964  -16.6024  0.002003  0.023436  0.107405  0.249886  0.367708  0.360469  0.215025  0.041245  0.002903 -0.002770
                                -0.002204  0.000000  0.000000  0.000000  0.000000  0.000000  0.000000

                                   1 2pz     1 2pz     1 2pz     1 2pz     1 2pz     1 2pz     1 2pz     1 2pz     1 2pz     1 2pz  
                                   1 2pz     1 2pz     1 2pz     1 2pz     1 2pz     1 2pz     1 2pz     1 2pz     1 2pz     1 4f0  
                                   1 4f2+    1 4f0     1 4f2+    1 4f0     1 4f2+    1 4f0     1 4f2+ 

   1.5   2    -3.3569  -23.0229  0.000001 -0.000003  0.000031 -0.000062  0.000512 -0.001260  0.007781 -0.010702 -0.110085  0.008736
                                 0.359526  0.451969  0.266103  0.036680 -0.002549  0.001462  0.043398  0.000541 -0.000441  0.000000
                                 0.000000  0.000000  0.000000  0.000000  0.000000  0.000000  0.000000

                                   1 3d1+    1 3d1+    1 3d1+    1 3d1+    1 3d1+    1 3d1+    1 3d1+    1 3d1+    1 3d1+    1 3d1+ 
                                   1 3d1+    1 5g1+    1 5g3+    1 5g1+    1 5g3+    1 5g1+    1 5g3+ 

   1.6   2    -0.4964  -16.6024  0.002003  0.023436  0.107405  0.249886  0.367708  0.360469  0.215025  0.041245  0.002903 -0.002770
                                -0.002204  0.000000  0.000000  0.000000  0.000000  0.000000  0.000000

                                   1 3d1-    1 3d1-    1 3d1-    1 3d1-    1 3d1-    1 3d1-    1 3d1-    1 3d1-    1 3d1-    1 3d1- 
                                   1 3d1-    1 5g1-    1 5g3-    1 5g1-    1 5g3-    1 5g1-    1 5g3- 

   1.7   2    -0.4964  -16.6024  0.002003  0.023436  0.107405  0.249886  0.367708  0.360469  0.215025  0.041245  0.002903 -0.002770
                                -0.002204  0.000000  0.000000  0.000000  0.000000  0.000000  0.000000

 HOMO      4.1    -0.496352 =     -13.5064eV
 LUMO      2.2     0.024041 =       0.6542eV
 LUMO-HOMO         0.520393 =      14.1606eV


 **********************************************************************************************************************************
 DATASETS  * FILE   NREC   LENGTH (MB)   RECORD NAMES
              1      21       98.31       500      610      700      900      950      970     1000      129      960     1100   
                                          VAR    BASINP    GEOM    SYMINP    ZMAT    AOBASIS   BASIS     P2S    ABASIS      S 
                                         1400     1410     1420     1200     1210     1080     1600     1650     1300     1700   
                                         EKIN       V       ECP      H0       H01     AOSYM     SMH    MOLCAS    ERIS     OPER   
                                         1380   
                                         JKOP   

              2       6        8.61       700     1000      520     4202     5202     2101   
                                         GEOM     BASIS   MCVARS     RHF     MCSCF     RHF  

 PROGRAMS   *        TOTAL       RHF     MULTI       POP       RHF       INT
 CPU TIMES  *        20.89      0.09      1.26      0.00      1.47     17.92
 REAL TIME  *        26.43 SEC
 DISK USED  *       349.07 MB      
 **********************************************************************************************************************************
 SETTING SCF(I)         =      -169.94085542  AU                              
 SETTING _CC_NORM_MAX   =         2.00000000                                  


 PROGRAM * CI (Multireference internally contracted CI)     Authors: H.-J. Werner, P.J. Knowles, 1987


 Convergence thresholds:  THRVAR = 1.00D-08  THRDEN = 1.00D-06

 Number of optimized states:  1  Roots:   1
 Number of reference states:  1  Roots:   1

 Reference symmetry:                   1   Triplet 
 Number of electrons:                 18
 Maximum number of shells:             3
 Maximum number of spin couplings:     9

 Reference space:        1 conf        1 CSFs
 N elec internal:       45 conf       45 CSFs
 N-1 el internal:       98 conf      226 CSFs
 N-2 el internal:       53 conf      325 CSFs

 Number of electrons in valence space:                     18
 Maximum number of open shell orbitals in reference space:  2
 Maximum number of open shell orbitals in internal spaces:  6


 Number of closed-shell orbitals:   8 (   2   1   1   1   1   1   1   0 )
 Number of active  orbitals:        2 (   2   0   0   0   0   0   0   0 )
 Number of external orbitals:     180 (  50  26  26  16  26  16  16   4 )

 Molecular orbitals read from record     2101.2  Type=RHF/CANONICAL (state 1.1)

 Valence orbitals related to previous ones by unitary transformation. Operators transformed.

 Number of p-space configurations:   1

 Reference wavefunction optimized for reference space (refopt=1)

 State     Reference Energy 
   1        -169.94085542

 Number of blocks in overlap matrix:    97   Smallest eigenvalue:  0.10D+01
 Number of N-2 electron functions:      97
 Number of N-1 electron functions:     226

 Number of internal configurations:                    6
 Number of singly external configurations:          5426
 Number of doubly external configurations:        204934
 Total number of contracted configurations:       210366
 Total number of uncontracted configurations:     673296

 Diagonal Coupling coefficients finished.               Storage:   18426 words, CPU-Time:      0.00 seconds.
 Energy denominators for pairs finished in 1 passes.    Storage:  121053 words, CPU-time:      0.00 seconds.

  ITER. STATE  ROOT     SQ.NORM     CORR.ENERGY   TOTAL ENERGY   ENERGY CHANGE       DEN1      VAR(S)    VAR(P)      TIME
    1     1     1     1.00000000     0.00000000  -169.94085542    -0.00000000    -0.88078883  0.15D-01  0.11D+00     0.04
    2     1     1     1.08205375    -0.71507125  -170.65592666    -0.71507125    -0.02221176  0.20D-02  0.26D-02     0.76
    3     1     1     1.07422060    -0.73497388  -170.67582929    -0.01990263    -0.00076352  0.82D-04  0.13D-03     1.49
    4     1     1     1.07346387    -0.73567089  -170.67652630    -0.00069701    -0.00004379  0.82D-05  0.61D-05     2.21
    5     1     1     1.07354573    -0.73571577  -170.67657119    -0.00004488    -0.00000197  0.20D-06  0.28D-06     2.95
    6     1     1     1.07362105    -0.73571780  -170.67657322    -0.00000203    -0.00000008  0.10D-07  0.11D-07     3.69
    7     1     1     1.07362878    -0.73571789  -170.67657331    -0.00000009    -0.00000000  0.41D-09  0.42D-09     4.43


 =====================================
 Analysis of CPU times by interactions
 =====================================

       I      S      P

 I   0.0%
 S   0.2%   8.6%
 P   0.2%   2.7%  18.3%

 Initialization:   0.7%
 Other:           69.3%

 Total CPU:        4.4 seconds
 =====================================



 Reference coefficients greater than 0.0500000
 =============================================
 22//222222           0.9651014



 RESULTS FOR STATE 1.1
 =====================

 Coefficient of reference function:   C(0) = 0.96510136 (fixed)   0.96510136 (relaxed)

 Energy contributions of configuration classes

 CLASS          SQ.NORM        ECORR1        ECORR2
 +++++++++++++++++++++++++++++++++++++++++++++++++++
 Internals    0.00000000    0.00000000   -0.00000000
 Singles      0.01087133   -0.08243179   -0.08422816
 Pairs        0.06275744   -0.65328610   -0.65148973
 Total        1.07362878   -0.73571789   -0.73571789
 +++++++++++++++++++++++++++++++++++++++++++++++++++


 Reference energy                    -169.94085542
 Nuclear energy                         0.00000000
 Kinetic energy                       109.45976173
 One electron energy                 -302.65470739
 Two electron energy                  131.97813408
 Virial quotient                       -1.55926315
 Correlation energy                    -0.73571789
 !CI(SD) STATE 1.1 Energy            -170.676573307960

 Properties without orbital relaxation:

 !CI(SD) STATE 1.1 Dipole moment        0.00000000     0.00000000     0.00000000
 Dipole moment /Debye                   0.00000000     0.00000000     0.00000000

 Cluster corrected energies          -170.73074332 (Davidson, fixed reference)
 Cluster corrected energies          -170.73074332 (Davidson, relaxed reference)

 Cluster corrected energies          -170.72670921 (Pople, fixed reference)
 Cluster corrected energies          -170.72670921 (Pople, relaxed reference)

 

 !CI(SD) expec       <1.1|EKIN|1.1>   109.459761727755
 
 !CI(SD) expec        <1.1|POT|1.1>   -23.738217621943


 **********************************************************************************************************************************
 DATASETS  * FILE   NREC   LENGTH (MB)   RECORD NAMES
              1      21       98.31       500      610      700      900      950      970     1000      129      960     1100   
                                          VAR    BASINP    GEOM    SYMINP    ZMAT    AOBASIS   BASIS     P2S    ABASIS      S 
                                         1400     1410     1420     1200     1210     1080     1600     1650     1300     1700   
                                         EKIN       V       ECP      H0       H01     AOSYM     SMH    MOLCAS    ERIS     OPER   
                                         1380   
                                         JKOP   

              2       6        8.61       700     1000      520     4202     5202     2101   
                                         GEOM     BASIS   MCVARS     RHF     MCSCF     RHF  

 PROGRAMS   *        TOTAL        CI       RHF     MULTI       POP       RHF       INT
 CPU TIMES  *        25.36      4.46      0.09      1.26      0.00      1.47     17.92
 REAL TIME  *        32.23 SEC
 DISK USED  *       349.07 MB      
 **********************************************************************************************************************************
 SETTING POSTHF(I)      =      -170.67657331  AU                              
                                                                                                                                                                                                                                                                

         SCF            POSTHF        EKIN          POT
    -169.9408554   -170.6765733   109.4597617   -23.73821762
                                                  

 CI/USERDEF energy=   -170.676573307960

        CI              RHF-SCF         MULTI           RHF-SCF 
   -170.67657331   -169.94085542   -169.85148757   -169.92784280
 **********************************************************************************************************************************
 Variable memory released
