
 Primary working directories    : /global/cscratch1/sd/aannabe
 Secondary working directories  : /global/cscratch1/sd/aannabe
 Wavefunction directory         : /global/homes/a/aannabe/wfu/
 Main file repository           : /global/cscratch1/sd/aannabe/

 SHA1      : 2873118e99aab1bc19f5b6fc1784693c06d15c95
 NAME      : 2015.1.8
 ARCHNAME  : linux/x86_64
 FC        : /opt/cray/pe/craype/2.5.5/bin/ftn
 BLASLIB   : -Wl,-_start-group /opt/intel/compilers_and_libraries_2016.3.210/linux/mkl/lib/intel64/libmkl_intel_ilp64.a /opt/intel/compilers_and_libraries_2016.3.210/linux/mkl/lib/intel64/libmkl_intel_thread.a /opt/intel/compilers_and_libraries_2016.3.210/linux/mkl/lib/intel64/libmkl_core.a -Wl,-_end-group
 id        : lbl

 Nodes     nprocs
 nid00458     1

 Using customized tuning parameters: mindgm=8; mindgv=16; mindgc=4; mindgr=1; noblas=0; minvec=7
 default implementation of scratch files=df  

 ***,Mn
 memory,512,m
 gthresh,twoint=1.e-12
 
 gprint,basis,orbitals
 gexpec,ekin,pot
 
 angstrom
 geometry={
 1                                                                               ! Number of atoms
 Mn 0.0 0.0 0.0
 }
 
 basis={
 Including file /global/homes/a/aannabe/docs/totals/pps/Mn.pp
 Including file /global/homes/a/aannabe/docs/totals/basis/aug-cc-pVnZ/Mn_tz.basis
 }
 
 {hf
 wf,15,1,5
 occ,4,1,1,1,1,1,1,0
 open,3.1,4.1,1.4,1.6,1.7
 sym,1,1,1,3,2
 }
 scf(i)=energy
 
 _CC_NORM_MAX=2.0
 {uccsd(t)
 maxit,100
 core
 }
 posthf(i)=energy
 
 table,scf,posthf,ekin,pot
 save,3.csv,new
 
 

 Variables initialized (889), CPU time= 0.01 sec
 Commands  initialized (702), CPU time= 0.01 sec, 572 directives.
 Default parameters read. Elapsed time= 0.13 sec

 Checking input...
 Passed
1


                                         ***  PROGRAM SYSTEM MOLPRO  ***
                                       Copyright, TTI GmbH Stuttgart, 2015
                                    Version 2015.1 linked Sep  7 2016 23:09:38


 **********************************************************************************************************************************
 LABEL *   Mn                                                                            
  64 bit serial version                                                                  DATE: 12-Jun-18          TIME: 14:02:14  
 **********************************************************************************************************************************

 SHA1:             2873118e99aab1bc19f5b6fc1784693c06d15c95
 **********************************************************************************************************************************

 THRESHOLDS:

 ZERO    =  1.00D-12  ONEINT  =  1.00D-12  TWOINT  =  1.00D-12  PREFAC  =  1.00D-14  LOCALI  =  1.00D-09  EORDER  =  1.00D-04
 ENERGY  =  0.00D+00  ETEST   =  0.00D+00  EDENS   =  0.00D+00  THRDEDEF=  1.00D-06  GRADIENT=  1.00D-02  STEP    =  1.00D-03
 ORBITAL =  1.00D-05  CIVEC   =  1.00D-05  COEFF   =  1.00D-04  PRINTCI =  5.00D-02  PUNCHCI =  9.90D+01  OPTGRAD =  3.00D-04
 OPTENERG=  1.00D-06  OPTSTEP =  3.00D-04  THRGRAD =  1.00D-10  COMPRESS=  1.00D-11  VARMIN  =  1.00D-07  VARMAX  =  1.00D-03
 THRDOUB =  0.00D+00  THRDIV  =  1.00D-05  THRRED  =  1.00D-07  THRPSP  =  1.00D+00  THRDC   =  1.00D-10  THRCS   =  1.00D-10
 THRNRM  =  1.00D-08  THREQ   =  0.00D+00  THRDE   =  1.00D+00  THRREF  =  1.00D-05  SPARFAC =  1.00D+00  THRDLP  =  1.00D-07
 THRDIA  =  1.00D-10  THRDLS  =  1.00D-07  THRGPS  =  0.00D+00  THRKEX  =  0.00D+00  THRDIS  =  2.00D-01  THRVAR  =  1.00D-10
 THRLOC  =  1.00D-06  THRGAP  =  1.00D-06  THRLOCT = -1.00D+00  THRGAPT = -1.00D+00  THRORB  =  1.00D-06  THRMLTP =  0.00D+00
 THRCPQCI=  1.00D-10  KEXTA   =  0.00D+00  THRCOARS=  0.00D+00  SYMTOL  =  1.00D-06  GRADTOL =  1.00D-06  THROVL  =  1.00D-08
 THRORTH =  1.00D-08  GRID    =  1.00D-06  GRIDMAX =  1.00D-03  DTMAX   =  0.00D+00  THROCCDE=  1.00D-01  THROCCDE=  1.00D-01



 ZUNIT=ANG
 

Geometry recognized as XYZ


 Variable memory set to  512000000 words,  buffer space   230000 words

 SETTING BASIS          =    USERDEF


 Recomputing integrals since basis changed


 Using spherical harmonics



 PROGRAM * SEWARD (Integral evaluation for generally contracted gaussian basis sets)     Author: Roland Lindh, 1990

 Geometry written to block  1 of record 700

 Orientation using atomic masses  
 Molecule type: Atom
 Symmetry elements: X,Y,Z
 Rotational constants:       0.0000000      0.0000000      0.0000000 GHz  (calculated with average atomic masses)

 Point group  D2h 



 ATOMIC COORDINATES

 NR  ATOM    CHARGE       X              Y              Z

   1  MN     15.00    0.000000000    0.000000000    0.000000000


          MN  CORE POTENTIAL

          d POTENTIAL

 POWERS             1              3              2              2
 EXPONENTIALS   21.91937       21.35527       21.27163       7.939140    
 COEFFICIENTS   15.00000       328.7906      -162.0517      -1.826943    

          s - d POTENTIAL

 POWERS             2              2
 EXPONENTIALS   18.92045       8.327648    
 COEFFICIENTS   244.6687       33.54163    

          p - d POTENTIAL

 POWERS             2              2
 EXPONENTIALS   20.17347       7.800479    
 COEFFICIENTS   162.3503       24.17957    


 BASIS DATA

   Nr Sym  Nuc  Type         Exponents   Contraction coefficients

    1.1 Ag    1  1s          76.008334     0.000993   -0.000199   -0.000091   -0.000526    0.000000
    2.1 Ag                   39.277974    -0.014796    0.003352    0.005374    0.011380    0.000000
    3.1 Ag                   20.405805     0.120710   -0.029413   -0.058494   -0.116034    0.000000
    4.1 Ag                   12.218680    -0.124001    0.032091    0.056345    0.149329    0.000000
    5.1 Ag                    7.182690    -0.320200    0.083152    0.227874    0.360154    0.000000
                              3.850780    -0.105622    0.021283   -0.008420    0.025174    0.000000
                              2.142489     0.472721   -0.129989   -0.320777   -1.170125    0.000000
                              1.049631     0.620387   -0.239006   -0.813137   -0.872123    0.000000
                              0.508682     0.204553   -0.180315    0.326475    2.550633    0.000000
                              0.192243     0.005924    0.110148    1.447540    0.090343    0.000000
                              0.108899    -0.000097    0.404426    0.021321   -2.210588    0.000000
                              0.053425    -0.000185    0.517307   -0.678323    0.470582    0.000000
                              0.025236     0.000061    0.148139   -0.452828    0.832175    1.000000
    6.1 Ag    1  1s           0.012000     1.000000
    7.1 Ag    1  3d0        132.688182     0.000030
                             45.266024     0.005294
                             23.267336     0.029143
                             10.605694     0.076775
                              5.074684     0.168551
                              2.469857     0.256832
                              1.205883     0.289891
                              0.590569     0.257154
                              0.292055     0.181726
                              0.149190     0.089986
                              0.076511     0.034595
    8.1 Ag    1  3d2+       132.688182     0.000030
                             45.266024     0.005294
                             23.267336     0.029143
                             10.605694     0.076775
                              5.074684     0.168551
                              2.469857     0.256832
                              1.205883     0.289891
                              0.590569     0.257154
                              0.292055     0.181726
                              0.149190     0.089986
                              0.076511     0.034595
    9.1 Ag    1  3d0        132.688182    -0.000021
                             45.266024    -0.005449
                             23.267336    -0.029032
                             10.605694    -0.079825
                              5.074684    -0.174415
                              2.469857    -0.253404
                              1.205883    -0.174305
                              0.590569     0.045081
                              0.292055     0.345760
                              0.149190     0.263725
                              0.076511     0.371715
   10.1 Ag    1  3d2+       132.688182    -0.000021
                             45.266024    -0.005449
                             23.267336    -0.029032
                             10.605694    -0.079825
                              5.074684    -0.174415
                              2.469857    -0.253404
                              1.205883    -0.174305
                              0.590569     0.045081
                              0.292055     0.345760
                              0.149190     0.263725
                              0.076511     0.371715
   11.1 Ag    1  3d0        132.688182     0.000060
                             45.266024     0.008385
                             23.267336     0.045800
                             10.605694     0.129215
                              5.074684     0.284327
                              2.469857     0.270760
                              1.205883    -0.101591
                              0.590569    -0.580677
                              0.292055    -0.181696
                              0.149190     0.021003
                              0.076511     0.723658
   12.1 Ag    1  3d2+       132.688182     0.000060
                             45.266024     0.008385
                             23.267336     0.045800
                             10.605694     0.129215
                              5.074684     0.284327
                              2.469857     0.270760
                              1.205883    -0.101591
                              0.590569    -0.580677
                              0.292055    -0.181696
                              0.149190     0.021003
                              0.076511     0.723658
   13.1 Ag    1  3d0        132.688182     0.000000
                             45.266024     0.000000
                             23.267336     0.000000
                             10.605694     0.000000
                              5.074684     0.000000
                              2.469857     0.000000
                              1.205883     0.000000
                              0.590569     0.000000
                              0.292055     0.000000
                              0.149190     0.000000
                              0.076511     1.000000
   14.1 Ag    1  3d2+       132.688182     0.000000
                             45.266024     0.000000
                             23.267336     0.000000
                             10.605694     0.000000
                              5.074684     0.000000
                              2.469857     0.000000
                              1.205883     0.000000
                              0.590569     0.000000
                              0.292055     0.000000
                              0.149190     0.000000
                              0.076511     1.000000
   15.1 Ag    1  3d0          0.034000     1.000000
   16.1 Ag    1  3d2+         0.034000     1.000000
   17.1 Ag    1  5g0          0.541534     1.000000
   18.1 Ag    1  5g4+         0.541534     1.000000
   19.1 Ag    1  5g2+         0.541534     1.000000
   20.1 Ag    1  5g0          1.740920     1.000000
   21.1 Ag    1  5g4+         1.740920     1.000000
   22.1 Ag    1  5g2+         1.740920     1.000000
    1.2 B3u   1  2px        113.479709     0.000103    0.000019   -0.000197    0.000014    0.000000
    2.2 B3u                  58.160819    -0.000894   -0.000024    0.001354    0.000421    0.000000
    3.2 B3u                  30.043076     0.008844   -0.001224   -0.010102   -0.008573    0.000000
    4.2 B3u                  16.753323    -0.019685    0.002320    0.030603    0.038797    0.000000
    5.2 B3u                  10.705604    -0.069190    0.020758    0.046200    0.099338    0.000000
                              5.557903     0.011508   -0.011572   -0.017588   -0.144445    0.000000
                              3.080151     0.282313   -0.062919   -0.395920   -0.821182    0.000000
                              1.582963     0.438678   -0.136754   -0.419093   -0.250785    0.000000
                              0.810922     0.309843   -0.067295    0.075017    1.790170    0.000000
                              0.413396     0.083945   -0.031024    1.092986   -0.399547    0.000000
                              0.195480     0.007517    0.378981    0.008680   -1.294382    0.000000
                              0.072688     0.001100    0.507824   -0.756369    0.847047    0.000000
                              0.035877     0.000290    0.260941   -0.045149    0.151710    1.000000
    6.2 B3u   1  2px          0.017000     1.000000
    7.2 B3u   1  4f1+         0.162331     1.000000
    8.2 B3u   1  4f3+         0.162331     1.000000
    9.2 B3u   1  4f1+         0.677099     1.000000
   10.2 B3u   1  4f3+         0.677099     1.000000
   11.2 B3u   1  4f1+         2.824255     1.000000
   12.2 B3u   1  4f3+         2.824255     1.000000
    1.3 B2u   1  2py        113.479709     0.000103    0.000019   -0.000197    0.000014    0.000000
    2.3 B2u                  58.160819    -0.000894   -0.000024    0.001354    0.000421    0.000000
    3.3 B2u                  30.043076     0.008844   -0.001224   -0.010102   -0.008573    0.000000
    4.3 B2u                  16.753323    -0.019685    0.002320    0.030603    0.038797    0.000000
    5.3 B2u                  10.705604    -0.069190    0.020758    0.046200    0.099338    0.000000
                              5.557903     0.011508   -0.011572   -0.017588   -0.144445    0.000000
                              3.080151     0.282313   -0.062919   -0.395920   -0.821182    0.000000
                              1.582963     0.438678   -0.136754   -0.419093   -0.250785    0.000000
                              0.810922     0.309843   -0.067295    0.075017    1.790170    0.000000
                              0.413396     0.083945   -0.031024    1.092986   -0.399547    0.000000
                              0.195480     0.007517    0.378981    0.008680   -1.294382    0.000000
                              0.072688     0.001100    0.507824   -0.756369    0.847047    0.000000
                              0.035877     0.000290    0.260941   -0.045149    0.151710    1.000000
    6.3 B2u   1  2py          0.017000     1.000000
    7.3 B2u   1  4f1-         0.162331     1.000000
    8.3 B2u   1  4f3-         0.162331     1.000000
    9.3 B2u   1  4f1-         0.677099     1.000000
   10.3 B2u   1  4f3-         0.677099     1.000000
   11.3 B2u   1  4f1-         2.824255     1.000000
   12.3 B2u   1  4f3-         2.824255     1.000000
    1.4 B1g   1  3d2-       132.688182     0.000030   -0.000021    0.000060    0.000000
    2.4 B1g                  45.266024     0.005294   -0.005449    0.008385    0.000000
    3.4 B1g                  23.267336     0.029143   -0.029032    0.045800    0.000000
    4.4 B1g                  10.605694     0.076775   -0.079825    0.129215    0.000000
                              5.074684     0.168551   -0.174415    0.284327    0.000000
                              2.469857     0.256832   -0.253404    0.270760    0.000000
                              1.205883     0.289891   -0.174305   -0.101591    0.000000
                              0.590569     0.257154    0.045081   -0.580677    0.000000
                              0.292055     0.181726    0.345760   -0.181696    0.000000
                              0.149190     0.089986    0.263725    0.021003    0.000000
                              0.076511     0.034595    0.371715    0.723658    1.000000
    5.4 B1g   1  3d2-         0.034000     1.000000
    6.4 B1g   1  5g2-         0.541534     1.000000
    7.4 B1g   1  5g4-         0.541534     1.000000
    8.4 B1g   1  5g2-         1.740920     1.000000
    9.4 B1g   1  5g4-         1.740920     1.000000
    1.5 B1u   1  2pz        113.479709     0.000103    0.000019   -0.000197    0.000014    0.000000
    2.5 B1u                  58.160819    -0.000894   -0.000024    0.001354    0.000421    0.000000
    3.5 B1u                  30.043076     0.008844   -0.001224   -0.010102   -0.008573    0.000000
    4.5 B1u                  16.753323    -0.019685    0.002320    0.030603    0.038797    0.000000
    5.5 B1u                  10.705604    -0.069190    0.020758    0.046200    0.099338    0.000000
                              5.557903     0.011508   -0.011572   -0.017588   -0.144445    0.000000
                              3.080151     0.282313   -0.062919   -0.395920   -0.821182    0.000000
                              1.582963     0.438678   -0.136754   -0.419093   -0.250785    0.000000
                              0.810922     0.309843   -0.067295    0.075017    1.790170    0.000000
                              0.413396     0.083945   -0.031024    1.092986   -0.399547    0.000000
                              0.195480     0.007517    0.378981    0.008680   -1.294382    0.000000
                              0.072688     0.001100    0.507824   -0.756369    0.847047    0.000000
                              0.035877     0.000290    0.260941   -0.045149    0.151710    1.000000
    6.5 B1u   1  2pz          0.017000     1.000000
    7.5 B1u   1  4f0          0.162331     1.000000
    8.5 B1u   1  4f2+         0.162331     1.000000
    9.5 B1u   1  4f0          0.677099     1.000000
   10.5 B1u   1  4f2+         0.677099     1.000000
   11.5 B1u   1  4f0          2.824255     1.000000
   12.5 B1u   1  4f2+         2.824255     1.000000
    1.6 B2g   1  3d1+       132.688182     0.000030   -0.000021    0.000060    0.000000
    2.6 B2g                  45.266024     0.005294   -0.005449    0.008385    0.000000
    3.6 B2g                  23.267336     0.029143   -0.029032    0.045800    0.000000
    4.6 B2g                  10.605694     0.076775   -0.079825    0.129215    0.000000
                              5.074684     0.168551   -0.174415    0.284327    0.000000
                              2.469857     0.256832   -0.253404    0.270760    0.000000
                              1.205883     0.289891   -0.174305   -0.101591    0.000000
                              0.590569     0.257154    0.045081   -0.580677    0.000000
                              0.292055     0.181726    0.345760   -0.181696    0.000000
                              0.149190     0.089986    0.263725    0.021003    0.000000
                              0.076511     0.034595    0.371715    0.723658    1.000000
    5.6 B2g   1  3d1+         0.034000     1.000000
    6.6 B2g   1  5g1+         0.541534     1.000000
    7.6 B2g   1  5g3+         0.541534     1.000000
    8.6 B2g   1  5g1+         1.740920     1.000000
    9.6 B2g   1  5g3+         1.740920     1.000000
    1.7 B3g   1  3d1-       132.688182     0.000030   -0.000021    0.000060    0.000000
    2.7 B3g                  45.266024     0.005294   -0.005449    0.008385    0.000000
    3.7 B3g                  23.267336     0.029143   -0.029032    0.045800    0.000000
    4.7 B3g                  10.605694     0.076775   -0.079825    0.129215    0.000000
                              5.074684     0.168551   -0.174415    0.284327    0.000000
                              2.469857     0.256832   -0.253404    0.270760    0.000000
                              1.205883     0.289891   -0.174305   -0.101591    0.000000
                              0.590569     0.257154    0.045081   -0.580677    0.000000
                              0.292055     0.181726    0.345760   -0.181696    0.000000
                              0.149190     0.089986    0.263725    0.021003    0.000000
                              0.076511     0.034595    0.371715    0.723658    1.000000
    5.7 B3g   1  3d1-         0.034000     1.000000
    6.7 B3g   1  5g1-         0.541534     1.000000
    7.7 B3g   1  5g3-         0.541534     1.000000
    8.7 B3g   1  5g1-         1.740920     1.000000
    9.7 B3g   1  5g3-         1.740920     1.000000
    1.8 Au    1  4f2-         0.162331     1.000000
    2.8 Au    1  4f2-         0.677099     1.000000
    3.8 Au    1  4f2-         2.824255     1.000000

 NUCLEAR CHARGE:                   15
 NUMBER OF PRIMITIVE AOS:         188
 NUMBER OF SYMMETRY AOS:          155
 NUMBER OF CONTRACTIONS:           88   (  22Ag  +  12B3u +  12B2u +   9B1g +  12B1u +   9B2g +   9B3g +   3Au  )
 NUMBER OF CORE ORBITALS:           4   (   1Ag  +   1B3u +   1B2u +   0B1g +   1B1u +   0B2g +   0B3g +   0Au  )
 NUMBER OF VALENCE ORBITALS:        6   (   3Ag  +   0B3u +   0B2u +   1B1g +   0B1u +   1B2g +   1B3g +   0Au  )


 NUCLEAR REPULSION ENERGY    0.00000000

 EXTRA SYMMETRY OF AOS IN SYMMETRY 1:   1 1 1 1 1 1 2 3 2 3   2 3 2 3 2 3 4 5 6 4   5 6
 EXTRA SYMMETRY OF AOS IN SYMMETRY 2:   1 1 1 1 1 1 2 3 2 3   2 3
 EXTRA SYMMETRY OF AOS IN SYMMETRY 3:   1 1 1 1 1 1 2 3 2 3   2 3
 EXTRA SYMMETRY OF AOS IN SYMMETRY 4:   1 1 1 1 1 2 3 2 3
 EXTRA SYMMETRY OF AOS IN SYMMETRY 5:   1 1 1 1 1 1 2 3 2 3   2 3
 EXTRA SYMMETRY OF AOS IN SYMMETRY 6:   1 1 1 1 1 2 3 2 3
 EXTRA SYMMETRY OF AOS IN SYMMETRY 7:   1 1 1 1 1 2 3 2 3

 Eigenvalues of metric

         1 0.497E-02 0.238E-01 0.238E-01 0.134E+00 0.356E+00 0.356E+00 0.589E+00 0.589E+00
         2 0.231E-01 0.364E+00 0.525E+00 0.525E+00 0.754E+00 0.972E+00 0.972E+00 0.990E+00
         3 0.231E-01 0.364E+00 0.525E+00 0.525E+00 0.754E+00 0.972E+00 0.972E+00 0.990E+00
         4 0.238E-01 0.356E+00 0.589E+00 0.589E+00 0.100E+01 0.103E+01 0.141E+01 0.141E+01
         5 0.231E-01 0.364E+00 0.525E+00 0.525E+00 0.754E+00 0.972E+00 0.972E+00 0.990E+00
         6 0.238E-01 0.356E+00 0.589E+00 0.589E+00 0.100E+01 0.103E+01 0.141E+01 0.141E+01
         7 0.238E-01 0.356E+00 0.589E+00 0.589E+00 0.100E+01 0.103E+01 0.141E+01 0.141E+01
         8 0.525E+00 0.972E+00 0.150E+01


 Contracted 2-electron integrals neglected if value below      1.0D-12
 AO integral compression algorithm  1   Integral accuracy      1.0D-12

     8.126 MB (compressed) written to integral file ( 54.3%)


 NUMBER OF SORTED TWO-ELECTRON INTEGRALS:    1019164.     BUFFER LENGTH:  32768
 NUMBER OF SEGMENTS:   1  SEGMENT LENGTH:    1019164      RECORD LENGTH: 524288

 Memory used in sort:       1.58 MW

 SORT1 READ     1855900. AND WROTE      770922. INTEGRALS IN      3 RECORDS. CPU TIME:     0.04 SEC, REAL TIME:     0.08 SEC
 SORT2 READ      770922. AND WROTE     1019164. INTEGRALS IN     31 RECORDS. CPU TIME:     0.09 SEC, REAL TIME:     0.12 SEC

 FILE SIZES:   FILE 1:    27.4 MBYTE,  FILE 4:    12.6 MBYTE,   TOTAL:     40.0 MBYTE

 OPERATOR DM      FOR CENTER  0  COORDINATES:    0.000000    0.000000    0.000000
 OPERATOR EKIN    FOR CENTER  0  COORDINATES:    0.000000    0.000000    0.000000
 OPERATOR POT     FOR CENTER  0  COORDINATES:    0.000000    0.000000    0.000000


 **********************************************************************************************************************************
 DATASETS  * FILE   NREC   LENGTH (MB)   RECORD NAMES
              1      20       23.68       500      610      700      900      950      970     1000      129      960     1100   
                                          VAR    BASINP    GEOM    SYMINP    ZMAT    AOBASIS   BASIS     P2S    ABASIS      S 
                                         1400     1410     1420     1200     1210     1080     1600     1650     1300     1700   
                                         EKIN       V       ECP      H0       H01     AOSYM     SMH    MOLCAS    ERIS     OPER   

 PROGRAMS   *        TOTAL       INT
 CPU TIMES  *         1.86      1.72
 REAL TIME  *         3.45 SEC
 DISK USED  *        40.32 MB      
 **********************************************************************************************************************************


 PROGRAM * RHF-SCF (OPEN SHELL)       Authors: W. Meyer, H.-J. Werner


 NUMBER OF ELECTRONS:      10+    5-    SPACE SYMMETRY=1    SPIN SYMMETRY: Sextet  
 CONVERGENCE THRESHOLDS:    1.00E-05 (Density)    1.00E-07 (Energy)
 MAX. NUMBER OF ITERATIONS:       60
 INTERPOLATION TYPE:            DIIS
 INTERPOLATION STEPS:              2 (START)      1 (STEP)
 LEVEL SHIFTS:                 -0.60 (CLOSED) -0.30 (OPEN) 


 Singly occupied orbitals:      3.1       4.1       1.4       1.6       1.7
 
 Extra symmetries of mos in symmetry 1:   1   1   3   2

   Atom=MN basis=ECP10MDF_GUESS    lmin=0  lmax=2

 Orbital guess generated from atomic densities. Full valence occupancy:    4   1   1   1   1   1   1   0


 Molecular orbital dump at record        2100.2

 ITERATION    DDIFF          GRAD             ENERGY        2-EL.EN.            DIPOLE MOMENTS         DIIS   ORB.
    1      0.000D+00      0.000D+00      -103.05873236    145.577835    0.00000    0.00000    0.00000    0    start
    2      0.000D+00      0.351D-01      -103.21603004    155.514699    0.00000    0.00000    0.00000    1    diag,B
    3      0.159D-01      0.226D-01      -103.23956744    153.819804    0.00000    0.00000    0.00000    2    diag,B
    4      0.407D-02      0.622D-02      -103.24392803    153.691393    0.00000    0.00000    0.00000    3    diag,B
    5      0.268D-02      0.858D-03      -103.24423671    153.689755    0.00000    0.00000    0.00000    4    diag,B
    6      0.119D-02      0.279D-03      -103.24429208    153.619733    0.00000    0.00000    0.00000    5    diag,B
    7      0.837D-03      0.930D-04      -103.24429872    153.603366    0.00000    0.00000    0.00000    6    fixocc
    8      0.686D-03      0.307D-04      -103.24429947    153.598626    0.00000    0.00000    0.00000    7    diag,B
    9      0.134D-03      0.173D-04      -103.24429985    153.595263    0.00000    0.00000    0.00000    8    diag,B
   10      0.147D-03      0.694D-05      -103.24429989    153.595651    0.00000    0.00000    0.00000    9    orth
   11      0.772D-04      0.118D-05      -103.24429989    153.595335    0.00000    0.00000    0.00000    9    diag,B
   12      0.384D-05      0.152D-06      -103.24429989    153.595371    0.00000    0.00000    0.00000    0    orth

 Final alpha occupancy:   4   1   1   1   1   1   1   0
 Final beta  occupancy:   2   1   1   0   1   0   0   0

 !RHF STATE 1.1 Energy               -103.244299892420
 Nuclear energy                         0.00000000
 One-electron energy                 -180.04198559
 Two-electron energy                   76.79768570
 Virial quotient                       -1.79695978
 !RHF STATE 1.1 Dipole moment           0.00000000     0.00000000     0.00000000
 Dipole moment /Debye                   0.00000000     0.00000000     0.00000000
 

 !RHF expec          <1.1|EKIN|1.1>    57.454986603268
 
 !RHF expec           <1.1|POT|1.1>   -16.674391848235

 ELECTRON ORBITALS
 =================


   Orb  Occ    Energy  Couls-En    Coefficients

                                   1 1s      1 1s      1 1s      1 1s      1 1s      1 1s      1 3d0     1 3d2+    1 3d0     1 3d2+ 
                                   1 3d0     1 3d2+    1 3d0     1 3d2+    1 3d0     1 3d2+    1 5g0     1 5g4+    1 5g2+    1 5g0  
                                   1 5g4+    1 5g2+ 

   1.1   2    -3.9198  -19.3101  0.999986 -0.000060  0.000016 -0.000025  0.000089 -0.000026  0.000000  0.000000  0.000000  0.000000
                                 0.000000  0.000000 -0.000000 -0.000000  0.000000  0.000000  0.000000 -0.000000 -0.000000  0.000000
                                 0.000000 -0.000000

   2.1   2    -0.2508   -5.2939  0.000023  1.000081  0.000076 -0.000034 -0.000184  0.000114  0.000000 -0.000000  0.000000 -0.000000
                                 0.000000 -0.000000 -0.000000  0.000000  0.000000 -0.000000  0.000000  0.000000 -0.000000 -0.000000
                                -0.000000 -0.000000

   3.1   +    -0.6291  -11.8120 -0.000000 -0.000000  0.000000 -0.000000  0.000000 -0.000000 -0.000998  0.984195  0.000121 -0.119808
                                 0.000022 -0.022099 -0.000030  0.029873 -0.000002  0.001946 -0.000000 -0.000000  0.000000 -0.000000
                                -0.000000 -0.000000

   4.1   +    -0.6291  -11.8120  0.000000  0.000000 -0.000000  0.000000 -0.000000  0.000000  0.984195  0.000998 -0.119808 -0.000121
                                -0.022099 -0.000022  0.029873  0.000030  0.001946  0.000002  0.000000  0.000000  0.000000 -0.000000
                                -0.000000 -0.000000

                                   1 2px     1 2px     1 2px     1 2px     1 2px     1 2px     1 4f1+    1 4f3+    1 4f1+    1 4f3+ 
                                   1 4f1+    1 4f3+ 

   1.2   2    -2.4933  -16.3701  1.000255  0.016752  0.017454  0.000991 -0.000943 -0.001125  0.000000 -0.000000  0.000000  0.000000
                                -0.000000 -0.000000

                                   1 2py     1 2py     1 2py     1 2py     1 2py     1 2py     1 4f1-    1 4f3-    1 4f1-    1 4f3- 
                                   1 4f1-    1 4f3- 

   1.3   2    -2.4933  -16.3701  1.000255  0.016752  0.017454  0.000991 -0.000943 -0.001125  0.000000  0.000000  0.000000 -0.000000
                                -0.000000  0.000000

                                   1 3d2-    1 3d2-    1 3d2-    1 3d2-    1 3d2-    1 5g2-    1 5g4-    1 5g2-    1 5g4- 

   1.4   +    -0.6291  -11.8120  0.984196 -0.119808 -0.022099  0.029873  0.001946  0.000000 -0.000000 -0.000000  0.000000

                                   1 2pz     1 2pz     1 2pz     1 2pz     1 2pz     1 2pz     1 4f0     1 4f2+    1 4f0     1 4f2+ 
                                   1 4f0     1 4f2+ 

   1.5   2    -2.4933  -16.3701  1.000255  0.016752  0.017454  0.000991 -0.000943 -0.001125  0.000000 -0.000000  0.000000  0.000000
                                -0.000000  0.000000

                                   1 3d1+    1 3d1+    1 3d1+    1 3d1+    1 3d1+    1 5g1+    1 5g3+    1 5g1+    1 5g3+ 

   1.6   +    -0.6291  -11.8120  0.984196 -0.119808 -0.022099  0.029873  0.001946 -0.000000 -0.000000  0.000000 -0.000000

                                   1 3d1-    1 3d1-    1 3d1-    1 3d1-    1 3d1-    1 5g1-    1 5g3-    1 5g1-    1 5g3- 

   1.7   +    -0.6291  -11.8120  0.984196 -0.119808 -0.022099  0.029873  0.001946 -0.000000  0.000000  0.000000  0.000000

 HOMO      4.1    -0.629104 =     -17.1188eV
 LUMO      2.2     0.020506 =       0.5580eV
 LUMO-HOMO         0.649610 =      17.6768eV


 **********************************************************************************************************************************
 DATASETS  * FILE   NREC   LENGTH (MB)   RECORD NAMES
              1      20       23.68       500      610      700      900      950      970     1000      129      960     1100   
                                          VAR    BASINP    GEOM    SYMINP    ZMAT    AOBASIS   BASIS     P2S    ABASIS      S 
                                         1400     1410     1420     1200     1210     1080     1600     1650     1300     1700   
                                         EKIN       V       ECP      H0       H01     AOSYM     SMH    MOLCAS    ERIS     OPER   

              2       4        2.79       700     1000      520     2100   
                                         GEOM     BASIS   MCVARS     RHF  

 PROGRAMS   *        TOTAL        HF       INT
 CPU TIMES  *         1.97      0.10      1.72
 REAL TIME  *         5.79 SEC
 DISK USED  *        40.32 MB      
 **********************************************************************************************************************************
 SETTING SCF(I)         =      -103.24429989  AU                              
 SETTING _CC_NORM_MAX   =         2.00000000                                  


 PROGRAM * CCSD (Unrestricted open-shell coupled cluster)     Authors: C. Hampel, H.-J. Werner, 1991, M. Deegan, P.J. Knowles, 1992


 Convergence thresholds:  THRVAR = 1.00D-08  THRDEN = 1.00D-06

 CCSD(T)     terms to be evaluated (factor= 1.000)


 Number of closed-shell orbitals:   5 (   2   1   1   0   1   0   0   0 )
 Number of active  orbitals:        5 (   2   0   0   1   0   1   1   0 )
 Number of external orbitals:      78 (  18  11  11   8  11   8   8   3 )

 Memory could be reduced to 1.72 Mwords without degradation in triples

 Number of N-1 electron functions:              15
 Number of N-2 electron functions:             105
 Number of singly external CSFs:               213
 Number of doubly external CSFs:             68355
 Total number of CSFs:                       68568

 Molecular orbitals read from record     2100.2  Type=RHF/CANONICAL (state 1.1)

 Integral transformation finished. Total CPU:   0.03 sec, npass=  1  Memory used:   0.38 MW

 Starting RMP2 calculation

 ITER.      SQ.NORM     CORR.ENERGY   TOTAL ENERGY   ENERGY CHANGE        DEN1      VAR(S)    VAR(P)  DIIS     TIME
   1      1.09516072    -0.49524055  -103.73954044    -0.49524055    -0.00130392  0.61D-04  0.85D-03  1  1     0.05
   2      1.09753082    -0.49659816  -103.74089805    -0.00135761    -0.00002888  0.34D-05  0.27D-04  2  2     0.05
   3      1.09800038    -0.49676345  -103.74106334    -0.00016528    -0.00000048  0.13D-06  0.41D-06  3  3     0.05
   4      1.09805793    -0.49677905  -103.74107894    -0.00001560    -0.00000001  0.50D-08  0.25D-08  4  4     0.06
   5      1.09805938    -0.49677905  -103.74107894    -0.00000000    -0.00000000  0.21D-09  0.31D-10  5  5     0.06

 Norm of t1 vector:      0.05046373      S-energy:    -0.00268474      T1 diagnostic:  0.00027010
 Norm of t2 vector:      0.30905143      P-energy:    -0.49409431
                                         Alpha-Beta:  -0.31885634
                                         Alpha-Alpha: -0.13293139
                                         Beta-Beta:   -0.04230658

 Spin contamination <S**2-Sz**2-Sz>     0.01649604
  Reference energy                   -103.244299892420
  RHF-RMP2 correlation energy          -0.496779050405
 !RHF-RMP2 energy                    -103.741078942825

 Starting UCCSD calculation

 ITER.      SQ.NORM     CORR.ENERGY   TOTAL ENERGY   ENERGY CHANGE        DEN1      VAR(S)    VAR(P)  DIIS     TIME
   1      1.10125575    -0.49148020  -103.73578009    -0.49148020    -0.00995547  0.32D-02  0.27D-02  1  1     0.22
   2      1.11663559    -0.50084570  -103.74514559    -0.00936550    -0.00130153  0.49D-03  0.65D-03  2  2     0.37
   3      1.12739627    -0.50344336  -103.74774325    -0.00259766    -0.00020099  0.13D-03  0.84D-04  3  3     0.51
   4      1.13375197    -0.50481290  -103.74911279    -0.00136954    -0.00001516  0.47D-05  0.69D-05  4  4     0.67
   5      1.13494668    -0.50497375  -103.74927364    -0.00016085    -0.00000210  0.43D-06  0.11D-05  5  5     0.87
   6      1.13522309    -0.50500531  -103.74930520    -0.00003156    -0.00000047  0.24D-07  0.28D-06  6  6     1.02
   7      1.13527928    -0.50501488  -103.74931478    -0.00000957    -0.00000012  0.17D-07  0.68D-07  6  2     1.17
   8      1.13525685    -0.50501063  -103.74931052     0.00000425    -0.00000003  0.72D-08  0.14D-07  6  1     1.33
   9      1.13524916    -0.50501168  -103.74931158    -0.00000105    -0.00000001  0.67D-09  0.34D-08  6  3     1.49
  10      1.13524262    -0.50501088  -103.74931078     0.00000080    -0.00000000  0.42D-10  0.67D-09  6  4     1.66

 Norm of t1 vector:      0.12946697      S-energy:    -0.00362452      T1 diagnostic:  0.01928981
                                                                       D1 diagnostic:  0.06287848
 Norm of t2 vector:      0.34421059      P-energy:    -0.50138636
                                         Alpha-Beta:  -0.33433496
                                         Alpha-Alpha: -0.12632364
                                         Beta-Beta:   -0.04072776

 Singles amplitudes (print threshold =  0.500E-01):

         I         SYM. A    A   T(IA) [Alpha-Alpha]

         2         1         3     -0.05707055
         2         1         6      0.09133216

 Doubles amplitudes (print threshold =  0.500E-01):

         I         J         SYM. A    SYM. B    A         B      T(IJ, AB) [Alpha-Beta]

         2         2         2         2         2         2     -0.05148807
         2         2         3         3         2         2     -0.05148807
         2         2         5         5         2         2     -0.05148807

 Spin contamination <S**2-Sz**2-Sz>     0.01269851

 Memory could be reduced to 1.99 Mwords without degradation in triples
 

  Correlated core orbitals:             1.1       1.2       1.3       1.5
  Orbital energies:                    -4.1375   -2.7577   -2.7577   -2.7577
 
  UCCSD core-core energy               -0.146006651984
  UCCSD core-valence energy            -0.231469493235
  UCCSD valence correlation energy     -0.127534738174
 

 RESULTS
 =======

  Reference energy                   -103.244299892420
  UCCSD singles energy                 -0.003624523762
  UCCSD pair energy                    -0.501386359632
  UCCSD correlation energy             -0.505010883393
  Triples (T) contribution             -0.014643060231
  Total correlation energy             -0.519653943625
 
  RHF-UCCSD energy                   -103.749310775813
  RHF-UCCSD[T] energy                -103.764659166767
  RHF-UCCSD-T energy                 -103.763769790661
 !RHF-UCCSD(T) energy                -103.763953836045

 Program statistics:

 Available memory in ccsd:               511999000
 Min. memory needed in ccsd:                233813
 Max. memory used in ccsd:                  315793
 Max. memory used in cckext:                285455 (10 integral passes)
 Max. memory used in cckint:                380117 ( 1 integral passes)



 **********************************************************************************************************************************
 DATASETS  * FILE   NREC   LENGTH (MB)   RECORD NAMES
              1      20       23.68       500      610      700      900      950      970     1000      129      960     1100   
                                          VAR    BASINP    GEOM    SYMINP    ZMAT    AOBASIS   BASIS     P2S    ABASIS      S 
                                         1400     1410     1420     1200     1210     1080     1600     1650     1300     1700   
                                         EKIN       V       ECP      H0       H01     AOSYM     SMH    MOLCAS    ERIS     OPER   

              2       4        2.79       700     1000      520     2100   
                                         GEOM     BASIS   MCVARS     RHF  

 PROGRAMS   *        TOTAL  UCCSD(T)        HF       INT
 CPU TIMES  *         5.13      3.16      0.10      1.72
 REAL TIME  *        14.63 SEC
 DISK USED  *        58.89 MB      
 **********************************************************************************************************************************
 SETTING POSTHF(I)      =      -103.76395384  AU                              
                                                                                                                                                                                                                                                                

         SCF            POSTHF       EKIN           POT
    -103.2442999   -103.7639538   57.45498660   -16.67439185
                                                  

 UCCSD(T)/USERDEF energy=   -103.763953836045

        UCCSD(T)        HF-SCF  
   -103.76395384   -103.24429989
 **********************************************************************************************************************************
 Variable memory released
