
 Primary working directories    : /global/cscratch1/sd/aannabe
 Secondary working directories  : /global/cscratch1/sd/aannabe
 Wavefunction directory         : /global/homes/a/aannabe/wfu/
 Main file repository           : /global/cscratch1/sd/aannabe/

 SHA1      : 2873118e99aab1bc19f5b6fc1784693c06d15c95
 NAME      : 2015.1.8
 ARCHNAME  : linux/x86_64
 FC        : /opt/cray/pe/craype/2.5.5/bin/ftn
 BLASLIB   : -Wl,-_start-group /opt/intel/compilers_and_libraries_2016.3.210/linux/mkl/lib/intel64/libmkl_intel_ilp64.a /opt/intel/compilers_and_libraries_2016.3.210/linux/mkl/lib/intel64/libmkl_intel_thread.a /opt/intel/compilers_and_libraries_2016.3.210/linux/mkl/lib/intel64/libmkl_core.a -Wl,-_end-group
 id        : lbl

 Nodes     nprocs
 nid00491     1

 Using customized tuning parameters: mindgm=8; mindgv=16; mindgc=4; mindgr=1; noblas=0; minvec=7
 default implementation of scratch files=df  

 ***,Ni
 memory,512,m
 gthresh,twoint=1.e-12
 
 gprint,basis,orbitals
 gexpec,ekin,pot
 
 angstrom
 geometry={
 1                                                                               ! Number of atoms
 Ni 0.0 0.0 0.0
 }
 
 basis={
 Including file /global/homes/a/aannabe/docs/accurate/ccECP_Kh/pps/Ni.pp
                                              !include,/global/homes/a/aannabe/docs/accurate/ccECP_Kh/basis/aug-cc-pVnZ/Ni_qz.basis
 Including file /global/homes/a/aannabe/docs/accurate/ccECP_Kh/basis/cc-pVnZ/Ni_qz.basis
 }
 
 {rhf
  start,atden
  print,orbitals=2
  wf,18,6,2
  occ,4,1,1,1,1,1,1,0
  open,4.1,1.6
  sym,1,1,3,2,1
  orbital,4202.2
 }
 pop
 {multi
  start,4202.2
  occ,4,1,1,1,1,1,1,0
  closed,1,1,1,0,1,0,0
  wf,18,1,2;state,2
  restrict,1,1,4.1
  wf,18,4,2;state,1
  restrict,1,1,4.1
  wf,18,6,2;state,1
  restrict,1,1,4.1
  wf,18,7,2;state,1
  restrict,1,1,4.1
  natorb,ci,print
  orbital,5202.2
 }
 {rhf,nitord=1,maxit=0
  start,5202.2
  wf,18,6,2
  occ,4,1,1,1,1,1,1,0
  open,4.1,1.6
 }
 
 
 scf(i)=energy
 
 _CC_NORM_MAX=2.0
 {uccsd(t)
 maxit,100
 core
 }
 posthf(i)=energy
 
 table,scf,posthf,ekin,pot
 save,4.csv,new
 
 

 Variables initialized (889), CPU time= 0.01 sec
 Commands  initialized (702), CPU time= 0.01 sec, 572 directives.
 Default parameters read. Elapsed time= 0.21 sec

 Checking input...
 Passed
1


                                         ***  PROGRAM SYSTEM MOLPRO  ***
                                       Copyright, TTI GmbH Stuttgart, 2015
                                    Version 2015.1 linked Sep  7 2016 23:09:38


 **********************************************************************************************************************************
 LABEL *   Ni                                                                            
  64 bit serial version                                                                  DATE: 13-Nov-18          TIME: 22:29:40  
 **********************************************************************************************************************************

 SHA1:             2873118e99aab1bc19f5b6fc1784693c06d15c95
 **********************************************************************************************************************************

 THRESHOLDS:

 ZERO    =  1.00D-12  ONEINT  =  1.00D-12  TWOINT  =  1.00D-12  PREFAC  =  1.00D-14  LOCALI  =  1.00D-09  EORDER  =  1.00D-04
 ENERGY  =  0.00D+00  ETEST   =  0.00D+00  EDENS   =  0.00D+00  THRDEDEF=  1.00D-06  GRADIENT=  1.00D-02  STEP    =  1.00D-03
 ORBITAL =  1.00D-05  CIVEC   =  1.00D-05  COEFF   =  1.00D-04  PRINTCI =  5.00D-02  PUNCHCI =  9.90D+01  OPTGRAD =  3.00D-04
 OPTENERG=  1.00D-06  OPTSTEP =  3.00D-04  THRGRAD =  1.00D-10  COMPRESS=  1.00D-11  VARMIN  =  1.00D-07  VARMAX  =  1.00D-03
 THRDOUB =  0.00D+00  THRDIV  =  1.00D-05  THRRED  =  1.00D-07  THRPSP  =  1.00D+00  THRDC   =  1.00D-10  THRCS   =  1.00D-10
 THRNRM  =  1.00D-08  THREQ   =  0.00D+00  THRDE   =  1.00D+00  THRREF  =  1.00D-05  SPARFAC =  1.00D+00  THRDLP  =  1.00D-07
 THRDIA  =  1.00D-10  THRDLS  =  1.00D-07  THRGPS  =  0.00D+00  THRKEX  =  0.00D+00  THRDIS  =  2.00D-01  THRVAR  =  1.00D-10
 THRLOC  =  1.00D-06  THRGAP  =  1.00D-06  THRLOCT = -1.00D+00  THRGAPT = -1.00D+00  THRORB  =  1.00D-06  THRMLTP =  0.00D+00
 THRCPQCI=  1.00D-10  KEXTA   =  0.00D+00  THRCOARS=  0.00D+00  SYMTOL  =  1.00D-06  GRADTOL =  1.00D-06  THROVL  =  1.00D-08
 THRORTH =  1.00D-08  GRID    =  1.00D-06  GRIDMAX =  1.00D-03  DTMAX   =  0.00D+00  THROCCDE=  1.00D-01  THROCCDE=  1.00D-01



 ZUNIT=ANG
 

Geometry recognized as XYZ


 Variable memory set to  512000000 words,  buffer space   230000 words

 SETTING BASIS          =    USERDEF


 Recomputing integrals since basis changed


 Using spherical harmonics



 PROGRAM * SEWARD (Integral evaluation for generally contracted gaussian basis sets)     Author: Roland Lindh, 1990

 Geometry written to block  1 of record 700

 Orientation using atomic masses  
 Molecule type: Atom
 Symmetry elements: X,Y,Z
 Rotational constants:       0.0000000      0.0000000      0.0000000 GHz  (calculated with average atomic masses)

 Point group  D2h 



 ATOMIC COORDINATES

 NR  ATOM    CHARGE       X              Y              Z

   1  NI     18.00    0.000000000    0.000000000    0.000000000


          NI  CORE POTENTIAL

          d POTENTIAL

 POWERS             1              3              2              2
 EXPONENTIALS   28.26300       26.93603       27.08601       12.21300    
 COEFFICIENTS   18.00000       508.7340      -220.1000      -2.134933    

          s - d POTENTIAL

 POWERS             2              2
 EXPONENTIALS   26.43202       11.74897    
 COEFFICIENTS   321.2400       60.34701    

          p - d POTENTIAL

 POWERS             2              2
 EXPONENTIALS   29.49300       11.55698    
 COEFFICIENTS   236.5400       44.39699    


 BASIS DATA

   Nr Sym  Nuc  Type         Exponents   Contraction coefficients

    1.1 Ag    1  1s          97.161835     0.000709   -0.000140    0.000121    0.000434    0.002461    0.000000
    2.1 Ag                   51.187866    -0.012399    0.002756    0.003322    0.004848   -0.023460    0.000000
    3.1 Ag                   26.996725     0.107220   -0.025482   -0.045785   -0.087818    0.198590    0.000000
    4.1 Ag                   15.523536    -0.124556    0.032182    0.053415    0.121852   -0.402525    0.000000
    5.1 Ag                    8.916168    -0.351023    0.086226    0.222270    0.454218   -0.405568    0.000000
    6.1 Ag                    4.795806    -0.025758    0.001104   -0.073065   -0.245765    0.387893    0.000000
                              2.619926     0.498948   -0.135790   -0.293998   -0.997345    2.684679    0.000000
                              1.330111     0.568986   -0.215724   -0.668938   -0.834586   -2.955956    0.000000
                              0.668901     0.191121   -0.158367    0.297504    2.285675   -0.667467    0.000000
                              0.230439     0.010278    0.143499    1.233748    0.251538    4.094074    0.000000
                              0.121518    -0.003627    0.443672    0.129317   -1.988796   -3.103355    0.000000
                              0.057951     0.001295    0.472558   -0.603407    0.347602   -0.768728    0.000000
                              0.027201    -0.000307    0.110173   -0.533062    0.824150    1.331217    1.000000
    7.1 Ag    1  1s           2.749235     1.000000
    8.1 Ag    1  1s           3.424032     1.000000
    9.1 Ag    1  3d0        177.900125     0.000049
                             57.372112     0.007519
                             29.881432     0.036455
                             13.971757     0.086901
                              6.841152     0.180568
                              3.379983     0.268187
                              1.651827     0.296756
                              0.799251     0.251558
                              0.388057     0.162319
                              0.191191     0.072119
                              0.093358     0.023689
   10.1 Ag    1  3d2+       177.900125     0.000049
                             57.372112     0.007519
                             29.881432     0.036455
                             13.971757     0.086901
                              6.841152     0.180568
                              3.379983     0.268187
                              1.651827     0.296756
                              0.799251     0.251558
                              0.388057     0.162319
                              0.191191     0.072119
                              0.093358     0.023689
   11.1 Ag    1  3d0        177.900125    -0.000053
                             57.372112    -0.008850
                             29.881432    -0.041916
                             13.971757    -0.104691
                              6.841152    -0.219464
                              3.379983    -0.283712
                              1.651827    -0.122127
                              0.799251     0.190123
                              0.388057     0.376598
                              0.191191     0.295122
                              0.093358     0.178252
   12.1 Ag    1  3d2+       177.900125    -0.000053
                             57.372112    -0.008850
                             29.881432    -0.041916
                             13.971757    -0.104691
                              6.841152    -0.219464
                              3.379983    -0.283712
                              1.651827    -0.122127
                              0.799251     0.190123
                              0.388057     0.376598
                              0.191191     0.295122
                              0.093358     0.178252
   13.1 Ag    1  3d0        177.900125     0.000079
                             57.372112     0.011442
                             29.881432     0.053972
                             13.971757     0.141068
                              6.841152     0.302294
                              3.379983     0.236558
                              1.651827    -0.291311
                              0.799251    -0.581758
                              0.388057    -0.024063
                              0.191191     0.389387
                              0.093358     0.430833
   14.1 Ag    1  3d2+       177.900125     0.000079
                             57.372112     0.011442
                             29.881432     0.053972
                             13.971757     0.141068
                              6.841152     0.302294
                              3.379983     0.236558
                              1.651827    -0.291311
                              0.799251    -0.581758
                              0.388057    -0.024063
                              0.191191     0.389387
                              0.093358     0.430833
   15.1 Ag    1  3d0        177.900125    -0.000124
                             57.372112    -0.016602
                             29.881432    -0.077533
                             13.971757    -0.221826
                              6.841152    -0.481658
                              3.379983     0.182447
                              1.651827     0.945626
                              0.799251    -0.334241
                              0.388057    -0.761164
                              0.191191     0.136816
                              0.093358     0.600785
   16.1 Ag    1  3d2+       177.900125    -0.000124
                             57.372112    -0.016602
                             29.881432    -0.077533
                             13.971757    -0.221826
                              6.841152    -0.481658
                              3.379983     0.182447
                              1.651827     0.945626
                              0.799251    -0.334241
                              0.388057    -0.761164
                              0.191191     0.136816
                              0.093358     0.600785
   17.1 Ag    1  3d0        177.900125     0.000000
                             57.372112     0.000000
                             29.881432     0.000000
                             13.971757     0.000000
                              6.841152     0.000000
                              3.379983     0.000000
                              1.651827     0.000000
                              0.799251     0.000000
                              0.388057     0.000000
                              0.191191     0.000000
                              0.093358     1.000000
   18.1 Ag    1  3d2+       177.900125     0.000000
                             57.372112     0.000000
                             29.881432     0.000000
                             13.971757     0.000000
                              6.841152     0.000000
                              3.379983     0.000000
                              1.651827     0.000000
                              0.799251     0.000000
                              0.388057     0.000000
                              0.191191     0.000000
                              0.093358     1.000000
   19.1 Ag    1  3d0          4.388587     1.000000
   20.1 Ag    1  3d2+         4.388587     1.000000
   21.1 Ag    1  3d0          5.303761     1.000000
   22.1 Ag    1  3d2+         5.303761     1.000000
   23.1 Ag    1  5g0          1.549000     1.000000
   24.1 Ag    1  5g4+         1.549000     1.000000
   25.1 Ag    1  5g2+         1.549000     1.000000
   26.1 Ag    1  5g0          5.290163     1.000000
   27.1 Ag    1  5g4+         5.290163     1.000000
   28.1 Ag    1  5g2+         5.290163     1.000000
   29.1 Ag    1  5g0          7.523045     1.000000
   30.1 Ag    1  5g4+         7.523045     1.000000
   31.1 Ag    1  5g2+         7.523045     1.000000
    1.2 B3u   1  2px        148.087630     0.000055    0.000027   -0.000237   -0.000260    0.000080    0.000000
    2.2 B3u                  77.452187    -0.000548   -0.000088    0.001456    0.001071   -0.000101    0.000000
    3.2 B3u                  40.915636     0.006979   -0.000773   -0.009745    0.002322   -0.006492    0.000000
    4.2 B3u                  22.575667    -0.023658    0.003345    0.037799   -0.032140    0.083129    0.000000
    5.2 B3u                  13.218268    -0.075682    0.019405    0.052521   -0.134136    0.195393    0.000000
    6.2 B3u                   7.232093     0.027253   -0.014288   -0.035006    0.229062   -0.765806    0.000000
                              4.054870     0.284778   -0.054527   -0.455577    0.752239   -1.206017    0.000000
                              2.122089     0.427632   -0.116454   -0.368306    0.205535    2.424444    0.000000
                              1.092769     0.309937   -0.060236    0.100392   -1.692910   -0.079387    0.000000
                              0.548240     0.088535   -0.023928    1.076652    0.436295   -2.325449    0.000000
                              0.238886     0.006427    0.347869   -0.045326    1.219514    2.129133    0.000000
                              0.084667     0.000708    0.522626   -0.703186   -0.945516   -0.733585    0.000000
                              0.038921     0.000186    0.276471    0.004580   -0.062232   -0.180444    1.000000
    7.2 B3u   1  2px          2.987946     1.000000
    8.2 B3u   1  2px          9.332016     1.000000
    9.2 B3u   1  4f1+         0.659980     1.000000
   10.2 B3u   1  4f3+         0.659980     1.000000
   11.2 B3u   1  4f1+         2.182234     1.000000
   12.2 B3u   1  4f3+         2.182234     1.000000
   13.2 B3u   1  4f1+         7.215589     1.000000
   14.2 B3u   1  4f3+         7.215589     1.000000
   15.2 B3u   1  4f1+         4.238774     1.000000
   16.2 B3u   1  4f3+         4.238774     1.000000
   17.2 B3u   1  6h1+         3.361535     1.000000
   18.2 B3u   1  6h3+         3.361535     1.000000
   19.2 B3u   1  6h5+         3.361535     1.000000
   20.2 B3u   1  6h1+         7.787971     1.000000
   21.2 B3u   1  6h3+         7.787971     1.000000
   22.2 B3u   1  6h5+         7.787971     1.000000
    1.3 B2u   1  2py        148.087630     0.000055    0.000027   -0.000237   -0.000260    0.000080    0.000000
    2.3 B2u                  77.452187    -0.000548   -0.000088    0.001456    0.001071   -0.000101    0.000000
    3.3 B2u                  40.915636     0.006979   -0.000773   -0.009745    0.002322   -0.006492    0.000000
    4.3 B2u                  22.575667    -0.023658    0.003345    0.037799   -0.032140    0.083129    0.000000
    5.3 B2u                  13.218268    -0.075682    0.019405    0.052521   -0.134136    0.195393    0.000000
    6.3 B2u                   7.232093     0.027253   -0.014288   -0.035006    0.229062   -0.765806    0.000000
                              4.054870     0.284778   -0.054527   -0.455577    0.752239   -1.206017    0.000000
                              2.122089     0.427632   -0.116454   -0.368306    0.205535    2.424444    0.000000
                              1.092769     0.309937   -0.060236    0.100392   -1.692910   -0.079387    0.000000
                              0.548240     0.088535   -0.023928    1.076652    0.436295   -2.325449    0.000000
                              0.238886     0.006427    0.347869   -0.045326    1.219514    2.129133    0.000000
                              0.084667     0.000708    0.522626   -0.703186   -0.945516   -0.733585    0.000000
                              0.038921     0.000186    0.276471    0.004580   -0.062232   -0.180444    1.000000
    7.3 B2u   1  2py          2.987946     1.000000
    8.3 B2u   1  2py          9.332016     1.000000
    9.3 B2u   1  4f1-         0.659980     1.000000
   10.3 B2u   1  4f3-         0.659980     1.000000
   11.3 B2u   1  4f1-         2.182234     1.000000
   12.3 B2u   1  4f3-         2.182234     1.000000
   13.3 B2u   1  4f1-         7.215589     1.000000
   14.3 B2u   1  4f3-         7.215589     1.000000
   15.3 B2u   1  4f1-         4.238774     1.000000
   16.3 B2u   1  4f3-         4.238774     1.000000
   17.3 B2u   1  6h1-         3.361535     1.000000
   18.3 B2u   1  6h3-         3.361535     1.000000
   19.3 B2u   1  6h5-         3.361535     1.000000
   20.3 B2u   1  6h1-         7.787971     1.000000
   21.3 B2u   1  6h3-         7.787971     1.000000
   22.3 B2u   1  6h5-         7.787971     1.000000
    1.4 B1g   1  3d2-       177.900125     0.000049   -0.000053    0.000079   -0.000124    0.000000
    2.4 B1g                  57.372112     0.007519   -0.008850    0.011442   -0.016602    0.000000
    3.4 B1g                  29.881432     0.036455   -0.041916    0.053972   -0.077533    0.000000
    4.4 B1g                  13.971757     0.086901   -0.104691    0.141068   -0.221826    0.000000
    5.4 B1g                   6.841152     0.180568   -0.219464    0.302294   -0.481658    0.000000
                              3.379983     0.268187   -0.283712    0.236558    0.182447    0.000000
                              1.651827     0.296756   -0.122127   -0.291311    0.945626    0.000000
                              0.799251     0.251558    0.190123   -0.581758   -0.334241    0.000000
                              0.388057     0.162319    0.376598   -0.024063   -0.761164    0.000000
                              0.191191     0.072119    0.295122    0.389387    0.136816    0.000000
                              0.093358     0.023689    0.178252    0.430833    0.600785    1.000000
    6.4 B1g   1  3d2-         4.388587     1.000000
    7.4 B1g   1  3d2-         5.303761     1.000000
    8.4 B1g   1  5g2-         1.549000     1.000000
    9.4 B1g   1  5g4-         1.549000     1.000000
   10.4 B1g   1  5g2-         5.290163     1.000000
   11.4 B1g   1  5g4-         5.290163     1.000000
   12.4 B1g   1  5g2-         7.523045     1.000000
   13.4 B1g   1  5g4-         7.523045     1.000000
    1.5 B1u   1  2pz        148.087630     0.000055    0.000027   -0.000237   -0.000260    0.000080    0.000000
    2.5 B1u                  77.452187    -0.000548   -0.000088    0.001456    0.001071   -0.000101    0.000000
    3.5 B1u                  40.915636     0.006979   -0.000773   -0.009745    0.002322   -0.006492    0.000000
    4.5 B1u                  22.575667    -0.023658    0.003345    0.037799   -0.032140    0.083129    0.000000
    5.5 B1u                  13.218268    -0.075682    0.019405    0.052521   -0.134136    0.195393    0.000000
    6.5 B1u                   7.232093     0.027253   -0.014288   -0.035006    0.229062   -0.765806    0.000000
                              4.054870     0.284778   -0.054527   -0.455577    0.752239   -1.206017    0.000000
                              2.122089     0.427632   -0.116454   -0.368306    0.205535    2.424444    0.000000
                              1.092769     0.309937   -0.060236    0.100392   -1.692910   -0.079387    0.000000
                              0.548240     0.088535   -0.023928    1.076652    0.436295   -2.325449    0.000000
                              0.238886     0.006427    0.347869   -0.045326    1.219514    2.129133    0.000000
                              0.084667     0.000708    0.522626   -0.703186   -0.945516   -0.733585    0.000000
                              0.038921     0.000186    0.276471    0.004580   -0.062232   -0.180444    1.000000
    7.5 B1u   1  2pz          2.987946     1.000000
    8.5 B1u   1  2pz          9.332016     1.000000
    9.5 B1u   1  4f0          0.659980     1.000000
   10.5 B1u   1  4f2+         0.659980     1.000000
   11.5 B1u   1  4f0          2.182234     1.000000
   12.5 B1u   1  4f2+         2.182234     1.000000
   13.5 B1u   1  4f0          7.215589     1.000000
   14.5 B1u   1  4f2+         7.215589     1.000000
   15.5 B1u   1  4f0          4.238774     1.000000
   16.5 B1u   1  4f2+         4.238774     1.000000
   17.5 B1u   1  6h2+         3.361535     1.000000
   18.5 B1u   1  6h4+         3.361535     1.000000
   19.5 B1u   1  6h0          3.361535     1.000000
   20.5 B1u   1  6h2+         7.787971     1.000000
   21.5 B1u   1  6h4+         7.787971     1.000000
   22.5 B1u   1  6h0          7.787971     1.000000
    1.6 B2g   1  3d1+       177.900125     0.000049   -0.000053    0.000079   -0.000124    0.000000
    2.6 B2g                  57.372112     0.007519   -0.008850    0.011442   -0.016602    0.000000
    3.6 B2g                  29.881432     0.036455   -0.041916    0.053972   -0.077533    0.000000
    4.6 B2g                  13.971757     0.086901   -0.104691    0.141068   -0.221826    0.000000
    5.6 B2g                   6.841152     0.180568   -0.219464    0.302294   -0.481658    0.000000
                              3.379983     0.268187   -0.283712    0.236558    0.182447    0.000000
                              1.651827     0.296756   -0.122127   -0.291311    0.945626    0.000000
                              0.799251     0.251558    0.190123   -0.581758   -0.334241    0.000000
                              0.388057     0.162319    0.376598   -0.024063   -0.761164    0.000000
                              0.191191     0.072119    0.295122    0.389387    0.136816    0.000000
                              0.093358     0.023689    0.178252    0.430833    0.600785    1.000000
    6.6 B2g   1  3d1+         4.388587     1.000000
    7.6 B2g   1  3d1+         5.303761     1.000000
    8.6 B2g   1  5g1+         1.549000     1.000000
    9.6 B2g   1  5g3+         1.549000     1.000000
   10.6 B2g   1  5g1+         5.290163     1.000000
   11.6 B2g   1  5g3+         5.290163     1.000000
   12.6 B2g   1  5g1+         7.523045     1.000000
   13.6 B2g   1  5g3+         7.523045     1.000000
    1.7 B3g   1  3d1-       177.900125     0.000049   -0.000053    0.000079   -0.000124    0.000000
    2.7 B3g                  57.372112     0.007519   -0.008850    0.011442   -0.016602    0.000000
    3.7 B3g                  29.881432     0.036455   -0.041916    0.053972   -0.077533    0.000000
    4.7 B3g                  13.971757     0.086901   -0.104691    0.141068   -0.221826    0.000000
    5.7 B3g                   6.841152     0.180568   -0.219464    0.302294   -0.481658    0.000000
                              3.379983     0.268187   -0.283712    0.236558    0.182447    0.000000
                              1.651827     0.296756   -0.122127   -0.291311    0.945626    0.000000
                              0.799251     0.251558    0.190123   -0.581758   -0.334241    0.000000
                              0.388057     0.162319    0.376598   -0.024063   -0.761164    0.000000
                              0.191191     0.072119    0.295122    0.389387    0.136816    0.000000
                              0.093358     0.023689    0.178252    0.430833    0.600785    1.000000
    6.7 B3g   1  3d1-         4.388587     1.000000
    7.7 B3g   1  3d1-         5.303761     1.000000
    8.7 B3g   1  5g1-         1.549000     1.000000
    9.7 B3g   1  5g3-         1.549000     1.000000
   10.7 B3g   1  5g1-         5.290163     1.000000
   11.7 B3g   1  5g3-         5.290163     1.000000
   12.7 B3g   1  5g1-         7.523045     1.000000
   13.7 B3g   1  5g3-         7.523045     1.000000
    1.8 Au    1  4f2-         0.659980     1.000000
    2.8 Au    1  4f2-         2.182234     1.000000
    3.8 Au    1  4f2-         7.215589     1.000000
    4.8 Au    1  4f2-         4.238774     1.000000
    5.8 Au    1  6h4-         3.361535     1.000000
    6.8 Au    1  6h2-         3.361535     1.000000
    7.8 Au    1  6h4-         7.787971     1.000000
    8.8 Au    1  6h2-         7.787971     1.000000

 NUCLEAR CHARGE:                   18
 NUMBER OF PRIMITIVE AOS:         265
 NUMBER OF SYMMETRY AOS:          202
 NUMBER OF CONTRACTIONS:          144   (  31Ag  +  22B3u +  22B2u +  13B1g +  22B1u +  13B2g +  13B3g +   8Au  )
 NUMBER OF CORE ORBITALS:           4   (   1Ag  +   1B3u +   1B2u +   0B1g +   1B1u +   0B2g +   0B3g +   0Au  )
 NUMBER OF VALENCE ORBITALS:        6   (   3Ag  +   0B3u +   0B2u +   1B1g +   0B1u +   1B2g +   1B3g +   0Au  )


 NUCLEAR REPULSION ENERGY    0.00000000

 EXTRA SYMMETRY OF AOS IN SYMMETRY 1:   1 1 1 1 1 1 1 1 2 3   2 3 2 3 2 3 2 3 2 3   2 3 4 5 6 4 5 6 4 5   6
 EXTRA SYMMETRY OF AOS IN SYMMETRY 2:   1 1 1 1 1 1 1 1 2 3   2 3 2 3 2 3 4 5 6 4   5 6
 EXTRA SYMMETRY OF AOS IN SYMMETRY 3:   1 1 1 1 1 1 1 1 2 3   2 3 2 3 2 3 4 5 6 4   5 6
 EXTRA SYMMETRY OF AOS IN SYMMETRY 4:   1 1 1 1 1 1 1 2 3 2   3 2 3
 EXTRA SYMMETRY OF AOS IN SYMMETRY 5:   1 1 1 1 1 1 1 1 2 3   2 3 2 3 2 3 4 5 6 4   5 6
 EXTRA SYMMETRY OF AOS IN SYMMETRY 6:   1 1 1 1 1 1 1 2 3 2   3 2 3
 EXTRA SYMMETRY OF AOS IN SYMMETRY 7:   1 1 1 1 1 1 1 2 3 2   3 2 3
 EXTRA SYMMETRY OF AOS IN SYMMETRY 8:   1 1 1 1 2 3 2 3

 Eigenvalues of metric

         1 0.199E-03 0.211E-02 0.211E-02 0.307E-02 0.240E-01 0.240E-01 0.496E-01 0.496E-01
         2 0.126E-02 0.402E-01 0.402E-01 0.649E-01 0.152E+00 0.380E+00 0.380E+00 0.427E+00
         3 0.126E-02 0.402E-01 0.402E-01 0.649E-01 0.152E+00 0.380E+00 0.380E+00 0.427E+00
         4 0.211E-02 0.240E-01 0.496E-01 0.648E-01 0.648E-01 0.857E+00 0.857E+00 0.999E+00
         5 0.126E-02 0.402E-01 0.402E-01 0.649E-01 0.152E+00 0.380E+00 0.380E+00 0.427E+00
         6 0.211E-02 0.240E-01 0.496E-01 0.648E-01 0.648E-01 0.857E+00 0.857E+00 0.999E+00
         7 0.211E-02 0.240E-01 0.496E-01 0.648E-01 0.648E-01 0.857E+00 0.857E+00 0.999E+00
         8 0.402E-01 0.380E+00 0.427E+00 0.427E+00 0.105E+01 0.157E+01 0.157E+01 0.253E+01


 Contracted 2-electron integrals neglected if value below      1.0D-12
 AO integral compression algorithm  1   Integral accuracy      1.0D-12

     54.002 MB (compressed) written to integral file ( 58.2%)


 NUMBER OF SORTED TWO-ELECTRON INTEGRALS:    7063297.     BUFFER LENGTH:  32768
 NUMBER OF SEGMENTS:   1  SEGMENT LENGTH:    7063297      RECORD LENGTH: 524288

 Memory used in sort:       7.62 MW

 SORT1 READ    11599838. AND WROTE     4948094. INTEGRALS IN     15 RECORDS. CPU TIME:     0.37 SEC, REAL TIME:     0.52 SEC
 SORT2 READ     4948094. AND WROTE     7063297. INTEGRALS IN    206 RECORDS. CPU TIME:     0.26 SEC, REAL TIME:     0.54 SEC

 FILE SIZES:   FILE 1:    73.6 MBYTE,  FILE 4:    62.9 MBYTE,   TOTAL:    136.5 MBYTE

 OPERATOR DM      FOR CENTER  0  COORDINATES:    0.000000    0.000000    0.000000
 OPERATOR EKIN    FOR CENTER  0  COORDINATES:    0.000000    0.000000    0.000000
 OPERATOR POT     FOR CENTER  0  COORDINATES:    0.000000    0.000000    0.000000


 **********************************************************************************************************************************
 DATASETS  * FILE   NREC   LENGTH (MB)   RECORD NAMES
              1      20       51.65       500      610      700      900      950      970     1000      129      960     1100   
                                          VAR    BASINP    GEOM    SYMINP    ZMAT    AOBASIS   BASIS     P2S    ABASIS      S 
                                         1400     1410     1420     1200     1210     1080     1600     1650     1300     1700   
                                         EKIN       V       ECP      H0       H01     AOSYM     SMH    MOLCAS    ERIS     OPER   

 PROGRAMS   *        TOTAL       INT
 CPU TIMES  *         4.31      4.18
 REAL TIME  *        16.63 SEC
 DISK USED  *       136.86 MB      
 **********************************************************************************************************************************


 PROGRAM * RHF-SCF (OPEN SHELL)       Authors: W. Meyer, H.-J. Werner


 NUMBER OF ELECTRONS:      10+    8-    SPACE SYMMETRY=6    SPIN SYMMETRY: Triplet 
 CONVERGENCE THRESHOLDS:    1.00E-05 (Density)    1.00E-07 (Energy)
 MAX. NUMBER OF ITERATIONS:       60
 INTERPOLATION TYPE:            DIIS
 INTERPOLATION STEPS:              2 (START)      1 (STEP)
 LEVEL SHIFTS:                 -0.60 (CLOSED) -0.30 (OPEN) 


 Singly occupied orbitals:      4.1       1.6
 
 Extra symmetries of mos in symmetry 1:   1   3   2   1

   Atom=NI basis=ECP10MDF_GUESS    lmin=0  lmax=2

 Orbital guess generated from atomic densities. Full valence occupancy:    4   1   1   1   1   1   1   0


 Molecular orbital dump at record        4202.2

 ITERATION    DDIFF          GRAD             ENERGY        2-EL.EN.            DIPOLE MOMENTS         DIIS   ORB.
    1      0.000D+00      0.000D+00      -167.51811880    242.228703    0.00000    0.00000    0.00000    0    start
    2      0.000D+00      0.110D+00      -167.88213307    289.436718    0.00000    0.00000    0.00000    1    diag,B
    3      0.256D-01      0.105D+00      -168.40738905    272.749630    0.00000    0.00000    0.00000    2    diag,B
    4      0.963D-02      0.121D-01      -168.41835713    271.300967    0.00000    0.00000    0.00000    3    diag,B
    5      0.343D-02      0.191D-02      -168.41998059    271.511249    0.00000    0.00000    0.00000    4    diag,B
    6      0.423D-02      0.503D-03      -168.42017747    271.652105    0.00000    0.00000    0.00000    5    diag,B
    7      0.311D-02      0.107D-03      -168.42018639    271.664503    0.00000    0.00000    0.00000    6    fixocc
    8      0.102D-02      0.270D-04      -168.42018717    271.667482    0.00000    0.00000    0.00000    7    diag,B
    9      0.196D-03      0.971D-05      -168.42018735    271.669995    0.00000    0.00000    0.00000    8    diag,B
   10      0.989D-04      0.334D-05      -168.42018738    271.670641    0.00000    0.00000    0.00000    9    orth
   11      0.164D-04      0.200D-05      -168.42018740    271.670994    0.00000    0.00000    0.00000    9    diag,B
   12      0.111D-04      0.122D-05      -168.42018741    271.671091    0.00000    0.00000    0.00000    9    diag,B
   13      0.745D-05      0.815D-06      -168.42018741    271.671105    0.00000    0.00000    0.00000    0    orth

 Final alpha occupancy:   4   1   1   1   1   1   1   0
 Final beta  occupancy:   3   1   1   1   1   0   1   0

 !RHF STATE 1.6 Energy               -168.420187407057
 Nuclear energy                         0.00000000
 One-electron energy                 -304.25573982
 Two-electron energy                  135.83555241
 Virial quotient                       -1.55169583
 !RHF STATE 1.6 Dipole moment           0.00000000     0.00000000     0.00000000
 Dipole moment /Debye                   0.00000000     0.00000000     0.00000000
 

 !RHF expec          <1.6|EKIN|1.6>   108.539434276788
 
 !RHF expec           <1.6|POT|1.6>   -23.837881841026

 ELECTRON ORBITALS
 =================


   Orb  Occ    Energy  Couls-En    Coefficients

                                   1 1s      1 1s      1 1s      1 1s      1 1s      1 1s      1 1s      1 1s      1 3d0     1 3d2+ 
                                   1 3d0     1 3d2+    1 3d0     1 3d2+    1 3d0     1 3d2+    1 3d0     1 3d2+    1 3d0     1 3d2+ 
                                   1 3d0     1 3d2+    1 5g0     1 5g4+    1 5g2+    1 5g0     1 5g4+    1 5g2+    1 5g0     1 5g4+ 
                                   1 5g2+ 

   1.1   2    -4.8255  -26.1665  1.002142  0.007499  0.004167  0.004212 -0.000075 -0.002530 -0.009706  0.008366  0.002503  0.004335
                                -0.000779 -0.001349  0.000233  0.000403  0.000393  0.000681 -0.000300 -0.000520  0.000554  0.000959
                                -0.000224 -0.000389  0.000501  0.000004 -0.000554  0.000047  0.000005 -0.000046  0.000123 -0.000000
                                -0.000138

   2.1   2    -0.4185  -15.7402 -0.005213 -0.001739  0.000946 -0.000359  0.000056 -0.000061 -0.000456  0.000401  0.500025  0.866069
                                 0.025208  0.043662  0.008857  0.015340  0.000880  0.001523 -0.001351 -0.002340 -0.000185 -0.000321
                                 0.000071  0.000123  0.001273  0.001884  0.001069  0.000326  0.000555  0.000370  0.000120  0.000136
                                 0.000046

   3.1   2    -0.4760  -15.9640 -0.000000 -0.000000  0.000000 -0.000000 -0.000000  0.000000 -0.000000  0.000000  0.866924 -0.500519
                                 0.026808 -0.015478  0.008676 -0.005009  0.000853 -0.000492 -0.004976  0.002873  0.000124 -0.000072
                                 0.000109 -0.000063  0.000911 -0.001078  0.000815  0.000277 -0.000328  0.000248  0.000065 -0.000077
                                 0.000058

   4.1   +    -0.2422   -6.5272 -0.011057  0.963911 -0.093949  0.018606  0.002194  0.035903  0.004126 -0.004530  0.000249  0.000432
                                 0.005978  0.010355  0.001923  0.003330  0.000070  0.000121  0.001940  0.003360 -0.000121 -0.000209
                                 0.000018  0.000031 -0.000391  0.000006  0.000446  0.000228 -0.000010 -0.000268 -0.000060  0.000002
                                 0.000069

   5.1   0     0.0796   -2.8643  0.472293  3.826962 -1.360467  0.623620  0.164387 -4.482613  0.864542 -0.613235 -0.000384 -0.000664
                                 0.003394  0.005879  0.001268  0.002196  0.000155  0.000269  0.000006  0.000011 -0.000221 -0.000383
                                 0.000132  0.000228 -0.000198 -0.000000  0.000221  0.000112 -0.000006 -0.000133 -0.000031  0.000001
                                 0.000035

   6.1   0     0.2679   -3.8211  0.000000  0.000000 -0.000000  0.000000  0.000000 -0.000000  0.000000 -0.000000 -0.383198  0.221239
                                -0.371355  0.214402 -0.329972  0.190510 -0.140570  0.081158  1.389105 -0.802000  0.195029 -0.112600
                                -0.135853  0.078435 -0.000117  0.000138 -0.000105 -0.000087  0.000103 -0.000077  0.000003 -0.000003
                                 0.000003

                                   1 2px     1 2px     1 2px     1 2px     1 2px     1 2px     1 2px     1 2px     1 4f1+    1 4f3+ 
                                   1 4f1+    1 4f3+    1 4f1+    1 4f3+    1 4f1+    1 4f3+    1 6h1+    1 6h3+    1 6h5+    1 6h1+ 
                                   1 6h3+    1 6h5+ 

   1.2   2    -3.1087  -22.5464  0.999818  0.024477  0.020091 -0.000265 -0.001450 -0.007418  0.000727 -0.000179 -0.002518  0.000640
                                -0.002845  0.001936 -0.001241  0.000568  0.000104  0.000394 -0.000134  0.000094  0.000003 -0.000060
                                 0.000043  0.000000

   2.2   0     0.0444   -3.7209  0.008282 -0.032320  0.045007  0.064511  0.030436  1.077493 -0.098177  0.017353  0.000869  0.001308
                                -0.000270 -0.000419 -0.000087 -0.000130  0.000028  0.000130  0.000001 -0.000000  0.000000  0.000030
                                -0.000022 -0.000000

   3.2   0     0.2197   -4.3147 -0.276399  2.241965 -0.361044 -0.366093 -0.156287 -2.221774  0.478653 -0.087590  0.001702  0.002442
                                -0.000445 -0.000682 -0.000139 -0.000208  0.000013  0.000176 -0.000001  0.000002  0.000001  0.000056
                                -0.000041 -0.000000

                                   1 2py     1 2py     1 2py     1 2py     1 2py     1 2py     1 2py     1 2py     1 4f1-    1 4f3- 
                                   1 4f1-    1 4f3-    1 4f1-    1 4f3-    1 4f1-    1 4f3-    1 6h1-    1 6h3-    1 6h5-    1 6h1- 
                                   1 6h3-    1 6h5- 

   1.3   2    -3.1012  -22.5278  1.000624  0.027314  0.021455  0.000331 -0.001666 -0.008215 -0.000281  0.000114  0.000498  0.000644
                                 0.001501  0.001937  0.000441  0.000570  0.000303  0.000391 -0.000042  0.000099  0.000003 -0.000020
                                 0.000044  0.000000

   2.3   0     0.0487   -3.6334  0.010877 -0.088312  0.050177  0.070178  0.032917  1.129642 -0.105795  0.018719  0.000941  0.001214
                                -0.000312 -0.000402 -0.000096 -0.000124  0.000098  0.000126  0.000001 -0.000001  0.000000  0.000009
                                -0.000021 -0.000000

   3.3   0     0.2276   -4.3333 -0.289023  2.248114 -0.371184 -0.375614 -0.160241 -2.208875  0.490889 -0.089902  0.001860  0.002401
                                -0.000535 -0.000691 -0.000161 -0.000208  0.000140  0.000181  0.000001 -0.000000  0.000001  0.000018
                                -0.000040 -0.000000

                                   1 3d2-    1 3d2-    1 3d2-    1 3d2-    1 3d2-    1 3d2-    1 3d2-    1 5g2-    1 5g4-    1 5g2- 
                                   1 5g4-    1 5g2-    1 5g4- 

   1.4   2    -0.4331  -15.7997  1.000440  0.045372  0.015707  0.001552 -0.003749 -0.000236  0.000135  0.000509  0.002171  0.000201
                                 0.000645  0.000009  0.000156

   2.4   0     0.2713   -3.8431 -0.459201 -0.440305 -0.388918 -0.165047  1.616304  0.228586 -0.159180 -0.000239 -0.000312 -0.000180
                                -0.000211  0.000008  0.000004

   3.4   0     0.9455   -5.4943  0.827162  2.149256  1.755343  0.681641 -2.627186 -0.848325  0.580807 -0.000201 -0.000241 -0.000475
                                -0.000575  0.000052  0.000061

                                   1 2pz     1 2pz     1 2pz     1 2pz     1 2pz     1 2pz     1 2pz     1 2pz     1 4f0     1 4f2+ 
                                   1 4f0     1 4f2+    1 4f0     1 4f2+    1 4f0     1 4f2+    1 6h2+    1 6h4+    1 6h0     1 6h2+ 
                                   1 6h4+    1 6h0  

   1.5   2    -3.1087  -22.5464  0.999818  0.024477  0.020091 -0.000265 -0.001450 -0.007418  0.000727 -0.000179  0.002048 -0.001599
                                 0.003273 -0.001064  0.001210 -0.000633  0.000248  0.000323  0.000120 -0.000001 -0.000112  0.000053
                                 0.000000 -0.000052

   2.5   0     0.0444   -3.7209  0.008282 -0.032320  0.045007  0.064511  0.030436  1.077493 -0.098177  0.017353  0.000502  0.001488
                                -0.000166 -0.000470 -0.000049 -0.000148  0.000086  0.000102 -0.000001  0.000001  0.000001 -0.000027
                                -0.000000  0.000026

   3.5   0     0.2197   -4.3147 -0.276399  2.241965 -0.361044 -0.366093 -0.156287 -2.221774  0.478653 -0.087590  0.000888  0.002840
                                -0.000267 -0.000769 -0.000079 -0.000237  0.000131  0.000118  0.000001  0.000001 -0.000001 -0.000050
                                -0.000001  0.000048

                                   1 3d1+    1 3d1+    1 3d1+    1 3d1+    1 3d1+    1 3d1+    1 3d1+    1 5g1+    1 5g3+    1 5g1+ 
                                   1 5g3+    1 5g1+    1 5g3+ 

   1.6   +    -0.5328  -16.1321  1.000946  0.017260  0.005951  0.001422 -0.006779  0.000643  0.000232  0.001022  0.002705  0.000377
                                 0.000997  0.000052  0.000137

   2.6   0     0.2659   -3.8084 -0.428878 -0.418095 -0.374320 -0.160266  1.593025  0.222624 -0.155134 -0.000106 -0.000282 -0.000089
                                -0.000235  0.000005  0.000014

   3.6   0     0.9257   -5.4175  0.842690  2.146733  1.738889  0.671141 -2.620459 -0.833271  0.570215 -0.000080 -0.000211 -0.000245
                                -0.000647  0.000029  0.000077

                                   1 3d1-    1 3d1-    1 3d1-    1 3d1-    1 3d1-    1 3d1-    1 3d1-    1 5g1-    1 5g3-    1 5g1- 
                                   1 5g3-    1 5g1-    1 5g3- 

   1.7   2    -0.4331  -15.7997  1.000440  0.045372  0.015707  0.001552 -0.003749 -0.000236  0.000135  0.001851  0.001244  0.000532
                                 0.000416  0.000143  0.000064

   2.7   0     0.2713   -3.8431 -0.459201 -0.440305 -0.388918 -0.165047  1.616304  0.228586 -0.159180 -0.000207 -0.000334 -0.000134
                                -0.000243  0.000001  0.000009

   3.7   0     0.9455   -5.4943  0.827162  2.149256  1.755343  0.681641 -2.627186 -0.848325  0.580807 -0.000154 -0.000273 -0.000370
                                -0.000648  0.000039  0.000070

                                   1 4f2-    1 4f2-    1 4f2-    1 4f2-    1 6h4-    1 6h2-    1 6h4-    1 6h2- 

   1.8   0     2.2402   -5.3389  1.034752 -0.120294 -0.032113  0.123721  0.000821  0.000474 -0.000131 -0.000075

   2.8   0     6.7616   -1.2440 -0.567898  1.442045  0.270670 -0.529170  0.002945  0.001700 -0.000158 -0.000091

 HOMO      4.1    -0.242220 =      -6.5911eV
 LUMO      2.2     0.044433 =       1.2091eV
 LUMO-HOMO         0.286653 =       7.8002eV


 **********************************************************************************************************************************
 DATASETS  * FILE   NREC   LENGTH (MB)   RECORD NAMES
              1      20       51.65       500      610      700      900      950      970     1000      129      960     1100   
                                          VAR    BASINP    GEOM    SYMINP    ZMAT    AOBASIS   BASIS     P2S    ABASIS      S 
                                         1400     1410     1420     1200     1210     1080     1600     1650     1300     1700   
                                         EKIN       V       ECP      H0       H01     AOSYM     SMH    MOLCAS    ERIS     OPER   

              2       4        2.86       700     1000      520     4202   
                                         GEOM     BASIS   MCVARS     RHF  

 PROGRAMS   *        TOTAL       RHF       INT
 CPU TIMES  *         4.78      0.47      4.18
 REAL TIME  *        17.44 SEC
 DISK USED  *       136.86 MB      
 **********************************************************************************************************************************


 PROGRAM * POP (Mulliken population analysis)

 
 Density matrix read from record         4202.2  Type=RHF/CHARGE (state 1.6)
 
 Population analysis by basis function type

 Unique atom        s        p        d        f        g    Total    Charge
   1  NI      2.99974  5.99984  9.00019  0.00016  0.00007 18.00000  + 0.00000


 **********************************************************************************************************************************
 DATASETS  * FILE   NREC   LENGTH (MB)   RECORD NAMES
              1      20       51.65       500      610      700      900      950      970     1000      129      960     1100   
                                          VAR    BASINP    GEOM    SYMINP    ZMAT    AOBASIS   BASIS     P2S    ABASIS      S 
                                         1400     1410     1420     1200     1210     1080     1600     1650     1300     1700   
                                         EKIN       V       ECP      H0       H01     AOSYM     SMH    MOLCAS    ERIS     OPER   

              2       4        2.86       700     1000      520     4202   
                                         GEOM     BASIS   MCVARS     RHF  

 PROGRAMS   *        TOTAL       POP       RHF       INT
 CPU TIMES  *         4.78      0.00      0.47      4.18
 REAL TIME  *        17.46 SEC
 DISK USED  *       136.86 MB      
 **********************************************************************************************************************************


 PROGRAM * MULTI (Direct Multiconfiguration SCF)       Authors: P.J. Knowles, H.-J. Werner (1984)     S.T. Elbert (1988)


 Number of closed-shell orbitals:   4 (   1   1   1   0   1   0   0   0 )
 Number of active  orbitals:        6 (   3   0   0   1   0   1   1   0 )
 Number of external orbitals:     134 (  27  21  21  12  21  12  12   8 )

 State symmetry 1

 Orbital occupancy restrictions for symmetry 1
  1      1       002000                          

 Number of electrons:    10    Spin symmetry=Triplet   Space symmetry=1
 Number of states:        2
 Number of CSFs:          2

 State symmetry 2

 Orbital occupancy restrictions for symmetry 4
  1      1       002000                          

 Number of electrons:    10    Spin symmetry=Triplet   Space symmetry=4
 Number of states:        1
 Number of CSFs:          1

 State symmetry 3

 Orbital occupancy restrictions for symmetry 6
  1      1       002000                          

 Number of electrons:    10    Spin symmetry=Triplet   Space symmetry=6
 Number of states:        1
 Number of CSFs:          1

 State symmetry 4

 Orbital occupancy restrictions for symmetry 7
  1      1       002000                          

 Number of electrons:    10    Spin symmetry=Triplet   Space symmetry=7
 Number of states:        1
 Number of CSFs:          1
 
 Maximum number of shells:             3
 Maximum number of spin couplings:     9

 Storage for configuration lists      85, coupling coefficients    698, address lists    340

 Molecular orbitals read from record     4202.2  Type=RHF/CANONICAL (state 1.6)
 *** IN SYMMETRY 1 ORBITAL  1 SYMMETRY CONTAMINATION OF 0.143D-01 HAS BEEN REMOVED
 *** IN SYMMETRY 1 ORBITAL  2 SYMMETRY CONTAMINATION OF 0.372D+00 HAS BEEN REMOVED
 *** IN SYMMETRY 1 ORBITAL  3 SYMMETRY CONTAMINATION OF 0.368D+00 HAS BEEN REMOVED
 *** IN SYMMETRY 1 ORBITAL  4 SYMMETRY CONTAMINATION OF 0.254D-01 HAS BEEN REMOVED

 EXTRA SYMMETRY OF MOS IN SYMMETRY 1:   1 3 2 1 1 2 3 1 2 3   1 2 3 1 6 5 4 2 3 1   2 3 6 5 4 2 3 6 5 4   1
 *** IN SYMMETRY 2 ORBITAL  1 SYMMETRY CONTAMINATION OF 0.994D-02 HAS BEEN REMOVED
 EXTRA SYMMETRY OF MOS IN SYMMETRY 2:   1 1 1 1 2 3 1 2 3 1   2 3 4 5 6 1 2 3 4 5   6 1
 *** IN SYMMETRY 3 ORBITAL  1 SYMMETRY CONTAMINATION OF 0.609D-02 HAS BEEN REMOVED
 EXTRA SYMMETRY OF MOS IN SYMMETRY 3:   1 1 1 1 2 3 1 2 3 1   2 3 5 6 4 1 2 3 5 6   4 1
 *** IN SYMMETRY 4 ORBITAL  1 SYMMETRY CONTAMINATION OF 0.345D-02 HAS BEEN REMOVED
 EXTRA SYMMETRY OF MOS IN SYMMETRY 4:   1 1 1 1 2 3 1 1 2 3   1 2 3
 *** IN SYMMETRY 5 ORBITAL  1 SYMMETRY CONTAMINATION OF 0.101D-01 HAS BEEN REMOVED
 EXTRA SYMMETRY OF MOS IN SYMMETRY 5:   1 1 1 1 3 2 1 3 2 1   3 2 4 5 6 1 3 2 4 5   6 1
 *** IN SYMMETRY 6 ORBITAL  1 SYMMETRY CONTAMINATION OF 0.509D-02 HAS BEEN REMOVED
 EXTRA SYMMETRY OF MOS IN SYMMETRY 6:   1 1 1 1 2 3 1 1 2 3   1 2 3
 *** IN SYMMETRY 7 ORBITAL  1 SYMMETRY CONTAMINATION OF 0.397D-02 HAS BEEN REMOVED
 EXTRA SYMMETRY OF MOS IN SYMMETRY 7:   1 1 1 1 3 2 1 1 3 2   1 3 2
 EXTRA SYMMETRY OF MOS IN SYMMETRY 8:   1 1 1 3 2 1 3 2

 Wavefunction dump at record             5202.2

 Convergence thresholds  0.10E-01 (gradient)  0.10E-05 (energy)  0.10E-02 (step length)

 Weight factors for state symmetry  1:    0.20000   0.20000
 Weight factors for state symmetry  2:    0.20000
 Weight factors for state symmetry  3:    0.20000
 Weight factors for state symmetry  4:    0.20000

 Eigenvalues of redundancy matrix
   1-  3    0.000000    3.000000    4.000000

 Non-redundant active-active orbital rotations:
     1  2  3  4  5
  2   
  3  +  +
  4         
  5            
  6               

 Number of orbital rotations:      212   (     3 Core/Active     90 Core/Virtual   2 Active/Active    117 Active/Virtual)
 Total number of variables:        219


 ITER. MIC  NCI  NEG     ENERGY(VAR)     ENERGY(PROJ)   ENERGY CHANGE     GRAD(0)  GRAD(ORB)   GRAD(CI)     STEP       TIME

   1   26   28    0    -168.41551814    -168.41694615   -0.00142800    0.06491161 0.00000000 0.00000000  0.33D-01      0.09
   2   28   20    0    -168.41694822    -168.41694832   -0.00000011    0.00061700 0.00000000 0.00000000  0.54D-03      0.20
   3   26   20    0    -168.41694832    -168.41694832    0.00000000    0.00000005 0.00000000 0.00000000  0.32D-07      0.29

 ** WVFN ****  CONVERGENCE REACHED, FINAL GRADIENT:  0.41D-10



 Results for state 1.1
 =====================

 !MCSCF STATE 1.1 Energy             -168.416948322962
 Nuclear energy                         0.00000000
 Kinetic energy                       108.53367058
 One electron energy                 -304.26246803
 Two electron energy                  135.84551971
 Virial ratio                           2.55174839

 !MCSCF STATE 1.1 Dipole moment         0.00000000     0.00000000     0.00000000
 Dipole moment /Debye                   0.00000000     0.00000000     0.00000000

 Results for state 2.1
 =====================

 !MCSCF STATE 2.1 Energy             -168.416948322962
 Nuclear energy                         0.00000000
 Kinetic energy                       108.53367058
 One electron energy                 -304.26246803
 Two electron energy                  135.84551971
 Virial ratio                           2.55174839

 !MCSCF STATE 2.1 Dipole moment         0.00000000     0.00000000     0.00000000
 Dipole moment /Debye                   0.00000000     0.00000000     0.00000000



 Results for state 1.4
 =====================

 !MCSCF STATE 1.4 Energy             -168.416948322999
 Nuclear energy                         0.00000000
 Kinetic energy                       108.53367058
 One electron energy                 -304.26246803
 Two electron energy                  135.84551971
 Virial ratio                           2.55174839

 !MCSCF STATE 1.4 Dipole moment         0.00000000     0.00000000     0.00000000
 Dipole moment /Debye                   0.00000000     0.00000000     0.00000000



 Results for state 1.6
 =====================

 !MCSCF STATE 1.6 Energy             -168.416948322999
 Nuclear energy                         0.00000000
 Kinetic energy                       108.53367058
 One electron energy                 -304.26246803
 Two electron energy                  135.84551971
 Virial ratio                           2.55174839

 !MCSCF STATE 1.6 Dipole moment         0.00000000     0.00000000     0.00000000
 Dipole moment /Debye                   0.00000000     0.00000000     0.00000000



 Results for state 1.7
 =====================

 !MCSCF STATE 1.7 Energy             -168.416948322999
 Nuclear energy                         0.00000000
 Kinetic energy                       108.53367058
 One electron energy                 -304.26246803
 Two electron energy                  135.84551971
 Virial ratio                           2.55174839

 !MCSCF STATE 1.7 Dipole moment         0.00000000     0.00000000     0.00000000
 Dipole moment /Debye                   0.00000000     0.00000000     0.00000000

 State-averaged charge density matrix saved on record  5202.2 (density set 1)

 !MCSCF expec        <1.1|EKIN|1.1>   108.533670582873
 !MCSCF expec        <2.1|EKIN|2.1>   108.533670582874
 !MCSCF expec        <1.4|EKIN|1.4>   108.533670582874
 !MCSCF expec        <1.6|EKIN|1.6>   108.533670582874
 !MCSCF expec        <1.7|EKIN|1.7>   108.533670582874

 !MCSCF expec         <1.1|POT|1.1>   -23.837973003050
 !MCSCF expec         <2.1|POT|2.1>   -23.837973003050
 !MCSCF expec         <1.4|POT|1.4>   -23.837973003050
 !MCSCF expec         <1.6|POT|1.6>   -23.837973003050
 !MCSCF expec         <1.7|POT|1.7>   -23.837973003050


 NATURAL ORBITALS (state averaged)
 =================================

   Orb     Occ        Energy       Coefficients

                                   1 1s      1 1s      1 1s      1 1s      1 1s      1 1s      1 1s      1 1s      1 3d0     1 3d2+ 
                                   1 3d0     1 3d2+    1 3d0     1 3d2+    1 3d0     1 3d2+    1 3d0     1 3d2+    1 3d0     1 3d2+ 
                                   1 3d0     1 3d2+    1 5g0     1 5g4+    1 5g2+    1 5g0     1 5g4+    1 5g2+    1 5g0     1 5g4+ 
                                   1 5g2+ 

   1.1  2.00000    -4.825150     1.002168  0.007442  0.004172  0.004215 -0.000070 -0.002549 -0.009736  0.008392  0.000000  0.000000
                                 0.000000  0.000000  0.000000  0.000000  0.000000  0.000000  0.000000  0.000000  0.000000  0.000000
                                 0.000000  0.000000  0.000000  0.000000  0.000000  0.000000  0.000000  0.000000  0.000000  0.000000
                                 0.000000

   2.1  1.80000    -0.361442     0.000000  0.000000  0.000000  0.000000  0.000000  0.000000  0.000000  0.000000  1.000719  0.000000
                                 0.040431  0.000000  0.013887  0.000000  0.001446  0.000000 -0.004662  0.000000 -0.000089  0.000000
                                 0.000141  0.000000  0.000000  0.000000  0.000000  0.000000  0.000000  0.000000  0.000000  0.000000
                                 0.000000

   3.1  1.80000    -0.361442     0.000000  0.000000  0.000000  0.000000  0.000000  0.000000  0.000000  0.000000  0.000000  1.000719
                                 0.000000  0.040431  0.000000  0.013887  0.000000  0.001446  0.000000 -0.004662  0.000000 -0.000089
                                 0.000000  0.000141  0.000000  0.000000  0.000000  0.000000  0.000000  0.000000  0.000000  0.000000
                                 0.000000

   4.1  1.00000    -0.101539    -0.011018  0.963959 -0.094076  0.018551  0.002181  0.035977  0.004124 -0.004530  0.000000  0.000000
                                 0.000000  0.000000  0.000000  0.000000  0.000000  0.000000  0.000000  0.000000  0.000000  0.000000
                                 0.000000  0.000000  0.000000  0.000000  0.000000  0.000000  0.000000  0.000000  0.000000  0.000000
                                 0.000000

                                   1 2px     1 2px     1 2px     1 2px     1 2px     1 2px     1 2px     1 2px     1 4f1+    1 4f3+ 
                                   1 4f1+    1 4f3+    1 4f1+    1 4f3+    1 4f1+    1 4f3+    1 6h1+    1 6h3+    1 6h5+    1 6h1+ 
                                   1 6h3+    1 6h5+ 

   1.2  2.00000    -3.105786     1.000097  0.025430  0.020551 -0.000061 -0.001524 -0.007685  0.000397 -0.000083  0.000000  0.000000
                                 0.000000  0.000000  0.000000  0.000000  0.000000  0.000000  0.000000  0.000000  0.000000  0.000000
                                 0.000000  0.000000

                                   1 2py     1 2py     1 2py     1 2py     1 2py     1 2py     1 2py     1 2py     1 4f1-    1 4f3- 
                                   1 4f1-    1 4f3-    1 4f1-    1 4f3-    1 4f1-    1 4f3-    1 6h1-    1 6h3-    1 6h5-    1 6h1- 
                                   1 6h3-    1 6h5- 

   1.3  2.00000    -3.105786     1.000097  0.025430  0.020551 -0.000061 -0.001524 -0.007685  0.000397 -0.000083  0.000000  0.000000
                                 0.000000  0.000000  0.000000  0.000000  0.000000  0.000000  0.000000  0.000000  0.000000  0.000000
                                 0.000000  0.000000

                                   1 3d2-    1 3d2-    1 3d2-    1 3d2-    1 3d2-    1 3d2-    1 3d2-    1 5g2-    1 5g4-    1 5g2- 
                                   1 5g4-    1 5g2-    1 5g4- 

   1.4  1.80000    -0.361442     1.000719  0.040431  0.013887  0.001446 -0.004662 -0.000089  0.000141  0.000000  0.000000  0.000000
                                 0.000000  0.000000  0.000000

                                   1 2pz     1 2pz     1 2pz     1 2pz     1 2pz     1 2pz     1 2pz     1 2pz     1 4f0     1 4f2+ 
                                   1 4f0     1 4f2+    1 4f0     1 4f2+    1 4f0     1 4f2+    1 6h2+    1 6h4+    1 6h0     1 6h2+ 
                                   1 6h4+    1 6h0  

   1.5  2.00000    -3.105786     1.000097  0.025430  0.020551 -0.000061 -0.001524 -0.007685  0.000397 -0.000083  0.000000  0.000000
                                 0.000000  0.000000  0.000000  0.000000  0.000000  0.000000  0.000000  0.000000  0.000000  0.000000
                                 0.000000  0.000000

                                   1 3d1+    1 3d1+    1 3d1+    1 3d1+    1 3d1+    1 3d1+    1 3d1+    1 5g1+    1 5g3+    1 5g1+ 
                                   1 5g3+    1 5g1+    1 5g3+ 

   1.6  1.80000    -0.361442     1.000719  0.040431  0.013887  0.001446 -0.004662 -0.000089  0.000141  0.000000  0.000000  0.000000
                                 0.000000  0.000000  0.000000

                                   1 3d1-    1 3d1-    1 3d1-    1 3d1-    1 3d1-    1 3d1-    1 3d1-    1 5g1-    1 5g3-    1 5g1- 
                                   1 5g3-    1 5g1-    1 5g3- 

   1.7  1.80000    -0.361442     1.000719  0.040431  0.013887  0.001446 -0.004662 -0.000089  0.000141  0.000000  0.000000  0.000000
                                 0.000000  0.000000  0.000000
 

 EXTRA SYMMETRY OF MOS IN SYMMETRY 1:   1 2 3 1 1 3 2 1 3 2   1 3 2 1 4 6 5 3 2 1   2 3 4 6 5 3 2 4 6 5   1
 EXTRA SYMMETRY OF MOS IN SYMMETRY 2:   1 1 1 1 3 2 1 3 2 1   2 3 5 4 6 1 3 2 5 4   6 1
 EXTRA SYMMETRY OF MOS IN SYMMETRY 3:   1 1 1 1 3 2 1 3 2 1   2 3 5 4 6 1 3 2 6 5   4 1
 EXTRA SYMMETRY OF MOS IN SYMMETRY 4:   1 1 1 1 2 3 1 1 2 3   1 3 2
 EXTRA SYMMETRY OF MOS IN SYMMETRY 5:   1 1 1 1 3 2 1 3 2 1   3 2 6 4 5 1 3 2 6 4   5 1
 EXTRA SYMMETRY OF MOS IN SYMMETRY 7:   1 1 1 1 2 3 1 1 2 3   1 2 3

 Natural orbital dump (state averaged) at molpro section  5202.2    (Orbital set 2)


 CI vector for state symmetry 1
 ==============================

 2// 2 2 2          1.0000000   0.0000000
 /2/ 2 2 2          0.0000000   1.0000000

 TOTAL ENERGIES                      -168.41694832  -168.41694832

 CI vector for state symmetry 2
 ==============================

 22/ / 2 2          1.0000000

 TOTAL ENERGIES                      -168.41694832

 CI vector for state symmetry 3
 ==============================

 22/ 2 / 2          1.0000000

 TOTAL ENERGIES                      -168.41694832

 CI vector for state symmetry 4
 ==============================

 22/ 2 2 /          1.0000000

 TOTAL ENERGIES                      -168.41694832



 **********************************************************************************************************************************
 DATASETS  * FILE   NREC   LENGTH (MB)   RECORD NAMES
              1      21       53.48       500      610      700      900      950      970     1000      129      960     1100   
                                          VAR    BASINP    GEOM    SYMINP    ZMAT    AOBASIS   BASIS     P2S    ABASIS      S 
                                         1400     1410     1420     1200     1210     1080     1600     1650     1300     1700   
                                         EKIN       V       ECP      H0       H01     AOSYM     SMH    MOLCAS    ERIS     OPER   
                                         1380   
                                         JKOP   

              2       5        5.47       700     1000      520     4202     5202   
                                         GEOM     BASIS   MCVARS     RHF     MCSCF   

 PROGRAMS   *        TOTAL     MULTI       POP       RHF       INT
 CPU TIMES  *         5.24      0.45      0.00      0.47      4.18
 REAL TIME  *        19.32 SEC
 DISK USED  *       136.86 MB      
 **********************************************************************************************************************************


 PROGRAM * RHF-SCF (OPEN SHELL)       Authors: W. Meyer, H.-J. Werner


 NUMBER OF ELECTRONS:      10+    8-    SPACE SYMMETRY=6    SPIN SYMMETRY: Triplet 
 CONVERGENCE THRESHOLDS:    1.00E-05 (Density)    1.00E-07 (Energy)
 MAX. NUMBER OF ITERATIONS:        0
 INTERPOLATION TYPE:            DIIS
 INTERPOLATION STEPS:              2 (START)      1 (STEP)
 LEVEL SHIFTS:                 -0.60 (CLOSED) -0.30 (OPEN) 


 Singly occupied orbitals:      4.1       1.6
 Molecular orbitals read from record     5202.2  Type=MCSCF/NATURAL (state averaged)

 Molecular orbital dump at record        2101.2

 ITERATION    DDIFF          GRAD             ENERGY        2-EL.EN.            DIPOLE MOMENTS         DIIS   ORB.
    1      0.000D+00      0.000D+00      -168.41694832    271.691039    0.00000    0.00000    0.00000    0    start

 Final alpha occupancy:   4   1   1   1   1   1   1   0
 Final beta  occupancy:   3   1   1   1   1   0   1   0

 !RHF STATE 1.6 Energy               -168.416948323800
 Nuclear energy                         0.00000000
 One-electron energy                 -304.26246803
 Two-electron energy                  135.84551971
 Virial quotient                       -1.55174839
 !RHF STATE 1.6 Dipole moment           0.00000000     0.00000000     0.00000000
 Dipole moment /Debye                   0.00000000     0.00000000     0.00000000
 

 !RHF expec          <1.6|EKIN|1.6>   108.533670582874
 
 !RHF expec           <1.6|POT|1.6>   -23.837973003050

 ELECTRON ORBITALS
 =================


   Orb  Occ    Energy  Couls-En    Coefficients

                                   1 1s      1 1s      1 1s      1 1s      1 1s      1 1s      1 1s      1 1s      1 3d0     1 3d2+ 
                                   1 3d0     1 3d2+    1 3d0     1 3d2+    1 3d0     1 3d2+    1 3d0     1 3d2+    1 3d0     1 3d2+ 
                                   1 3d0     1 3d2+    1 5g0     1 5g4+    1 5g2+    1 5g0     1 5g4+    1 5g2+    1 5g0     1 5g4+ 
                                   1 5g2+ 

   1.1   2    -4.8251  -26.1664  1.002168  0.007442  0.004172  0.004215 -0.000070 -0.002549 -0.009736  0.008392  0.000000  0.000000
                                 0.000000  0.000000  0.000000  0.000000  0.000000  0.000000  0.000000  0.000000  0.000000  0.000000
                                 0.000000  0.000000  0.000000  0.000000  0.000000  0.000000  0.000000  0.000000  0.000000  0.000000
                                 0.000000

   2.1   2    -0.3614  -15.7715  0.000000  0.000000  0.000000  0.000000  0.000000  0.000000  0.000000  0.000000  1.000719  0.000000
                                 0.040431  0.000000  0.013887  0.000000  0.001446  0.000000 -0.004662  0.000000 -0.000089  0.000000
                                 0.000141  0.000000  0.000000  0.000000  0.000000  0.000000  0.000000  0.000000  0.000000  0.000000
                                 0.000000

   3.1   2    -0.3614  -15.7715  0.000000  0.000000  0.000000  0.000000  0.000000  0.000000  0.000000  0.000000  0.000000  1.000719
                                 0.000000  0.040431  0.000000  0.013887  0.000000  0.001446  0.000000 -0.004662  0.000000 -0.000089
                                 0.000000  0.000141  0.000000  0.000000  0.000000  0.000000  0.000000  0.000000  0.000000  0.000000
                                 0.000000

   4.1   +    -0.1015   -6.3855 -0.011018  0.963959 -0.094076  0.018551  0.002181  0.035977  0.004124 -0.004530  0.000000  0.000000
                                 0.000000  0.000000  0.000000  0.000000  0.000000  0.000000  0.000000  0.000000  0.000000  0.000000
                                 0.000000  0.000000  0.000000  0.000000  0.000000  0.000000  0.000000  0.000000  0.000000  0.000000
                                 0.000000

                                   1 2px     1 2px     1 2px     1 2px     1 2px     1 2px     1 2px     1 2px     1 4f1+    1 4f3+ 
                                   1 4f1+    1 4f3+    1 4f1+    1 4f3+    1 4f1+    1 4f3+    1 6h1+    1 6h3+    1 6h5+    1 6h1+ 
                                   1 6h3+    1 6h5+ 

   1.2   2    -3.1058  -22.5400  1.000097  0.025430  0.020551 -0.000061 -0.001524 -0.007685  0.000397 -0.000083  0.000000  0.000000
                                 0.000000  0.000000  0.000000  0.000000  0.000000  0.000000  0.000000  0.000000  0.000000  0.000000
                                 0.000000  0.000000

                                   1 2py     1 2py     1 2py     1 2py     1 2py     1 2py     1 2py     1 2py     1 4f1-    1 4f3- 
                                   1 4f1-    1 4f3-    1 4f1-    1 4f3-    1 4f1-    1 4f3-    1 6h1-    1 6h3-    1 6h5-    1 6h1- 
                                   1 6h3-    1 6h5- 

   1.3   2    -3.1058  -22.5400  1.000097  0.025430  0.020551 -0.000061 -0.001524 -0.007685  0.000397 -0.000083  0.000000  0.000000
                                 0.000000  0.000000  0.000000  0.000000  0.000000  0.000000  0.000000  0.000000  0.000000  0.000000
                                 0.000000  0.000000

                                   1 3d2-    1 3d2-    1 3d2-    1 3d2-    1 3d2-    1 3d2-    1 3d2-    1 5g2-    1 5g4-    1 5g2- 
                                   1 5g4-    1 5g2-    1 5g4- 

   1.4   2    -0.3614  -15.7715  1.000719  0.040431  0.013887  0.001446 -0.004662 -0.000089  0.000141  0.000000  0.000000  0.000000
                                 0.000000  0.000000  0.000000

                                   1 2pz     1 2pz     1 2pz     1 2pz     1 2pz     1 2pz     1 2pz     1 2pz     1 4f0     1 4f2+ 
                                   1 4f0     1 4f2+    1 4f0     1 4f2+    1 4f0     1 4f2+    1 6h2+    1 6h4+    1 6h0     1 6h2+ 
                                   1 6h4+    1 6h0  

   1.5   2    -3.1058  -22.5400  1.000097  0.025430  0.020551 -0.000061 -0.001524 -0.007685  0.000397 -0.000083  0.000000  0.000000
                                 0.000000  0.000000  0.000000  0.000000  0.000000  0.000000  0.000000  0.000000  0.000000  0.000000
                                 0.000000  0.000000

                                   1 3d1+    1 3d1+    1 3d1+    1 3d1+    1 3d1+    1 3d1+    1 3d1+    1 5g1+    1 5g3+    1 5g1+ 
                                   1 5g3+    1 5g1+    1 5g3+ 

   1.6   +    -0.3614  -15.7715  1.000719  0.040431  0.013887  0.001446 -0.004662 -0.000089  0.000141  0.000000  0.000000  0.000000
                                 0.000000  0.000000  0.000000

                                   1 3d1-    1 3d1-    1 3d1-    1 3d1-    1 3d1-    1 3d1-    1 3d1-    1 5g1-    1 5g3-    1 5g1- 
                                   1 5g3-    1 5g1-    1 5g3- 

   1.7   2    -0.3614  -15.7715  1.000719  0.040431  0.013887  0.001446 -0.004662 -0.000089  0.000141  0.000000  0.000000  0.000000
                                 0.000000  0.000000  0.000000

 HOMO      4.1    -0.101539 =      -2.7630eV
 LUMO      2.2     0.061108 =       1.6628eV
 LUMO-HOMO         0.162647 =       4.4259eV


 **********************************************************************************************************************************
 DATASETS  * FILE   NREC   LENGTH (MB)   RECORD NAMES
              1      21       53.48       500      610      700      900      950      970     1000      129      960     1100   
                                          VAR    BASINP    GEOM    SYMINP    ZMAT    AOBASIS   BASIS     P2S    ABASIS      S 
                                         1400     1410     1420     1200     1210     1080     1600     1650     1300     1700   
                                         EKIN       V       ECP      H0       H01     AOSYM     SMH    MOLCAS    ERIS     OPER   
                                         1380   
                                         JKOP   

              2       6        8.13       700     1000      520     4202     5202     2101   
                                         GEOM     BASIS   MCVARS     RHF     MCSCF     RHF  

 PROGRAMS   *        TOTAL       RHF     MULTI       POP       RHF       INT
 CPU TIMES  *         5.31      0.06      0.45      0.00      0.47      4.18
 REAL TIME  *        19.48 SEC
 DISK USED  *       136.86 MB      
 **********************************************************************************************************************************
 SETTING SCF(I)         =      -168.41694832  AU                              
 SETTING _CC_NORM_MAX   =         2.00000000                                  


 PROGRAM * CCSD (Unrestricted open-shell coupled cluster)     Authors: C. Hampel, H.-J. Werner, 1991, M. Deegan, P.J. Knowles, 1992


 Convergence thresholds:  THRVAR = 1.00D-08  THRDEN = 1.00D-06

 CCSD(T)     terms to be evaluated (factor= 1.000)


 Number of closed-shell orbitals:   8 (   3   1   1   1   1   0   1   0 )
 Number of active  orbitals:        2 (   1   0   0   0   0   1   0   0 )
 Number of external orbitals:     134 (  27  21  21  12  21  12  12   8 )

 Memory could be reduced to 6.64 Mwords without degradation in triples

 Number of N-1 electron functions:              18
 Number of N-2 electron functions:             153
 Number of singly external CSFs:               383
 Number of doubly external CSFs:            273547
 Total number of CSFs:                      273930

 Molecular orbitals read from record     2101.2  Type=RHF/CANONICAL (state 1.6)

 Integral transformation finished. Total CPU:   0.14 sec, npass=  1  Memory used:   1.37 MW

 Starting RMP2 calculation

 ITER.      SQ.NORM     CORR.ENERGY   TOTAL ENERGY   ENERGY CHANGE        DEN1      VAR(S)    VAR(P)  DIIS     TIME
   1      1.12095174    -0.96190953  -169.37885786    -0.96190953    -0.00111751  0.10D-04  0.37D-03  1  1     0.17
   2      1.12182914    -0.96308372  -169.38003204    -0.00117419    -0.00000305  0.17D-06  0.17D-05  2  2     0.18
   3      1.12188100    -0.96311891  -169.38006724    -0.00003519    -0.00000002  0.22D-08  0.10D-07  3  3     0.20
   4      1.12188289    -0.96311934  -169.38006766    -0.00000042    -0.00000000  0.21D-10  0.51D-10  4  4     0.21

 Norm of t1 vector:      0.03407312      S-energy:    -0.00540631      T1 diagnostic:  0.00486799
 Norm of t2 vector:      0.34745059      P-energy:    -0.95771303
                                         Alpha-Beta:  -0.66373177
                                         Alpha-Alpha: -0.17225723
                                         Beta-Beta:   -0.12172403

 Spin contamination <S**2-Sz**2-Sz>     0.00037023
  Reference energy                   -168.416948323800
  RHF-RMP2 correlation energy          -0.963119335495
 !RHF-RMP2 energy                    -169.380067659295

 Starting UCCSD calculation

 ITER.      SQ.NORM     CORR.ENERGY   TOTAL ENERGY   ENERGY CHANGE        DEN1      VAR(S)    VAR(P)  DIIS     TIME
   1      1.08976007    -0.84139615  -169.25834447    -0.84139615    -0.05129787  0.91D-02  0.80D-02  0  0     0.69
   2      1.10541316    -0.88738901  -169.30433733    -0.04599286    -0.00925617  0.17D-02  0.24D-02  1  1     1.19
   3      1.10514738    -0.87631994  -169.29326826     0.01106907    -0.00059331  0.45D-03  0.93D-04  2  2     1.66
   4      1.10773631    -0.87704205  -169.29399038    -0.00072211    -0.00017178  0.13D-03  0.33D-04  3  3     2.15
   5      1.11205543    -0.87833983  -169.29528815    -0.00129778    -0.00002097  0.20D-04  0.30D-05  4  4     2.62
   6      1.11342892    -0.87857715  -169.29552547    -0.00023732    -0.00000320  0.21D-05  0.82D-06  5  5     3.10
   7      1.11398641    -0.87863181  -169.29558014    -0.00005467    -0.00000028  0.17D-06  0.76D-07  6  6     3.58
   8      1.11406736    -0.87863324  -169.29558156    -0.00000143    -0.00000003  0.14D-07  0.12D-07  6  1     4.07
   9      1.11407807    -0.87863620  -169.29558452    -0.00000296    -0.00000001  0.29D-08  0.19D-08  6  2     4.55
  10      1.11407950    -0.87863511  -169.29558343     0.00000108    -0.00000000  0.23D-08  0.50D-09  6  3     5.04
  11      1.11408213    -0.87863609  -169.29558442    -0.00000098    -0.00000000  0.23D-08  0.21D-09  6  6     5.54

 Norm of t1 vector:      0.13092049      S-energy:    -0.00567404      T1 diagnostic:  0.02159159
                                                                       D1 diagnostic:  0.05618573
 Norm of t2 vector:      0.31135504      P-energy:    -0.87296206
                                         Alpha-Beta:  -0.63028781
                                         Alpha-Alpha: -0.14266228
                                         Beta-Beta:   -0.10001197

 Singles amplitudes (print threshold =  0.500E-01):

         I         SYM. A    A   T(IA) [Alpha-Alpha]

         4         1         2      0.05862452

 Spin contamination <S**2-Sz**2-Sz>     0.00082414

 Memory could be reduced to 7.04 Mwords without degradation in triples
 

  Correlated core orbitals:             1.1       1.2       1.3       1.5
  Orbital energies:                    -4.8768   -3.1933   -3.1111   -3.1933
 
  UCCSD core-core energy               -0.136132993299
  UCCSD core-valence energy            -0.352937187497
  UCCSD valence correlation energy     -0.389565913550
 

 RESULTS
 =======

  Reference energy                   -168.416948323800
  UCCSD singles energy                 -0.005674036921
  UCCSD pair energy                    -0.872962057425
  UCCSD correlation energy             -0.878636094346
  Triples (T) contribution             -0.030230302503
  Total correlation energy             -0.908866396849
 
  RHF-UCCSD energy                   -169.295584418146
  RHF-UCCSD[T] energy                -169.329814946554
  RHF-UCCSD-T energy                 -169.325518576260
 !RHF-UCCSD(T) energy                -169.325814720649

 Program statistics:

 Available memory in ccsd:               511999000
 Min. memory needed in ccsd:                831855
 Max. memory used in ccsd:                 1163357
 Max. memory used in cckext:                949149 (11 integral passes)
 Max. memory used in cckint:               1372654 ( 1 integral passes)



 **********************************************************************************************************************************
 DATASETS  * FILE   NREC   LENGTH (MB)   RECORD NAMES
              1      21       53.48       500      610      700      900      950      970     1000      129      960     1100   
                                          VAR    BASINP    GEOM    SYMINP    ZMAT    AOBASIS   BASIS     P2S    ABASIS      S 
                                         1400     1410     1420     1200     1210     1080     1600     1650     1300     1700   
                                         EKIN       V       ECP      H0       H01     AOSYM     SMH    MOLCAS    ERIS     OPER   
                                         1380   
                                         JKOP   

              2       6        8.13       700     1000      520     4202     5202     2101   
                                         GEOM     BASIS   MCVARS     RHF     MCSCF     RHF  

 PROGRAMS   *        TOTAL  UCCSD(T)       RHF     MULTI       POP       RHF       INT
 CPU TIMES  *        21.59     16.28      0.06      0.45      0.00      0.47      4.18
 REAL TIME  *        38.79 SEC
 DISK USED  *       188.70 MB      
 **********************************************************************************************************************************
 SETTING POSTHF(I)      =      -169.32581472  AU                              
                                                                                                                                                                                                                                                                

         SCF            POSTHF        EKIN          POT
    -168.4169483   -169.3258147   108.5336706   -23.83797300
                                                  

 UCCSD(T)/USERDEF energy=   -169.325814720649

        UCCSD(T)        RHF-SCF         MULTI           RHF-SCF 
   -169.32581472   -168.41694832   -168.41694832   -168.42018741
 **********************************************************************************************************************************
 Variable memory released
