
 Primary working directories    : /global/cscratch1/sd/aannabe
 Secondary working directories  : /global/cscratch1/sd/aannabe
 Wavefunction directory         : /global/homes/a/aannabe/wfu/
 Main file repository           : /global/cscratch1/sd/aannabe/

 SHA1      : 2873118e99aab1bc19f5b6fc1784693c06d15c95
 NAME      : 2015.1.8
 ARCHNAME  : linux/x86_64
 FC        : /opt/cray/pe/craype/2.5.5/bin/ftn
 BLASLIB   : -Wl,-_start-group /opt/intel/compilers_and_libraries_2016.3.210/linux/mkl/lib/intel64/libmkl_intel_ilp64.a /opt/intel/compilers_and_libraries_2016.3.210/linux/mkl/lib/intel64/libmkl_intel_thread.a /opt/intel/compilers_and_libraries_2016.3.210/linux/mkl/lib/intel64/libmkl_core.a -Wl,-_end-group
 id        : lbl

 Nodes     nprocs
 nid00504     1

 Using customized tuning parameters: mindgm=8; mindgv=16; mindgc=4; mindgr=1; noblas=0; minvec=7
 default implementation of scratch files=df  

 ***,Ti
 memory,512,m
 gthresh,twoint=1.e-12
 
 gprint,basis,orbitals
 gexpec,ekin,pot
 
 angstrom
 geometry={
 1                                                                               ! Number of atoms
 Ti 0.0 0.0 0.0
 }
 
 basis={
 Including file /global/homes/a/aannabe/docs/accurate/ccECP_D2h/pps/Ti.pp
                                             !include,/global/homes/a/aannabe/docs/accurate/ccECP_D2h/basis/aug-cc-pVnZ/Ti_qz.basis
 Including file /global/homes/a/aannabe/docs/accurate/ccECP_D2h/basis/cc-pVnZ/Ti_qz.basis
 }
 
 {hf
 wf,12,1,2
 occ,4,1,1,0,1,0,0,0
 open,3.1,4.1
 sym,1,1,1,3,2
 }
 scf(i)=energy
 
 _CC_NORM_MAX=2.0
 {rccsd(t)
 maxit,100
 core
 }
 posthf(i)=energy
 
 table,scf,posthf,ekin,pot
 save,4.csv,new
 
 

 Variables initialized (889), CPU time= 0.00 sec
 Commands  initialized (702), CPU time= 0.01 sec, 572 directives.
 Default parameters read. Elapsed time= 0.28 sec

 Checking input...
 Passed
1


                                         ***  PROGRAM SYSTEM MOLPRO  ***
                                       Copyright, TTI GmbH Stuttgart, 2015
                                    Version 2015.1 linked Sep  7 2016 23:09:38


 **********************************************************************************************************************************
 LABEL *   Ti                                                                            
  64 bit serial version                                                                  DATE: 13-Nov-18          TIME: 22:26:22  
 **********************************************************************************************************************************

 SHA1:             2873118e99aab1bc19f5b6fc1784693c06d15c95
 **********************************************************************************************************************************

 THRESHOLDS:

 ZERO    =  1.00D-12  ONEINT  =  1.00D-12  TWOINT  =  1.00D-12  PREFAC  =  1.00D-14  LOCALI  =  1.00D-09  EORDER  =  1.00D-04
 ENERGY  =  0.00D+00  ETEST   =  0.00D+00  EDENS   =  0.00D+00  THRDEDEF=  1.00D-06  GRADIENT=  1.00D-02  STEP    =  1.00D-03
 ORBITAL =  1.00D-05  CIVEC   =  1.00D-05  COEFF   =  1.00D-04  PRINTCI =  5.00D-02  PUNCHCI =  9.90D+01  OPTGRAD =  3.00D-04
 OPTENERG=  1.00D-06  OPTSTEP =  3.00D-04  THRGRAD =  1.00D-10  COMPRESS=  1.00D-11  VARMIN  =  1.00D-07  VARMAX  =  1.00D-03
 THRDOUB =  0.00D+00  THRDIV  =  1.00D-05  THRRED  =  1.00D-07  THRPSP  =  1.00D+00  THRDC   =  1.00D-10  THRCS   =  1.00D-10
 THRNRM  =  1.00D-08  THREQ   =  0.00D+00  THRDE   =  1.00D+00  THRREF  =  1.00D-05  SPARFAC =  1.00D+00  THRDLP  =  1.00D-07
 THRDIA  =  1.00D-10  THRDLS  =  1.00D-07  THRGPS  =  0.00D+00  THRKEX  =  0.00D+00  THRDIS  =  2.00D-01  THRVAR  =  1.00D-10
 THRLOC  =  1.00D-06  THRGAP  =  1.00D-06  THRLOCT = -1.00D+00  THRGAPT = -1.00D+00  THRORB  =  1.00D-06  THRMLTP =  0.00D+00
 THRCPQCI=  1.00D-10  KEXTA   =  0.00D+00  THRCOARS=  0.00D+00  SYMTOL  =  1.00D-06  GRADTOL =  1.00D-06  THROVL  =  1.00D-08
 THRORTH =  1.00D-08  GRID    =  1.00D-06  GRIDMAX =  1.00D-03  DTMAX   =  0.00D+00  THROCCDE=  1.00D-01  THROCCDE=  1.00D-01



 ZUNIT=ANG
 

Geometry recognized as XYZ


 Variable memory set to  512000000 words,  buffer space   230000 words

 SETTING BASIS          =    USERDEF


 Recomputing integrals since basis changed


 Using spherical harmonics



 PROGRAM * SEWARD (Integral evaluation for generally contracted gaussian basis sets)     Author: Roland Lindh, 1990

 Geometry written to block  1 of record 700

 Orientation using atomic masses  
 Molecule type: Atom
 Symmetry elements: X,Y,Z
 Rotational constants:       0.0000000      0.0000000      0.0000000 GHz  (calculated with average atomic masses)

 Point group  D2h 



 ATOMIC COORDINATES

 NR  ATOM    CHARGE       X              Y              Z

   1  TI     12.00    0.000000000    0.000000000    0.000000000


          TI  CORE POTENTIAL

          d POTENTIAL

 POWERS             1              3              2              2
 EXPONENTIALS   18.41366       15.92292       13.65001       5.095552    
 COEFFICIENTS   12.00000       220.9639      -94.29026      9.7911425E-02

          s - d POTENTIAL

 POWERS             2              2
 EXPONENTIALS   12.70581       6.111786    
 COEFFICIENTS   173.9466       18.83768    

          p - d POTENTIAL

 POWERS             2              2
 EXPONENTIALS   12.64092       5.354374    
 COEFFICIENTS   111.4567       11.17703    


 BASIS DATA

   Nr Sym  Nuc  Type         Exponents   Contraction coefficients

    1.1 Ag    1  1s          68.910511     0.000616   -0.000156    0.000635   -0.001178    0.000115    0.000000
    2.1 Ag                   33.720700    -0.007501    0.001966   -0.006468    0.011877    0.002833    0.000000
    3.1 Ag                   18.159676     0.012218   -0.003994    0.023444   -0.047240    0.006141    0.000000
    4.1 Ag                   12.419305     0.144739   -0.036377    0.038921   -0.050922   -0.209682    0.000000
    5.1 Ag                    7.532195    -0.328621    0.088593   -0.141180    0.237746    0.518367    0.000000
    6.1 Ag                    3.504444    -0.317517    0.085630   -0.214765    0.403185    0.304164    0.000000
                              1.910727     0.357422   -0.105993    0.320151   -0.790961   -1.232863    0.000000
                              0.888840     0.671406   -0.237421    0.451062   -1.102276   -2.090508    0.000000
                              0.447198     0.282226   -0.235359    0.855191    0.209446    7.092715    0.000000
                              0.281192     0.038673   -0.012960   -1.209224    2.527352   -4.543744    0.000000
                              0.100258     0.004559    0.433582   -1.319481   -1.789041   -2.248270    0.000000
                              0.046525    -0.001565    0.577873    0.866517   -0.867842    4.473918    0.000000
                              0.021840     0.000398    0.164360    0.618916    1.427395   -2.426296    1.000000
    7.1 Ag    1  1s           1.523349     1.000000
    8.1 Ag    1  1s           1.707554     1.000000
    9.1 Ag    1  3d0         77.434559     0.000022
                             27.708477     0.004218
                             12.914284     0.030087
                              6.062674     0.084821
                              2.863898     0.171110
                              1.386559     0.247451
                              0.677058     0.277310
                              0.329864     0.261077
                              0.159474     0.190336
                              0.076174     0.119385
                              0.028570     0.031297
   10.1 Ag    1  3d2+        77.434559     0.000022
                             27.708477     0.004218
                             12.914284     0.030087
                              6.062674     0.084821
                              2.863898     0.171110
                              1.386559     0.247451
                              0.677058     0.277310
                              0.329864     0.261077
                              0.159474     0.190336
                              0.076174     0.119385
                              0.028570     0.031297
   11.1 Ag    1  3d0         77.434559    -0.000025
                             27.708477    -0.004311
                             12.914284    -0.030913
                              6.062674    -0.088049
                              2.863898    -0.178330
                              1.386559    -0.234335
                              0.677058    -0.195775
                              0.329864     0.065872
                              0.159474     0.330536
                              0.076174     0.461229
                              0.028570     0.184273
   12.1 Ag    1  3d2+        77.434559    -0.000025
                             27.708477    -0.004311
                             12.914284    -0.030913
                              6.062674    -0.088049
                              2.863898    -0.178330
                              1.386559    -0.234335
                              0.677058    -0.195775
                              0.329864     0.065872
                              0.159474     0.330536
                              0.076174     0.461229
                              0.028570     0.184273
   13.1 Ag    1  3d0         77.434559     0.000010
                             27.708477     0.006187
                             12.914284     0.042630
                              6.062674     0.127524
                              2.863898     0.248289
                              1.386559     0.259761
                              0.677058    -0.070794
                              0.329864    -0.519396
                              0.159474    -0.373658
                              0.076174     0.455067
                              0.028570     0.489586
   14.1 Ag    1  3d2+        77.434559     0.000010
                             27.708477     0.006187
                             12.914284     0.042630
                              6.062674     0.127524
                              2.863898     0.248289
                              1.386559     0.259761
                              0.677058    -0.070794
                              0.329864    -0.519396
                              0.159474    -0.373658
                              0.076174     0.455067
                              0.028570     0.489586
   15.1 Ag    1  3d0         77.434559     0.000011
                             27.708477    -0.008026
                             12.914284    -0.053875
                              6.062674    -0.168795
                              2.863898    -0.312344
                              1.386559    -0.172031
                              0.677058     0.587633
                              0.329864     0.528592
                              0.159474    -0.859644
                              0.076174    -0.273831
                              0.028570     0.802754
   16.1 Ag    1  3d2+        77.434559     0.000011
                             27.708477    -0.008026
                             12.914284    -0.053875
                              6.062674    -0.168795
                              2.863898    -0.312344
                              1.386559    -0.172031
                              0.677058     0.587633
                              0.329864     0.528592
                              0.159474    -0.859644
                              0.076174    -0.273831
                              0.028570     0.802754
   17.1 Ag    1  3d0         77.434559     0.000000
                             27.708477     0.000000
                             12.914284     0.000000
                              6.062674     0.000000
                              2.863898     0.000000
                              1.386559     0.000000
                              0.677058     0.000000
                              0.329864     0.000000
                              0.159474     0.000000
                              0.076174     0.000000
                              0.028570     1.000000
   18.1 Ag    1  3d2+        77.434559     0.000000
                             27.708477     0.000000
                             12.914284     0.000000
                              6.062674     0.000000
                              2.863898     0.000000
                              1.386559     0.000000
                              0.677058     0.000000
                              0.329864     0.000000
                              0.159474     0.000000
                              0.076174     0.000000
                              0.028570     1.000000
   19.1 Ag    1  3d0          1.527212     1.000000
   20.1 Ag    1  3d2+         1.527212     1.000000
   21.1 Ag    1  3d0          2.503695     1.000000
   22.1 Ag    1  3d2+         2.503695     1.000000
   23.1 Ag    1  5g0          0.402576     1.000000
   24.1 Ag    1  5g4+         0.402576     1.000000
   25.1 Ag    1  5g2+         0.402576     1.000000
   26.1 Ag    1  5g0          1.597247     1.000000
   27.1 Ag    1  5g4+         1.597247     1.000000
   28.1 Ag    1  5g2+         1.597247     1.000000
   29.1 Ag    1  5g0          3.520886     1.000000
   30.1 Ag    1  5g4+         3.520886     1.000000
   31.1 Ag    1  5g2+         3.520886     1.000000
    1.2 B3u   1  2px         84.914002     0.000093    0.000020    0.000019   -0.000257    0.000271    0.000000
    2.2 B3u                  42.855051    -0.000836   -0.000049    0.000138    0.001725   -0.001902    0.000000
    3.2 B3u                  21.700131     0.008679   -0.000761   -0.004622   -0.012646    0.015412    0.000000
    4.2 B3u                  12.214690    -0.011178   -0.000575    0.004465    0.029062   -0.037586    0.000000
    5.2 B3u                   8.319164    -0.077767    0.018284    0.065760    0.058979   -0.124536    0.000000
    6.2 B3u                   4.091071    -0.006113   -0.005943   -0.018927    0.030806    0.040812    0.000000
                              2.286543     0.271828   -0.043212   -0.222524   -0.524373    1.343823    0.000000
                              1.159810     0.459585   -0.112513   -0.523890   -0.720968   -0.269411    0.000000
                              0.591343     0.315900   -0.052073   -0.071277    1.023204   -3.729590    0.000000
                              0.312862     0.071683   -0.092263    0.812712    1.973874    5.884983    0.000000
                              0.184828     0.010541    0.243946    0.625498   -2.805092   -3.113853    0.000000
                              0.068590     0.000045    0.413101   -0.812189    0.607954   -0.256973    0.000000
                              0.026791    -0.000837    0.543985   -0.185796    0.447653    0.710733    1.000000
    7.2 B3u   1  2px          1.270037     1.000000
    8.2 B3u   1  2px          4.415783     1.000000
    9.2 B3u   1  4f1+         0.193613     1.000000
   10.2 B3u   1  4f3+         0.193613     1.000000
   11.2 B3u   1  4f1+         0.675430     1.000000
   12.2 B3u   1  4f3+         0.675430     1.000000
   13.2 B3u   1  4f1+         2.356279     1.000000
   14.2 B3u   1  4f3+         2.356279     1.000000
   15.2 B3u   1  4f1+         3.304687     1.000000
   16.2 B3u   1  4f3+         3.304687     1.000000
   17.2 B3u   1  6h1+         0.848174     1.000000
   18.2 B3u   1  6h3+         0.848174     1.000000
   19.2 B3u   1  6h5+         0.848174     1.000000
   20.2 B3u   1  6h1+         2.900797     1.000000
   21.2 B3u   1  6h3+         2.900797     1.000000
   22.2 B3u   1  6h5+         2.900797     1.000000
    1.3 B2u   1  2py         84.914002     0.000093    0.000020    0.000019   -0.000257    0.000271    0.000000
    2.3 B2u                  42.855051    -0.000836   -0.000049    0.000138    0.001725   -0.001902    0.000000
    3.3 B2u                  21.700131     0.008679   -0.000761   -0.004622   -0.012646    0.015412    0.000000
    4.3 B2u                  12.214690    -0.011178   -0.000575    0.004465    0.029062   -0.037586    0.000000
    5.3 B2u                   8.319164    -0.077767    0.018284    0.065760    0.058979   -0.124536    0.000000
    6.3 B2u                   4.091071    -0.006113   -0.005943   -0.018927    0.030806    0.040812    0.000000
                              2.286543     0.271828   -0.043212   -0.222524   -0.524373    1.343823    0.000000
                              1.159810     0.459585   -0.112513   -0.523890   -0.720968   -0.269411    0.000000
                              0.591343     0.315900   -0.052073   -0.071277    1.023204   -3.729590    0.000000
                              0.312862     0.071683   -0.092263    0.812712    1.973874    5.884983    0.000000
                              0.184828     0.010541    0.243946    0.625498   -2.805092   -3.113853    0.000000
                              0.068590     0.000045    0.413101   -0.812189    0.607954   -0.256973    0.000000
                              0.026791    -0.000837    0.543985   -0.185796    0.447653    0.710733    1.000000
    7.3 B2u   1  2py          1.270037     1.000000
    8.3 B2u   1  2py          4.415783     1.000000
    9.3 B2u   1  4f1-         0.193613     1.000000
   10.3 B2u   1  4f3-         0.193613     1.000000
   11.3 B2u   1  4f1-         0.675430     1.000000
   12.3 B2u   1  4f3-         0.675430     1.000000
   13.3 B2u   1  4f1-         2.356279     1.000000
   14.3 B2u   1  4f3-         2.356279     1.000000
   15.3 B2u   1  4f1-         3.304687     1.000000
   16.3 B2u   1  4f3-         3.304687     1.000000
   17.3 B2u   1  6h1-         0.848174     1.000000
   18.3 B2u   1  6h3-         0.848174     1.000000
   19.3 B2u   1  6h5-         0.848174     1.000000
   20.3 B2u   1  6h1-         2.900797     1.000000
   21.3 B2u   1  6h3-         2.900797     1.000000
   22.3 B2u   1  6h5-         2.900797     1.000000
    1.4 B1g   1  3d2-        77.434559     0.000022   -0.000025    0.000010    0.000011    0.000000
    2.4 B1g                  27.708477     0.004218   -0.004311    0.006187   -0.008026    0.000000
    3.4 B1g                  12.914284     0.030087   -0.030913    0.042630   -0.053875    0.000000
    4.4 B1g                   6.062674     0.084821   -0.088049    0.127524   -0.168795    0.000000
    5.4 B1g                   2.863898     0.171110   -0.178330    0.248289   -0.312344    0.000000
                              1.386559     0.247451   -0.234335    0.259761   -0.172031    0.000000
                              0.677058     0.277310   -0.195775   -0.070794    0.587633    0.000000
                              0.329864     0.261077    0.065872   -0.519396    0.528592    0.000000
                              0.159474     0.190336    0.330536   -0.373658   -0.859644    0.000000
                              0.076174     0.119385    0.461229    0.455067   -0.273831    0.000000
                              0.028570     0.031297    0.184273    0.489586    0.802754    1.000000
    6.4 B1g   1  3d2-         1.527212     1.000000
    7.4 B1g   1  3d2-         2.503695     1.000000
    8.4 B1g   1  5g2-         0.402576     1.000000
    9.4 B1g   1  5g4-         0.402576     1.000000
   10.4 B1g   1  5g2-         1.597247     1.000000
   11.4 B1g   1  5g4-         1.597247     1.000000
   12.4 B1g   1  5g2-         3.520886     1.000000
   13.4 B1g   1  5g4-         3.520886     1.000000
    1.5 B1u   1  2pz         84.914002     0.000093    0.000020    0.000019   -0.000257    0.000271    0.000000
    2.5 B1u                  42.855051    -0.000836   -0.000049    0.000138    0.001725   -0.001902    0.000000
    3.5 B1u                  21.700131     0.008679   -0.000761   -0.004622   -0.012646    0.015412    0.000000
    4.5 B1u                  12.214690    -0.011178   -0.000575    0.004465    0.029062   -0.037586    0.000000
    5.5 B1u                   8.319164    -0.077767    0.018284    0.065760    0.058979   -0.124536    0.000000
    6.5 B1u                   4.091071    -0.006113   -0.005943   -0.018927    0.030806    0.040812    0.000000
                              2.286543     0.271828   -0.043212   -0.222524   -0.524373    1.343823    0.000000
                              1.159810     0.459585   -0.112513   -0.523890   -0.720968   -0.269411    0.000000
                              0.591343     0.315900   -0.052073   -0.071277    1.023204   -3.729590    0.000000
                              0.312862     0.071683   -0.092263    0.812712    1.973874    5.884983    0.000000
                              0.184828     0.010541    0.243946    0.625498   -2.805092   -3.113853    0.000000
                              0.068590     0.000045    0.413101   -0.812189    0.607954   -0.256973    0.000000
                              0.026791    -0.000837    0.543985   -0.185796    0.447653    0.710733    1.000000
    7.5 B1u   1  2pz          1.270037     1.000000
    8.5 B1u   1  2pz          4.415783     1.000000
    9.5 B1u   1  4f0          0.193613     1.000000
   10.5 B1u   1  4f2+         0.193613     1.000000
   11.5 B1u   1  4f0          0.675430     1.000000
   12.5 B1u   1  4f2+         0.675430     1.000000
   13.5 B1u   1  4f0          2.356279     1.000000
   14.5 B1u   1  4f2+         2.356279     1.000000
   15.5 B1u   1  4f0          3.304687     1.000000
   16.5 B1u   1  4f2+         3.304687     1.000000
   17.5 B1u   1  6h2+         0.848174     1.000000
   18.5 B1u   1  6h4+         0.848174     1.000000
   19.5 B1u   1  6h0          0.848174     1.000000
   20.5 B1u   1  6h2+         2.900797     1.000000
   21.5 B1u   1  6h4+         2.900797     1.000000
   22.5 B1u   1  6h0          2.900797     1.000000
    1.6 B2g   1  3d1+        77.434559     0.000022   -0.000025    0.000010    0.000011    0.000000
    2.6 B2g                  27.708477     0.004218   -0.004311    0.006187   -0.008026    0.000000
    3.6 B2g                  12.914284     0.030087   -0.030913    0.042630   -0.053875    0.000000
    4.6 B2g                   6.062674     0.084821   -0.088049    0.127524   -0.168795    0.000000
    5.6 B2g                   2.863898     0.171110   -0.178330    0.248289   -0.312344    0.000000
                              1.386559     0.247451   -0.234335    0.259761   -0.172031    0.000000
                              0.677058     0.277310   -0.195775   -0.070794    0.587633    0.000000
                              0.329864     0.261077    0.065872   -0.519396    0.528592    0.000000
                              0.159474     0.190336    0.330536   -0.373658   -0.859644    0.000000
                              0.076174     0.119385    0.461229    0.455067   -0.273831    0.000000
                              0.028570     0.031297    0.184273    0.489586    0.802754    1.000000
    6.6 B2g   1  3d1+         1.527212     1.000000
    7.6 B2g   1  3d1+         2.503695     1.000000
    8.6 B2g   1  5g1+         0.402576     1.000000
    9.6 B2g   1  5g3+         0.402576     1.000000
   10.6 B2g   1  5g1+         1.597247     1.000000
   11.6 B2g   1  5g3+         1.597247     1.000000
   12.6 B2g   1  5g1+         3.520886     1.000000
   13.6 B2g   1  5g3+         3.520886     1.000000
    1.7 B3g   1  3d1-        77.434559     0.000022   -0.000025    0.000010    0.000011    0.000000
    2.7 B3g                  27.708477     0.004218   -0.004311    0.006187   -0.008026    0.000000
    3.7 B3g                  12.914284     0.030087   -0.030913    0.042630   -0.053875    0.000000
    4.7 B3g                   6.062674     0.084821   -0.088049    0.127524   -0.168795    0.000000
    5.7 B3g                   2.863898     0.171110   -0.178330    0.248289   -0.312344    0.000000
                              1.386559     0.247451   -0.234335    0.259761   -0.172031    0.000000
                              0.677058     0.277310   -0.195775   -0.070794    0.587633    0.000000
                              0.329864     0.261077    0.065872   -0.519396    0.528592    0.000000
                              0.159474     0.190336    0.330536   -0.373658   -0.859644    0.000000
                              0.076174     0.119385    0.461229    0.455067   -0.273831    0.000000
                              0.028570     0.031297    0.184273    0.489586    0.802754    1.000000
    6.7 B3g   1  3d1-         1.527212     1.000000
    7.7 B3g   1  3d1-         2.503695     1.000000
    8.7 B3g   1  5g1-         0.402576     1.000000
    9.7 B3g   1  5g3-         0.402576     1.000000
   10.7 B3g   1  5g1-         1.597247     1.000000
   11.7 B3g   1  5g3-         1.597247     1.000000
   12.7 B3g   1  5g1-         3.520886     1.000000
   13.7 B3g   1  5g3-         3.520886     1.000000
    1.8 Au    1  4f2-         0.193613     1.000000
    2.8 Au    1  4f2-         0.675430     1.000000
    3.8 Au    1  4f2-         2.356279     1.000000
    4.8 Au    1  4f2-         3.304687     1.000000
    5.8 Au    1  6h4-         0.848174     1.000000
    6.8 Au    1  6h2-         0.848174     1.000000
    7.8 Au    1  6h4-         2.900797     1.000000
    8.8 Au    1  6h2-         2.900797     1.000000

 NUCLEAR CHARGE:                   12
 NUMBER OF PRIMITIVE AOS:         265
 NUMBER OF SYMMETRY AOS:          202
 NUMBER OF CONTRACTIONS:          144   (  31Ag  +  22B3u +  22B2u +  13B1g +  22B1u +  13B2g +  13B3g +   8Au  )
 NUMBER OF CORE ORBITALS:           4   (   1Ag  +   1B3u +   1B2u +   0B1g +   1B1u +   0B2g +   0B3g +   0Au  )
 NUMBER OF VALENCE ORBITALS:        6   (   3Ag  +   0B3u +   0B2u +   1B1g +   0B1u +   1B2g +   1B3g +   0Au  )


 NUCLEAR REPULSION ENERGY    0.00000000

 EXTRA SYMMETRY OF AOS IN SYMMETRY 1:   1 1 1 1 1 1 1 1 2 3   2 3 2 3 2 3 2 3 2 3   2 3 4 5 6 4 5 6 4 5   6
 EXTRA SYMMETRY OF AOS IN SYMMETRY 2:   1 1 1 1 1 1 1 1 2 3   2 3 2 3 2 3 4 5 6 4   5 6
 EXTRA SYMMETRY OF AOS IN SYMMETRY 3:   1 1 1 1 1 1 1 1 2 3   2 3 2 3 2 3 4 5 6 4   5 6
 EXTRA SYMMETRY OF AOS IN SYMMETRY 4:   1 1 1 1 1 1 1 2 3 2   3 2 3
 EXTRA SYMMETRY OF AOS IN SYMMETRY 5:   1 1 1 1 1 1 1 1 2 3   2 3 2 3 2 3 4 5 6 4   5 6
 EXTRA SYMMETRY OF AOS IN SYMMETRY 6:   1 1 1 1 1 1 1 2 3 2   3 2 3
 EXTRA SYMMETRY OF AOS IN SYMMETRY 7:   1 1 1 1 1 1 1 2 3 2   3 2 3
 EXTRA SYMMETRY OF AOS IN SYMMETRY 8:   1 1 1 1 2 3 2 3

 Eigenvalues of metric

         1 0.586E-04 0.512E-03 0.986E-02 0.986E-02 0.284E-01 0.284E-01 0.586E-01 0.586E-01
         2 0.128E-02 0.162E-01 0.439E-01 0.439E-01 0.189E+00 0.499E+00 0.499E+00 0.686E+00
         3 0.128E-02 0.162E-01 0.439E-01 0.439E-01 0.189E+00 0.499E+00 0.499E+00 0.686E+00
         4 0.986E-02 0.284E-01 0.586E-01 0.301E+00 0.301E+00 0.952E+00 0.952E+00 0.101E+01
         5 0.128E-02 0.162E-01 0.439E-01 0.439E-01 0.189E+00 0.499E+00 0.499E+00 0.686E+00
         6 0.986E-02 0.284E-01 0.586E-01 0.301E+00 0.301E+00 0.952E+00 0.952E+00 0.101E+01
         7 0.986E-02 0.284E-01 0.586E-01 0.301E+00 0.301E+00 0.952E+00 0.952E+00 0.101E+01
         8 0.439E-01 0.499E+00 0.686E+00 0.686E+00 0.125E+01 0.131E+01 0.131E+01 0.221E+01


 Contracted 2-electron integrals neglected if value below      1.0D-12
 AO integral compression algorithm  1   Integral accuracy      1.0D-12

     48.234 MB (compressed) written to integral file ( 51.7%)


 NUMBER OF SORTED TWO-ELECTRON INTEGRALS:    7063297.     BUFFER LENGTH:  32768
 NUMBER OF SEGMENTS:   1  SEGMENT LENGTH:    7063297      RECORD LENGTH: 524288

 Memory used in sort:       7.62 MW

 SORT1 READ    11599838. AND WROTE     4948094. INTEGRALS IN     15 RECORDS. CPU TIME:     0.37 SEC, REAL TIME:     0.52 SEC
 SORT2 READ     4948094. AND WROTE     7063297. INTEGRALS IN    184 RECORDS. CPU TIME:     0.28 SEC, REAL TIME:     0.55 SEC

 FILE SIZES:   FILE 1:    67.8 MBYTE,  FILE 4:    62.9 MBYTE,   TOTAL:    130.8 MBYTE

 OPERATOR DM      FOR CENTER  0  COORDINATES:    0.000000    0.000000    0.000000
 OPERATOR EKIN    FOR CENTER  0  COORDINATES:    0.000000    0.000000    0.000000
 OPERATOR POT     FOR CENTER  0  COORDINATES:    0.000000    0.000000    0.000000


 **********************************************************************************************************************************
 DATASETS  * FILE   NREC   LENGTH (MB)   RECORD NAMES
              1      20       48.35       500      610      700      900      950      970     1000      129      960     1100   
                                          VAR    BASINP    GEOM    SYMINP    ZMAT    AOBASIS   BASIS     P2S    ABASIS      S 
                                         1400     1410     1420     1200     1210     1080     1600     1650     1300     1700   
                                         EKIN       V       ECP      H0       H01     AOSYM     SMH    MOLCAS    ERIS     OPER   

 PROGRAMS   *        TOTAL       INT
 CPU TIMES  *         4.72      4.52
 REAL TIME  *        12.42 SEC
 DISK USED  *       131.09 MB      
 **********************************************************************************************************************************


 PROGRAM * RHF-SCF (OPEN SHELL)       Authors: W. Meyer, H.-J. Werner


 NUMBER OF ELECTRONS:       7+    5-    SPACE SYMMETRY=1    SPIN SYMMETRY: Triplet 
 CONVERGENCE THRESHOLDS:    1.00E-05 (Density)    1.00E-07 (Energy)
 MAX. NUMBER OF ITERATIONS:       60
 INTERPOLATION TYPE:            DIIS
 INTERPOLATION STEPS:              2 (START)      1 (STEP)
 LEVEL SHIFTS:                 -0.60 (CLOSED) -0.30 (OPEN) 


 Singly occupied orbitals:      3.1       4.1
 
 Extra symmetries of mos in symmetry 1:   1   1   3   2

   Atom=TI basis=ECP10MDF_GUESS    lmin=0  lmax=2

 Orbital guess generated from atomic densities. Full valence occupancy:    4   1   1   1   1   1   1   0


 Molecular orbital dump at record        2100.2

 ITERATION    DDIFF          GRAD             ENERGY        2-EL.EN.            DIPOLE MOMENTS         DIIS   ORB.
    1      0.000D+00      0.000D+00       -57.25054764     70.060290    0.00000    0.00000    0.00000    0    start
    2      0.000D+00      0.257D-01       -57.54372615     78.738774    0.00000    0.00000    0.00000    1    diag,B
    3      0.173D-01      0.146D-01       -57.57823189     78.815048    0.00000    0.00000    0.00000    2    diag,B
    4      0.511D-02      0.701D-02       -57.60439334     79.155904    0.00000    0.00000    0.00000    3    diag,B
    5      0.537D-02      0.197D-02       -57.60908212     79.272944    0.00000    0.00000    0.00000    4    diag,B
    6      0.248D-02      0.660D-03       -57.60956250     79.256392    0.00000    0.00000    0.00000    5    diag,B
    7      0.522D-02      0.355D-03       -57.60967445     79.182311    0.00000    0.00000    0.00000    6    fixocc
    8      0.303D-02      0.122D-03       -57.60969408     79.154597    0.00000    0.00000    0.00000    7    diag,B
    9      0.120D-02      0.619D-04       -57.60970022     79.142106    0.00000    0.00000    0.00000    8    diag,B
   10      0.232D-02      0.315D-04       -57.60970086     79.143575    0.00000    0.00000    0.00000    9    orth
   11      0.113D-02      0.886D-05       -57.60970089     79.142695    0.00000    0.00000    0.00000    9    diag,B
   12      0.221D-03      0.111D-05       -57.60970089     79.142807    0.00000    0.00000    0.00000    9    diag,B
   13      0.304D-04      0.373D-06       -57.60970089     79.142777    0.00000    0.00000    0.00000    9    diag,B
   14      0.247D-05      0.290D-07       -57.60970089     79.142779    0.00000    0.00000    0.00000    0    orth

 Final alpha occupancy:   4   1   1   0   1   0   0   0
 Final beta  occupancy:   2   1   1   0   1   0   0   0

 !RHF STATE 1.1 Energy                -57.609700890255
 Nuclear energy                         0.00000000
 One-electron energy                  -97.18109016
 Two-electron energy                   39.57138927
 Virial quotient                       -2.22719103
 !RHF STATE 1.1 Dipole moment           0.00000000     0.00000000     0.00000000
 Dipole moment /Debye                   0.00000000     0.00000000     0.00000000
 

 !RHF expec          <1.1|EKIN|1.1>    25.866528803720
 
 !RHF expec           <1.1|POT|1.1>   -10.954077963109

 ELECTRON ORBITALS
 =================


   Orb  Occ    Energy  Couls-En    Coefficients

                                   1 1s      1 1s      1 1s      1 1s      1 1s      1 1s      1 1s      1 1s      1 3d0     1 3d2+ 
                                   1 3d0     1 3d2+    1 3d0     1 3d2+    1 3d0     1 3d2+    1 3d0     1 3d2+    1 3d0     1 3d2+ 
                                   1 3d0     1 3d2+    1 5g0     1 5g4+    1 5g2+    1 5g0     1 5g4+    1 5g2+    1 5g0     1 5g4+ 
                                   1 5g2+ 

   1.1   2    -2.9280  -13.2772  0.999868 -0.000351 -0.000546  0.000091  0.000163  0.000668  0.000093 -0.000110 -0.000000 -0.000000
                                -0.000000  0.000000 -0.000000 -0.000000 -0.000000 -0.000000  0.000000  0.000000  0.000000  0.000000
                                -0.000000  0.000000  0.000989  0.000836  0.000000  0.000738  0.000623 -0.000000  0.000164  0.000138
                                 0.000000

   2.1   2    -0.2217   -3.7506 -0.000401  0.999304  0.001976 -0.000064 -0.000015  0.000814  0.000084 -0.000111 -0.000000  0.000000
                                 0.000000 -0.000000  0.000000  0.000000  0.000000  0.000000 -0.000000 -0.000000  0.000000 -0.000000
                                -0.000000  0.000000 -0.000269 -0.000227 -0.000000  0.000282  0.000238 -0.000000  0.000008  0.000007
                                -0.000000

   3.1   +    -0.4405   -7.5131 -0.000000 -0.000000 -0.000000 -0.000000  0.000000  0.000000 -0.000000  0.000000  0.007843  0.989120
                                -0.001271 -0.160229 -0.000101 -0.012766  0.000025  0.003204  0.000030  0.003791  0.000002  0.000227
                                 0.000000  0.000021  0.000025 -0.000029 -0.004836  0.000016 -0.000018 -0.003049  0.000003 -0.000004
                                -0.000599

   4.1   +    -0.4405   -7.5131 -0.000000 -0.000000 -0.000000 -0.000000  0.000000  0.000000 -0.000000  0.000000  0.989120 -0.007843
                                -0.160229  0.001271 -0.012766  0.000101  0.003204 -0.000025  0.003791 -0.000030  0.000227 -0.000002
                                 0.000021 -0.000000  0.003121 -0.003693  0.000038  0.001968 -0.002329  0.000024  0.000387 -0.000457
                                 0.000005

                                   1 2px     1 2px     1 2px     1 2px     1 2px     1 2px     1 2px     1 2px     1 4f1+    1 4f3+ 
                                   1 4f1+    1 4f3+    1 4f1+    1 4f3+    1 4f1+    1 4f3+    1 6h1+    1 6h3+    1 6h5+    1 6h1+ 
                                   1 6h3+    1 6h5+ 

   1.2   2    -1.8097  -11.0229  1.003785  0.050778  0.031177  0.010303 -0.001761 -0.024469 -0.001783  0.000330 -0.001157  0.001494
                                -0.004315  0.005570 -0.001699  0.002194 -0.000650  0.000839 -0.000073 -0.000006 -0.000068 -0.000237
                                 0.000032 -0.000243

                                   1 2py     1 2py     1 2py     1 2py     1 2py     1 2py     1 2py     1 2py     1 4f1-    1 4f3- 
                                   1 4f1-    1 4f3-    1 4f1-    1 4f3-    1 4f1-    1 4f3-    1 6h1-    1 6h3-    1 6h5-    1 6h1- 
                                   1 6h3-    1 6h5- 

   1.3   2    -1.8097  -11.0229  1.003785  0.050778  0.031177  0.010303 -0.001761 -0.024469 -0.001783  0.000330 -0.001157 -0.001494
                                -0.004315 -0.005570 -0.001699 -0.002194 -0.000650 -0.000839 -0.000073  0.000006 -0.000068 -0.000237
                                -0.000032 -0.000243

                                   1 2pz     1 2pz     1 2pz     1 2pz     1 2pz     1 2pz     1 2pz     1 2pz     1 4f0     1 4f2+ 
                                   1 4f0     1 4f2+    1 4f0     1 4f2+    1 4f0     1 4f2+    1 6h2+    1 6h4+    1 6h0     1 6h2+ 
                                   1 6h4+    1 6h0  

   1.5   2    -1.8097  -11.0229  1.003785  0.050778  0.031177  0.010303 -0.001761 -0.024469 -0.001783  0.000330  0.001889  0.000000
                                 0.007046 -0.000000  0.002775  0.000000  0.001061 -0.000000 -0.000000 -0.000060 -0.000080 -0.000000
                                -0.000158 -0.000302

 HOMO      4.1    -0.440474 =     -11.9859eV
 LUMO      2.2     0.023968 =       0.6522eV
 LUMO-HOMO         0.464441 =      12.6381eV


 **********************************************************************************************************************************
 DATASETS  * FILE   NREC   LENGTH (MB)   RECORD NAMES
              1      20       48.35       500      610      700      900      950      970     1000      129      960     1100   
                                          VAR    BASINP    GEOM    SYMINP    ZMAT    AOBASIS   BASIS     P2S    ABASIS      S 
                                         1400     1410     1420     1200     1210     1080     1600     1650     1300     1700   
                                         EKIN       V       ECP      H0       H01     AOSYM     SMH    MOLCAS    ERIS     OPER   

              2       4        2.86       700     1000      520     2100   
                                         GEOM     BASIS   MCVARS     RHF  

 PROGRAMS   *        TOTAL        HF       INT
 CPU TIMES  *         5.16      0.44      4.52
 REAL TIME  *        18.96 SEC
 DISK USED  *       131.09 MB      
 **********************************************************************************************************************************
 SETTING SCF(I)         =       -57.60970089  AU                              
 SETTING _CC_NORM_MAX   =         2.00000000                                  


 PROGRAM * CCSD (Restricted open-shell coupled cluster)     Authors: C. Hampel, H.-J. Werner, 1991, M. Deegan, P.J. Knowles, 1992


 Convergence thresholds:  THRVAR = 1.00D-08  THRDEN = 1.00D-06

 CCSD(T)     terms to be evaluated (factor= 1.000)


 Number of closed-shell orbitals:   5 (   2   1   1   0   1   0   0   0 )
 Number of active  orbitals:        2 (   2   0   0   0   0   0   0   0 )
 Number of external orbitals:     137 (  27  21  21  13  21  13  13   8 )

 Memory could be reduced to 5.26 Mwords without degradation in triples

 Number of N-1 electron functions:              12
 Number of N-2 electron functions:              66
 Number of singly external CSFs:               300
 Number of doubly external CSFs:            127947
 Total number of CSFs:                      128247

 Molecular orbitals read from record     2100.2  Type=RHF/CANONICAL (state 1.1)

 Integral transformation finished. Total CPU:   0.10 sec, npass=  1  Memory used:   0.90 MW

 Starting RMP2 calculation

 Wavefunction is spin-projected

 ITER.      SQ.NORM     CORR.ENERGY   TOTAL ENERGY   ENERGY CHANGE        DEN1      VAR(S)    VAR(P)  DIIS     TIME
   1      1.09789521    -0.42451903   -58.03421992    -0.42451903    -0.00124273  0.25D-05  0.11D-02  1  1     0.12
   2      1.10101412    -0.42587689   -58.03557778    -0.00135785    -0.00002631  0.33D-07  0.33D-04  2  2     0.13
   3      1.10163000    -0.42605146   -58.03575235    -0.00017458    -0.00000013  0.95D-09  0.14D-06  3  3     0.14
   4      1.10165048    -0.42605467   -58.03575556    -0.00000321    -0.00000000  0.74D-11  0.16D-08  4  4     0.15
   5      1.10165078    -0.42605464   -58.03575553     0.00000003    -0.00000000  0.55D-12  0.93D-11  5  5     0.16

 Norm of t1 vector:      0.03236677      S-energy:    -0.00460770      T1 diagnostic:  0.00006094
 Norm of t2 vector:      0.31718003      P-energy:    -0.42144694
                                         Alpha-Beta:  -0.31600822
                                         Alpha-Alpha: -0.06402722
                                         Beta-Beta:   -0.04141150

 Spin contamination <S**2-Sz**2-Sz>     0.00000000
  Reference energy                    -57.609700890255
  RHF-RMP2 correlation energy          -0.426054639227
 !RHF-RMP2 energy                     -58.035755529481
 (NB above energy spin projected)

 Starting RCCSD calculation

 ITER.      SQ.NORM     CORR.ENERGY   TOTAL ENERGY   ENERGY CHANGE        DEN1      VAR(S)    VAR(P)  DIIS     TIME
   1      1.10776821    -0.43433142   -58.04403231    -0.43433142    -0.00818960  0.23D-02  0.31D-02  1  1     0.41
   2      1.12477777    -0.44277067   -58.05247156    -0.00843925    -0.00094564  0.39D-03  0.62D-03  2  2     0.67
   3      1.13517754    -0.44499174   -58.05469263    -0.00222107    -0.00017327  0.11D-03  0.11D-03  3  3     0.92
   4      1.14213385    -0.44612370   -58.05582459    -0.00113196    -0.00001622  0.86D-05  0.96D-05  4  4     1.17
   5      1.14433138    -0.44637920   -58.05608010    -0.00025551    -0.00000141  0.31D-06  0.98D-06  5  5     1.42
   6      1.14461690    -0.44640062   -58.05610151    -0.00002142    -0.00000028  0.28D-07  0.23D-06  6  6     1.66
   7      1.14467519    -0.44640548   -58.05610637    -0.00000485    -0.00000006  0.56D-08  0.45D-07  6  1     1.92
   8      1.14465626    -0.44640130   -58.05610219     0.00000417    -0.00000001  0.12D-08  0.71D-08  6  2     2.17
   9      1.14466087    -0.44640241   -58.05610330    -0.00000110    -0.00000000  0.30D-09  0.14D-08  6  3     2.42
  10      1.14465793    -0.44640183   -58.05610272     0.00000058    -0.00000000  0.29D-10  0.19D-09  6  4     2.67

 Norm of t1 vector:      0.11096303      S-energy:    -0.00450616      T1 diagnostic:  0.02137311
                                                                       D1 diagnostic:  0.06997449
 Norm of t2 vector:      0.36379272      P-energy:    -0.44189567
                                         Alpha-Beta:  -0.34012954
                                         Alpha-Alpha: -0.06196043
                                         Beta-Beta:   -0.03980569

 Singles amplitudes (print threshold =  0.500E-01):

         I         SYM. A    A   T(IA) [Alpha-Alpha]

         2         1         3     -0.06524738
         2         1         8     -0.05304954

 Doubles amplitudes (print threshold =  0.500E-01):

         I         J         SYM. A    SYM. B    A         B      T(IJ, AB) [Alpha-Beta]

         2         2         2         2         1         1     -0.07987883
         2         2         2         2         1         2     -0.05717019
         2         2         2         2         2         1     -0.05717019
         2         2         3         3         1         1     -0.07987883
         2         2         3         3         1         2     -0.05717019
         2         2         3         3         2         1     -0.05717019
         2         2         5         5         1         1     -0.07987883
         2         2         5         5         1         2     -0.05717019
         2         2         5         5         2         1     -0.05717019

 Spin contamination <S**2-Sz**2-Sz>     0.00000000

 Memory could be reduced to 5.59 Mwords without degradation in triples
 

  Correlated core orbitals:             1.1       1.2       1.3       1.5
  Orbital energies:                    -2.9960   -1.8939   -1.8939   -1.8939
 
  RCCSD core-core energy               -0.257517761533
  RCCSD core-valence energy            -0.139538722444
  RCCSD valence correlation energy     -0.049345346813
 

 RESULTS
 =======

  Reference energy                    -57.609700890255
  RCCSD singles energy                 -0.004506160747
  RCCSD pair energy                    -0.441895670042
  RCCSD correlation energy             -0.446401830789
  Triples (T) contribution             -0.015986264893
  Total correlation energy             -0.462388095682
 
  RHF-RCCSD energy                    -58.056102721044
  RHF-RCCSD[T] energy                 -58.072302249436
  RHF-RCCSD-T energy                  -58.072060791414
 !RHF-RCCSD(T) energy                 -58.072088985937

 Program statistics:

 Available memory in ccsd:               511999438
 Min. memory needed in ccsd:                435462
 Max. memory used in ccsd:                  582828
 Max. memory used in cckext:                483252 (10 integral passes)
 Max. memory used in cckint:                902937 ( 1 integral passes)



 **********************************************************************************************************************************
 DATASETS  * FILE   NREC   LENGTH (MB)   RECORD NAMES
              1      20       48.35       500      610      700      900      950      970     1000      129      960     1100   
                                          VAR    BASINP    GEOM    SYMINP    ZMAT    AOBASIS   BASIS     P2S    ABASIS      S 
                                         1400     1410     1420     1200     1210     1080     1600     1650     1300     1700   
                                         EKIN       V       ECP      H0       H01     AOSYM     SMH    MOLCAS    ERIS     OPER   

              2       4        2.86       700     1000      520     2100   
                                         GEOM     BASIS   MCVARS     RHF  

 PROGRAMS   *        TOTAL  RCCSD(T)        HF       INT
 CPU TIMES  *        11.36      6.20      0.44      4.52
 REAL TIME  *        27.23 SEC
 DISK USED  *       131.09 MB      
 **********************************************************************************************************************************
 SETTING POSTHF(I)      =       -58.07208899  AU                              
                                                                                                                                                                                                                                                                

        SCF            POSTHF        EKIN           POT
    -57.60970089   -58.07208899   25.86652880   -10.95407796
                                                  

 RCCSD(T)/USERDEF energy=    -58.072088985937

        RCCSD(T)        HF-SCF  
    -58.07208899    -57.60970089
 **********************************************************************************************************************************
 Variable memory released
