TACC:  Starting up job 3912539 
TACC:  Starting parallel tasks... 
  Input file(s): As.log.qmc.in-wfj.xml 

=====================================================
                    QMCPACK 3.7.9

       (c) Copyright 2003-  QMCPACK developers

                    Please cite:
 J. Kim et al. J. Phys. Cond. Mat. 30 195901 (2018)
      https://doi.org/10.1088/1361-648X/aab9c3

  Git branch: develop
  Last git commit: 9a049a3fb3e0d7110d61a924a52203fd8296522a
  Last git commit date: Mon Jul 1 13:42:43 2019 -0500
  Last git commit subject: Merge pull request #1686 from ye-luo/rename-to-LCAOHDFParser
=====================================================
  Global options 

  Total number of MPI ranks = 1024
  Number of MPI groups      = 1
  MPI group ID              = 0
  Number of ranks in group  = 1024
  MPI ranks per node        = 64
  OMP 1st level threads     = 1
  OMP nested threading disabled or only 1 thread on the 2nd level

  Precision used in this calculation, see definitions in the manual:
  Base precision      = double
  Full precision      = double

  Structure-of-arrays (SoA) optimization enabled

  Input XML = As.log.qmc.in-wfj.xml

  Project = As.log
  date    = 2019-07-01 20:03:46 CDT
  host    = c456-004.stampede2.tacc.utexas.edu

 Random Number
 -------------
  Offset for the random number seeds based on time: 370

  Range of prime numbers to use as seeds over processors and threads = 2543-11597


 Particle Set 
 ------------
  Name: ion0
  All the species have the same mass 1
  Particle set size: 1

 Particle Set 
 ------------
  Name: e
  All the species have the same mass 1
  Particle set size: 5

 Wavefunction setup: 
 ------------------- 
  Name: psi0
  LCAO: SoaAtomicBasisSet<MultiQuintic,1>
Reading BasisSet from HDF5 file:As.log.h5
<input node="atomicBasisSet" name="gaussian" expandYlm="pyscf" angular="spherical" elementType="As" normalized="no" type="Numerical" expM="0" />
  AO BasisSet for As
   Spherical Harmonics contain (-1)^m factor
   Angular momentum m expanded as -l, ... ,l, with the exception of L=1 (1,-1,0)
   Grid is created by the input paremters in h5
    Using log grid ri = 1e-06 rf = 100 npts = 1001
   R(n,l,m,s) 0 0 0 0
   R(n,l,m,s) 1 0 0 0
   R(n,l,m,s) 2 1 0 0
   R(n,l,m,s) 3 1 0 0
   R(n,l,m,s) 4 2 0 0
Expanding Ylm as L=1 as (1,-1,0) and L>1 as -l,-l+1,...,l-1,l
   Adding 1 spherical orbitals
   Adding 1 spherical orbitals
   Adding 3 spherical orbitals
   Adding 3 spherical orbitals
   Adding 5 spherical orbitals
  Setting cutoff radius 15.5597

   Maximum Angular Momentum  = 2
   Number of Radial functors = 5
   Basis size                = 13

  Created SPOSet builder named 'LCAOBSet' of type molecularorbital
Reuse SPOSetBuilder "LCAOBSet" type MolecularOrbital
  Building SPOSet '' with '' basis set.
Reuse SPOSetBuilder "LCAOBSet" type MolecularOrbital
  Building SPOSet '' with '' basis set.
  Creating a determinant updet group=0 sposet=updet
  Reusing a SPO set updet
Using DiracDeterminant with DelayedUpdate engine
Using rank-1 Sherman-Morrison Fahy update

  Creating a determinant downdet group=1 sposet=downdet
  Reusing a SPO set downdet
Using DiracDeterminant with DelayedUpdate engine
Using rank-1 Sherman-Morrison Fahy update

  FermionWF = SlaterDet

   Jastrow
   -------
    Name: J2   Type: Two-Body   Function: Bspline

    Radial function for species: u - u
     Number of parameters: 10
     Cusp: -0.25
     Cutoff radius: 10

     Name                        Value Type Recompute Use Index
     ---- ---------------------------- ---- --------- --- -----
     uu_0                 5.904846e-01    1         1  ON     0
     uu_1                 4.133233e-01    1         1  ON     1
     uu_2                 2.680673e-01    1         1  ON     2
     uu_3                 1.526449e-01    1         1  ON     3
     uu_4                 6.078453e-02    1         1  ON     4
     uu_5                -9.747362e-03    1         1  ON     5
     uu_6                -6.169781e-02    1         1  ON     6
     uu_7                -9.712008e-02    1         1  ON     7
     uu_8                -1.101876e-01    1         1  ON     8
     uu_9                -1.018810e-01    1         1  ON     9

    Radial function for species: u - d
     Number of parameters: 10
     Cusp: -0.5
     Cutoff radius: 10

     Name                        Value Type Recompute Use Index
     ---- ---------------------------- ---- --------- --- -----
     ud_0                 7.682951e-01    1         1  ON     0
     ud_1                 4.285622e-01    1         1  ON     1
     ud_2                 2.126604e-01    1         1  ON     2
     ud_3                 6.836075e-02    1         1  ON     3
     ud_4                -3.180722e-02    1         1  ON     4
     ud_5                -1.051551e-01    1         1  ON     5
     ud_6                -1.567625e-01    1         1  ON     6
     ud_7                -1.888281e-01    1         1  ON     7
     ud_8                -1.970531e-01    1         1  ON     8
     ud_9                -1.865226e-01    1         1  ON     9


   Jastrow
   -------
    Name: J1   Type: One-Body   Function: Bspline

    Radial function for element: As
     Number of parameters: 10
     Cusp: 0
     Cutoff radius: 10

      Name                        Value Type Recompute Use Index
     ----- ---------------------------- ---- --------- --- -----
     eAs_0                -1.112554e+00    1         1  ON     0
     eAs_1                -6.186563e-01    1         1  ON     1
     eAs_2                -4.401438e-01    1         1  ON     2
     eAs_3                -1.291558e-01    1         1  ON     3
     eAs_4                 1.168268e-01    1         1  ON     4
     eAs_5                 3.349300e-01    1         1  ON     5
     eAs_6                 4.722802e-01    1         1  ON     6
     eAs_7                 5.574750e-01    1         1  ON     7
     eAs_8                 5.064510e-01    1         1  ON     8
     eAs_9                 2.837409e-01    1         1  ON     9


   Jastrow
   -------
    Name: J3   Type: eeI   Function: polynomial

     Ion: As   electron-electron: u - u
      Number of parameters for e-e: 3, for e-I: 3
      Cutoff radius: 10

Expected 26 parameters, but found 0 in PolynomialFunctor3D.
         Name                        Value Type Recompute Use Index
      ------- ---------------------------- ---- --------- --- -----
       uuAs_0                 0.000000e+00    1         1  ON     0
       uuAs_1                 0.000000e+00    1         1  ON     1
       uuAs_2                 0.000000e+00    1         1  ON     2
       uuAs_3                 0.000000e+00    1         1  ON     3
       uuAs_4                 0.000000e+00    1         1  ON     4
       uuAs_5                 0.000000e+00    1         1  ON     5
       uuAs_6                 0.000000e+00    1         1  ON     6
       uuAs_7                 0.000000e+00    1         1  ON     7
       uuAs_8                 0.000000e+00    1         1  ON     8
       uuAs_9                 0.000000e+00    1         1  ON     9
      uuAs_10                 0.000000e+00    1         1  ON    10
      uuAs_11                 0.000000e+00    1         1  ON    11
      uuAs_12                 0.000000e+00    1         1  ON    12
      uuAs_13                 0.000000e+00    1         1  ON    13
      uuAs_14                 0.000000e+00    1         1  ON    14
      uuAs_15                 0.000000e+00    1         1  ON    15
      uuAs_16                 0.000000e+00    1         1  ON    16
      uuAs_17                 0.000000e+00    1         1  ON    17
      uuAs_18                 0.000000e+00    1         1  ON    18
      uuAs_19                 0.000000e+00    1         1  ON    19
      uuAs_20                 0.000000e+00    1         1  ON    20
      uuAs_21                 0.000000e+00    1         1  ON    21
      uuAs_22                 0.000000e+00    1         1  ON    22
      uuAs_23                 0.000000e+00    1         1  ON    23
      uuAs_24                 0.000000e+00    1         1  ON    24
      uuAs_25                 0.000000e+00    1         1  ON    25

     Ion: As   electron-electron: u - d
      Number of parameters for e-e: 3, for e-I: 3
      Cutoff radius: 10

Expected 26 parameters, but found 0 in PolynomialFunctor3D.
         Name                        Value Type Recompute Use Index
      ------- ---------------------------- ---- --------- --- -----
       udAs_0                 0.000000e+00    1         1  ON     0
       udAs_1                 0.000000e+00    1         1  ON     1
       udAs_2                 0.000000e+00    1         1  ON     2
       udAs_3                 0.000000e+00    1         1  ON     3
       udAs_4                 0.000000e+00    1         1  ON     4
       udAs_5                 0.000000e+00    1         1  ON     5
       udAs_6                 0.000000e+00    1         1  ON     6
       udAs_7                 0.000000e+00    1         1  ON     7
       udAs_8                 0.000000e+00    1         1  ON     8
       udAs_9                 0.000000e+00    1         1  ON     9
      udAs_10                 0.000000e+00    1         1  ON    10
      udAs_11                 0.000000e+00    1         1  ON    11
      udAs_12                 0.000000e+00    1         1  ON    12
      udAs_13                 0.000000e+00    1         1  ON    13
      udAs_14                 0.000000e+00    1         1  ON    14
      udAs_15                 0.000000e+00    1         1  ON    15
      udAs_16                 0.000000e+00    1         1  ON    16
      udAs_17                 0.000000e+00    1         1  ON    17
      udAs_18                 0.000000e+00    1         1  ON    18
      udAs_19                 0.000000e+00    1         1  ON    19
      udAs_20                 0.000000e+00    1         1  ON    20
      udAs_21                 0.000000e+00    1         1  ON    21
      udAs_22                 0.000000e+00    1         1  ON    22
      udAs_23                 0.000000e+00    1         1  ON    23
      udAs_24                 0.000000e+00    1         1  ON    24
      udAs_25                 0.000000e+00    1         1  ON    25

  QMCHamiltonian::addOperator Kinetic to H, physical Hamiltonian 
  QMCHamiltonian::addOperator ElecElec to H, physical Hamiltonian 
QMCHamiltonian::addOperatorType added type coulomb named ElecElec
  CoulombAA for ion0 is not created.  Number of particles == 1 and nonPeriodic

  ECPotential builder for pseudopotential 

  Adding pseudopotential for As
   Linear grid  ri=0 rf=10 npts = 10001
    ECPComponentBuilder::buildSemiLocalAndLocal 
    Assuming Hartree unit
   Number of angular momentum channels 4
   Maximum angular momentum channel 3
   Creating a Linear Grid Rmax=2.78
  Using global grid with delta = 0.001
   Making L=3 a local potential with a radial cutoff of 9.999
    Non-local pseudopotential parameters
    Maximum angular mementum = 2
    Number of non-local channels = 3
       l(0)=0
       l(1)=1
       l(2)=2
    Cutoff radius = 2.78
    Spherical grids and weights: 
                        1                 0                 0       0.08333333333
                       -1   1.224646799e-16                 0       0.08333333333
             0.4472135955       0.894427191                 0       0.08333333333
            -0.4472135955      0.7236067977      0.5257311121       0.08333333333
             0.4472135955      0.2763932023      0.8506508084       0.08333333333
            -0.4472135955     -0.2763932023      0.8506508084       0.08333333333
             0.4472135955     -0.7236067977      0.5257311121       0.08333333333
            -0.4472135955      -0.894427191   1.095357397e-16       0.08333333333
             0.4472135955     -0.7236067977     -0.5257311121       0.08333333333
            -0.4472135955     -0.2763932023     -0.8506508084       0.08333333333
             0.4472135955      0.2763932023     -0.8506508084       0.08333333333
            -0.4472135955      0.7236067977     -0.5257311121       0.08333333333
    Maximum cutoff radius 2.78
  QMCHamiltonian::addOperator LocalECP to H, physical Hamiltonian 

  Using NonLocalECP potential 
    Maximum grid on a sphere for NonLocalECPotential: 12
  QMCHamiltonian::addOperator NonLocalECP to H, physical Hamiltonian 
QMCHamiltonian::addOperatorType added type pseudo named PseudoPot

  QMCHamiltonian::add2WalkerProperty added
    4 to P::PropertyList 
    0 to P::Collectables 
    starting Index of the observables in P::PropertyList = 9
ParticleSetPool::randomize 
<init source="ion0" target="e">
</init>
  Initialization Execution time = 0.445 secs
=========================================================
 Summary of QMC systems 
=========================================================
ParticleSetPool has: 

  ParticleSet 'e' contains 5 particles :  u(4) d(1)

    u -1.0932045494e-02  6.0295665694e-01 -1.5400303880e-01
    u -9.8054587356e-02 -2.3196856418e+00 -1.4030118887e-01
    u  2.6367343275e+00  6.6199641188e-02  1.6754402244e+00
    u -6.5277843233e-01 -1.4861429141e-01 -2.4705449722e-01
    d -5.8240271535e-01 -7.0345632260e-01 -4.6723068622e-01

  Distance table for dissimilar particles (A-B):
    source: ion0  target: e
    Using structure-of-arrays (SoA) data layout
    Distance computations use open boundary conditions in 3D.

  Distance table for similar particles (A-A):
    source/target: e
    Using structure-of-arrays (SoA) data layout
    Distance computations use open boundary conditions in 3D.


  ParticleSet 'ion0' contains 1 particles :  As(1)

    As  0.0000000000e+00  0.0000000000e+00  0.0000000000e+00


  Hamiltonian h0
  Kinetic         Kinetic energy
  ElecElec        CoulombAB source=e

  LocalECP        LocalECPotential: ion0
  NonLocalECP     NonLocalECPotential: ion0


=========================================================
  Start VMC
  File Root As.log.s000 append = no 
=========================================================
  Adding 1 walkers to 0 existing sets
  Total number of walkers: 1.0240000000e+03
  Total weight: 1.0240000000e+03
  Resetting Properties of the walkers 1 x 13

<vmc function="put">
  qmc_counter=0  my_counter=0
  time step      = 1.5000000000e-01
  blocks         = 200
  steps          = 1
  substeps       = 5
  current        = 0
  target samples = 1.0240000000e+03
  walkers/mpi    = 1

  stepsbetweensamples = 200
<parameter name="blocks" condition="int">200</parameter>
<parameter name="blocks_between_recompute" condition="int">0</parameter>
<parameter name="check_properties" condition="int">100</parameter>
<parameter name="checkproperties" condition="int">100</parameter>
<parameter name="current" condition="int">0</parameter>
<parameter name="dmcwalkersperthread" condition="real">1.0000000000e+00</parameter>
<parameter name="maxcpusecs" condition="real">3.6000000000e+05</parameter>
<parameter name="record_configs" condition="int">0</parameter>
<parameter name="record_walkers" condition="int">200</parameter>
<parameter name="recordconfigs" condition="int">0</parameter>
<parameter name="recordwalkers" condition="int">200</parameter>
<parameter name="rewind" condition="int">0</parameter>
<parameter name="samples" condition="real">1.0240000000e+03</parameter>
<parameter name="samplesperthread" condition="real">1.0000000000e+00</parameter>
<parameter name="steps" condition="int">1</parameter>
<parameter name="stepsbetweensamples" condition="int">200</parameter>
<parameter name="store_configs" condition="int">0</parameter>
<parameter name="storeconfigs" condition="int">0</parameter>
<parameter name="sub_steps" condition="int">5</parameter>
<parameter name="substeps" condition="int">5</parameter>
<parameter name="tau" condition="au">1.5000000000e-01</parameter>
<parameter name="time_step" condition="au">1.5000000000e-01</parameter>
<parameter name="timestep" condition="au">1.5000000000e-01</parameter>
<parameter name="use_drift" condition="string">no</parameter>
<parameter name="usedrift" condition="string">no</parameter>
<parameter name="walkers" condition="int">1</parameter>
<parameter name="warmup_steps" condition="int">100</parameter>
<parameter name="warmupsteps" condition="int">100</parameter>
  DumpConfig==false Nothing (configurations, state) will be saved.
  Walker Samples are dumped every 200 steps.
</vmc>
  Set drift_modifier UNR parameter a = 1.0000000000e+00
  Initial partition of walkers 0 1 

  Using Particle by Particle moves
  Walker moves without drift
  Total Sample Size   =1024
  Walker distribution on root = 0 1 
  Using Locality Approximation
===== Memory Usage after the buffer registration =====
Available memory on node 0, free + buffers : 50303 MB
Memory footprint by rank 0 on node 0       : 573 MB
==================================================
  Anonymous Buffer size per walker : 2176 Bytes.
MEMORY increase 0 MB VMC::resetRun
====================================================
  SimpleFixedNodeBranch::finalize after a VMC block
    QMC counter        = 0
    time step          = 0.15
    reference energy   = -6.14774
    reference variance = 0.109353
====================================================
  QMC Execution time = 1.9369e+00 secs
Loop execution max-interations = 20

=========================================================
  Start QMCFixedSampleLinearOptimize
  File Root As.log.s001 append = no 
=========================================================
  Skip QMCDriver::putQMCInfo 
  Resetting Properties of the walkers 1 x 13

=========================================================
  Start VMC
  File Root As.log.s001 append = no 
=========================================================
  Using the current 1 walkers.
  Total number of walkers: 1.0240e+03
  Total weight: 1.0240e+03
  Resetting Properties of the walkers 1 x 13

<vmc function="put">
  qmc_counter=0  my_counter=0
  time step      = 1.5000e-01
  blocks         = 500
  steps          = 1
  substeps       = 5
  current        = 0
  target samples = 5.1200e+05
  walkers/mpi    = 1

  stepsbetweensamples = 1
<parameter name="blocks" condition="int">500</parameter>
<parameter name="blocks_between_recompute" condition="int">0</parameter>
<parameter name="check_properties" condition="int">100</parameter>
<parameter name="checkproperties" condition="int">100</parameter>
<parameter name="current" condition="int">0</parameter>
<parameter name="dmcwalkersperthread" condition="real">5.0000e+02</parameter>
<parameter name="maxcpusecs" condition="real">3.6000e+05</parameter>
<parameter name="record_configs" condition="int">0</parameter>
<parameter name="record_walkers" condition="int">1</parameter>
<parameter name="recordconfigs" condition="int">0</parameter>
<parameter name="recordwalkers" condition="int">1</parameter>
<parameter name="rewind" condition="int">0</parameter>
<parameter name="samples" condition="real">5.1200e+05</parameter>
<parameter name="samplesperthread" condition="real">5.0000e+02</parameter>
<parameter name="steps" condition="int">1</parameter>
<parameter name="stepsbetweensamples" condition="int">1</parameter>
<parameter name="store_configs" condition="int">0</parameter>
<parameter name="storeconfigs" condition="int">0</parameter>
<parameter name="sub_steps" condition="int">5</parameter>
<parameter name="substeps" condition="int">5</parameter>
<parameter name="tau" condition="au">1.5000e-01</parameter>
<parameter name="time_step" condition="au">1.5000e-01</parameter>
<parameter name="timestep" condition="au">1.5000e-01</parameter>
<parameter name="use_drift" condition="string">no</parameter>
<parameter name="usedrift" condition="string">no</parameter>
<parameter name="walkers" condition="int">1</parameter>
<parameter name="warmup_steps" condition="int">0</parameter>
<parameter name="warmupsteps" condition="int">0</parameter>
  DumpConfig==false Nothing (configurations, state) will be saved.
  Walker Samples are dumped every 1 steps.
</vmc>
    Restarting, cummulative properties:
      energy     = -6.1477e+00
      variance   = 0.0000e+00
      r2accepted = 1.0000e-10
      r2proposed = 1.0000e-10
  Set drift_modifier UNR parameter a = 1.0000e+00
 Using QMCCostFunction::QMCCostFunction
  Set drift_modifier UNR parameter a = 1.0000e+00
  EstimatorManagerBase::add replace LocalEnergy estimator.
<optimization-report>
<vmc stage="main" blocks="500">
  Cannot make clones again. Use existing 1 clones
  Initial partition of walkers 0 1 

  Using Particle by Particle moves
  Walker moves without drift
  Total Sample Size   =512000
  Walker distribution on root = 0 1 
  Using Locality Approximation
===== Memory Usage after the buffer registration =====
Available memory on node 0, free + buffers : 50290 MB
Memory footprint by rank 0 on node 0       : 574 MB
==================================================
  Anonymous Buffer size per walker : 2176 Bytes.
MEMORY increase 0 MB VMC::resetRun
====================================================
  SimpleFixedNodeBranch::finalize after a VMC block
    QMC counter        = 1
    time step          = 0.15
    reference energy   = -6.13793
    reference variance = 0.0959521
====================================================
  Execution time = 3.5724e+00
</vmc>
<opt stage="setup">
  <log>
   Reading configurations from h5FileRoot As.log.s001
  QMCCostFunction is created with 1 threads.
  Using Nonlocal PP in Opt: NonLocalECP
   Number of samples loaded to each thread : 500 
  VMC Eavg = -6.1731e+00
  VMC Evar = 6.2884e-01
  Total weights = 5.1200e+05
  Execution time = 9.5635e-01
  </log>
</opt>
<opt stage="main" walkers="512000">
  <log>

*****************************************
Building overlap and Hamiltonian matrices
*****************************************

Among totally 82 optimized parameters, largest LM parameter change : 6.2649e-02 at parameter 24

******************************************************************************
Init Cost =  -5.8330e+00    New Cost =  -5.8377e+00  Delta Cost =  -4.6557e-03
******************************************************************************

The new set of parameters is valid. Updating the trial wave function!

*****************************************************************************
Applying the update for shift_i =   1.0000e-02     and shift_s =   2.5000e-01
*****************************************************************************
  Execution time = 5.5398e+00
  </log>
  <optVariables href="As.log.s001.opt.xml">
   uu_0                 5.710639e-01 1 1  ON 0
   uu_1                 3.554212e-01 1 1  ON 1
   uu_2                 2.271813e-01 1 1  ON 2
   uu_3                 1.427706e-01 1 1  ON 3
   uu_4                 7.507045e-02 1 1  ON 4
   uu_5                 1.836202e-02 1 1  ON 5
   uu_6                -3.268227e-02 1 1  ON 6
   uu_7                -6.989427e-02 1 1  ON 7
   uu_8                -9.027678e-02 1 1  ON 8
   uu_9                -8.758956e-02 1 1  ON 9
   ud_0                 8.188359e-01 1 1  ON 10
   ud_1                 4.791882e-01 1 1  ON 11
   ud_2                 2.367338e-01 1 1  ON 12
   ud_3                 6.340085e-02 1 1  ON 13
   ud_4                -3.652428e-02 1 1  ON 14
   ud_5                -1.078708e-01 1 1  ON 15
   ud_6                -1.674904e-01 1 1  ON 16
   ud_7                -2.087906e-01 1 1  ON 17
   ud_8                -2.213463e-01 1 1  ON 18
   ud_9                -2.061772e-01 1 1  ON 19
  eAs_0                -1.151695e+00 1 1  ON 20
  eAs_1                -5.715142e-01 1 1  ON 21
  eAs_2                -4.753994e-01 1 1  ON 22
  eAs_3                -1.422770e-01 1 1  ON 23
  eAs_4                 1.794755e-01 1 1  ON 24
  eAs_5                 2.932625e-01 1 1  ON 25
  eAs_6                 4.624220e-01 1 1  ON 26
  eAs_7                 5.475618e-01 1 1  ON 27
  eAs_8                 5.127616e-01 1 1  ON 28
  eAs_9                 3.024336e-01 1 1  ON 29
 uuAs_0                 6.340341e-05 1 1  ON 30
 uuAs_1                -1.418889e-04 1 1  ON 31
 uuAs_2                -5.474188e-05 1 1  ON 32
 uuAs_3                 1.699059e-05 1 1  ON 33
 uuAs_4                 1.668410e-05 1 1  ON 34
 uuAs_5                 1.816021e-05 1 1  ON 35
 uuAs_6                -2.822607e-04 1 1  ON 36
 uuAs_7                 5.294064e-05 1 1  ON 37
 uuAs_8                 1.027538e-05 1 1  ON 38
 uuAs_9                 9.989518e-05 1 1  ON 39
uuAs_10                 3.995904e-05 1 1  ON 40
uuAs_11                -4.357489e-05 1 1  ON 41
uuAs_12                 1.990041e-06 1 1  ON 42
uuAs_13                 5.909799e-05 1 1  ON 43
uuAs_14                 1.249535e-05 1 1  ON 44
uuAs_15                -1.202771e-06 1 1  ON 45
uuAs_16                -1.540545e-04 1 1  ON 46
uuAs_17                 6.467764e-05 1 1  ON 47
uuAs_18                 3.374774e-05 1 1  ON 48
uuAs_19                -6.158974e-06 1 1  ON 49
uuAs_20                -1.687032e-05 1 1  ON 50
uuAs_21                -9.064548e-06 1 1  ON 51
uuAs_22                 1.795011e-06 1 1  ON 52
uuAs_23                 1.200595e-05 1 1  ON 53
uuAs_24                 1.426310e-06 1 1  ON 54
uuAs_25                -3.997198e-07 1 1  ON 55
 udAs_0                -1.858919e-04 1 1  ON 56
 udAs_1                 1.979046e-05 1 1  ON 57
 udAs_2                 1.687221e-04 1 1  ON 58
 udAs_3                 1.532507e-04 1 1  ON 59
 udAs_4                -1.458098e-05 1 1  ON 60
 udAs_5                -1.583338e-05 1 1  ON 61
 udAs_6                 3.634883e-04 1 1  ON 62
 udAs_7                 1.140109e-05 1 1  ON 63
 udAs_8                -4.292668e-06 1 1  ON 64
 udAs_9                -8.449643e-05 1 1  ON 65
udAs_10                 6.214888e-05 1 1  ON 66
udAs_11                -5.918217e-05 1 1  ON 67
udAs_12                 1.245500e-06 1 1  ON 68
udAs_13                -2.177976e-04 1 1  ON 69
udAs_14                -1.980741e-05 1 1  ON 70
udAs_15                 1.619262e-06 1 1  ON 71
udAs_16                 2.842735e-04 1 1  ON 72
udAs_17                -2.737875e-04 1 1  ON 73
udAs_18                 7.339929e-05 1 1  ON 74
udAs_19                 8.803373e-08 1 1  ON 75
udAs_20                 2.770796e-05 1 1  ON 76
udAs_21                -1.976287e-06 1 1  ON 77
udAs_22                -7.600247e-07 1 1  ON 78
udAs_23                -7.729968e-06 1 1  ON 79
udAs_24                 7.473535e-08 1 1  ON 80
udAs_25                 1.715511e-07 1 1  ON 81
  </optVariables>
   Restore the number of walkers to 1, removing 0 walkers.
</opt>
</optimization-report>
  QMC Execution time = 5.552 secs
  Reusing QMCFixedSampleLinearOptimize
 Using QMCCostFunction::QMCCostFunction

=========================================================
  Start QMCFixedSampleLinearOptimize
  File Root As.log.s002 append = no 
=========================================================
  Skip QMCDriver::putQMCInfo 
  Resetting Properties of the walkers 1 x 13

=========================================================
  Start VMC
  File Root As.log.s002 append = no 
=========================================================
Using existing walkers 
  Resetting Properties of the walkers 1 x 13

<vmc function="put">
  qmc_counter=1  my_counter=1
  time step      = 1.5000e-01
  blocks         = 500
  steps          = 1
  substeps       = 5
  current        = 0
  target samples = 5.1200e+05
  walkers/mpi    = 1

  stepsbetweensamples = 1
<parameter name="blocks" condition="int">500</parameter>
<parameter name="blocks_between_recompute" condition="int">0</parameter>
<parameter name="check_properties" condition="int">100</parameter>
<parameter name="checkproperties" condition="int">100</parameter>
<parameter name="current" condition="int">0</parameter>
<parameter name="dmcwalkersperthread" condition="real">5.0000e+02</parameter>
<parameter name="maxcpusecs" condition="real">3.6000e+05</parameter>
<parameter name="record_configs" condition="int">0</parameter>
<parameter name="record_walkers" condition="int">1</parameter>
<parameter name="recordconfigs" condition="int">0</parameter>
<parameter name="recordwalkers" condition="int">1</parameter>
<parameter name="rewind" condition="int">0</parameter>
<parameter name="samples" condition="real">5.1200e+05</parameter>
<parameter name="samplesperthread" condition="real">5.0000e+02</parameter>
<parameter name="steps" condition="int">1</parameter>
<parameter name="stepsbetweensamples" condition="int">1</parameter>
<parameter name="store_configs" condition="int">0</parameter>
<parameter name="storeconfigs" condition="int">0</parameter>
<parameter name="sub_steps" condition="int">5</parameter>
<parameter name="substeps" condition="int">5</parameter>
<parameter name="tau" condition="au">1.5000e-01</parameter>
<parameter name="time_step" condition="au">1.5000e-01</parameter>
<parameter name="timestep" condition="au">1.5000e-01</parameter>
<parameter name="use_drift" condition="string">no</parameter>
<parameter name="usedrift" condition="string">no</parameter>
<parameter name="walkers" condition="int">1</parameter>
<parameter name="warmup_steps" condition="int">0</parameter>
<parameter name="warmupsteps" condition="int">0</parameter>
  DumpConfig==false Nothing (configurations, state) will be saved.
  Walker Samples are dumped every 1 steps.
</vmc>
  Set drift_modifier UNR parameter a = 1.0000e+00
  EstimatorManagerBase::add replace LocalEnergy estimator.
  Set drift_modifier UNR parameter a = 1.0000e+00
  EstimatorManagerBase::add replace LocalEnergy estimator.
<optimization-report>
<vmc stage="main" blocks="500">
  Cannot make clones again. Use existing 1 clones
  Initial partition of walkers 0 1 
  Using Particle by Particle moves
  Walker moves without drift
  Total Sample Size   =512000
  Walker distribution on root = 0 1 
  Using Locality Approximation
===== Memory Usage after the buffer registration =====
Available memory on node 0, free + buffers : 49587 MB
Memory footprint by rank 0 on node 0       : 588 MB
==================================================
====================================================
  SimpleFixedNodeBranch::finalize after a VMC block
    QMC counter        = 2
    time step          = 0.15
    reference energy   = -6.14367
    reference variance = 0.16191
====================================================
  Execution time = 3.6002e+00
</vmc>
<opt stage="setup">
  <log>
   Reading configurations from h5FileRoot As.log.s002
  QMCCostFunction is created with 1 threads.
  Using Nonlocal PP in Opt: NonLocalECP
   Number of samples loaded to each thread : 500 
  VMC Eavg = -6.1793e+00
  VMC Evar = 7.5537e-01
  Total weights = 5.1200e+05
  Execution time = 9.7483e-01
  </log>
</opt>
<opt stage="main" walkers="512000">
  <log>

*****************************************
Building overlap and Hamiltonian matrices
*****************************************

Among totally 82 optimized parameters, largest LM parameter change : 4.0827e-02 at parameter 20

******************************************************************************
Init Cost =  -5.8326e+00    New Cost =  -5.8312e+00  Delta Cost =   1.3757e-03
******************************************************************************

The new set of parameters is valid. Updating the trial wave function!

*****************************************************************************
Applying the update for shift_i =   1.0000e-02     and shift_s =   6.2500e-02
*****************************************************************************
  Execution time = 5.5340e+00
  </log>
  <optVariables href="As.log.s002.opt.xml">
   uu_0                 5.458264e-01 1 1  ON 0
   uu_1                 3.225127e-01 1 1  ON 1
   uu_2                 2.081106e-01 1 1  ON 2
   uu_3                 1.359321e-01 1 1  ON 3
   uu_4                 7.917500e-02 1 1  ON 4
   uu_5                 2.879671e-02 1 1  ON 5
   uu_6                -1.982590e-02 1 1  ON 6
   uu_7                -5.154490e-02 1 1  ON 7
   uu_8                -6.921477e-02 1 1  ON 8
   uu_9                -7.130339e-02 1 1  ON 9
   ud_0                 8.570437e-01 1 1  ON 10
   ud_1                 5.126645e-01 1 1  ON 11
   ud_2                 2.551627e-01 1 1  ON 12
   ud_3                 6.749541e-02 1 1  ON 13
   ud_4                -3.551515e-02 1 1  ON 14
   ud_5                -1.097784e-01 1 1  ON 15
   ud_6                -1.781102e-01 1 1  ON 16
   ud_7                -2.237006e-01 1 1  ON 17
   ud_8                -2.347698e-01 1 1  ON 18
   ud_9                -2.173583e-01 1 1  ON 19
  eAs_0                -1.192523e+00 1 1  ON 20
  eAs_1                -5.410517e-01 1 1  ON 21
  eAs_2                -4.857346e-01 1 1  ON 22
  eAs_3                -1.506732e-01 1 1  ON 23
  eAs_4                 2.162677e-01 1 1  ON 24
  eAs_5                 2.778115e-01 1 1  ON 25
  eAs_6                 4.509019e-01 1 1  ON 26
  eAs_7                 5.322188e-01 1 1  ON 27
  eAs_8                 5.221152e-01 1 1  ON 28
  eAs_9                 3.192262e-01 1 1  ON 29
 uuAs_0                 8.175660e-05 1 1  ON 30
 uuAs_1                -1.497528e-04 1 1  ON 31
 uuAs_2                -5.986038e-05 1 1  ON 32
 uuAs_3                 5.997244e-06 1 1  ON 33
 uuAs_4                 1.657069e-05 1 1  ON 34
 uuAs_5                 2.259611e-05 1 1  ON 35
 uuAs_6                -2.992817e-04 1 1  ON 36
 uuAs_7                 3.782414e-05 1 1  ON 37
 uuAs_8                 1.922418e-05 1 1  ON 38
 uuAs_9                 8.421320e-05 1 1  ON 39
uuAs_10                 3.656633e-05 1 1  ON 40
uuAs_11                -4.344267e-05 1 1  ON 41
uuAs_12                -3.197137e-07 1 1  ON 42
uuAs_13                 9.682028e-05 1 1  ON 43
uuAs_14                 1.606849e-05 1 1  ON 44
uuAs_15                -1.334571e-06 1 1  ON 45
uuAs_16                -1.443920e-04 1 1  ON 46
uuAs_17                 9.309326e-05 1 1  ON 47
uuAs_18                 3.243381e-05 1 1  ON 48
uuAs_19                -5.826551e-06 1 1  ON 49
uuAs_20                -3.814586e-05 1 1  ON 50
uuAs_21                -9.917231e-06 1 1  ON 51
uuAs_22                 1.989137e-06 1 1  ON 52
uuAs_23                 1.965906e-05 1 1  ON 53
uuAs_24                 1.434919e-06 1 1  ON 54
uuAs_25                -4.532264e-07 1 1  ON 55
 udAs_0                -2.172176e-04 1 1  ON 56
 udAs_1                -1.175920e-04 1 1  ON 57
 udAs_2                 2.035741e-04 1 1  ON 58
 udAs_3                 2.532968e-04 1 1  ON 59
 udAs_4                 6.470066e-07 1 1  ON 60
 udAs_5                -5.830426e-06 1 1  ON 61
 udAs_6                 2.506913e-04 1 1  ON 62
 udAs_7                 1.182065e-04 1 1  ON 63
 udAs_8                -9.911848e-06 1 1  ON 64
 udAs_9                -2.758469e-05 1 1  ON 65
udAs_10                 1.488964e-04 1 1  ON 66
udAs_11                -1.636839e-04 1 1  ON 67
udAs_12                 1.417137e-05 1 1  ON 68
udAs_13                -3.183000e-04 1 1  ON 69
udAs_14                -2.558772e-05 1 1  ON 70
udAs_15                 1.056857e-06 1 1  ON 71
udAs_16                 3.275843e-04 1 1  ON 72
udAs_17                -4.220733e-04 1 1  ON 73
udAs_18                 1.756832e-04 1 1  ON 74
udAs_19                -1.290329e-05 1 1  ON 75
udAs_20                 4.401884e-05 1 1  ON 76
udAs_21                -1.316333e-05 1 1  ON 77
udAs_22                 1.118275e-06 1 1  ON 78
udAs_23                -1.001545e-05 1 1  ON 79
udAs_24                 2.153637e-06 1 1  ON 80
udAs_25                -2.055725e-07 1 1  ON 81
  </optVariables>
   Restore the number of walkers to 1, removing 0 walkers.
</opt>
</optimization-report>
  QMC Execution time = 5.546 secs
  Reusing QMCFixedSampleLinearOptimize
 Using QMCCostFunction::QMCCostFunction

=========================================================
  Start QMCFixedSampleLinearOptimize
  File Root As.log.s003 append = no 
=========================================================
  Skip QMCDriver::putQMCInfo 
  Resetting Properties of the walkers 1 x 13

=========================================================
  Start VMC
  File Root As.log.s003 append = no 
=========================================================
Using existing walkers 
  Resetting Properties of the walkers 1 x 13

<vmc function="put">
  qmc_counter=2  my_counter=2
  time step      = 1.5000e-01
  blocks         = 500
  steps          = 1
  substeps       = 5
  current        = 0
  target samples = 5.1200e+05
  walkers/mpi    = 1

  stepsbetweensamples = 1
<parameter name="blocks" condition="int">500</parameter>
<parameter name="blocks_between_recompute" condition="int">0</parameter>
<parameter name="check_properties" condition="int">100</parameter>
<parameter name="checkproperties" condition="int">100</parameter>
<parameter name="current" condition="int">0</parameter>
<parameter name="dmcwalkersperthread" condition="real">5.0000e+02</parameter>
<parameter name="maxcpusecs" condition="real">3.6000e+05</parameter>
<parameter name="record_configs" condition="int">0</parameter>
<parameter name="record_walkers" condition="int">1</parameter>
<parameter name="recordconfigs" condition="int">0</parameter>
<parameter name="recordwalkers" condition="int">1</parameter>
<parameter name="rewind" condition="int">0</parameter>
<parameter name="samples" condition="real">5.1200e+05</parameter>
<parameter name="samplesperthread" condition="real">5.0000e+02</parameter>
<parameter name="steps" condition="int">1</parameter>
<parameter name="stepsbetweensamples" condition="int">1</parameter>
<parameter name="store_configs" condition="int">0</parameter>
<parameter name="storeconfigs" condition="int">0</parameter>
<parameter name="sub_steps" condition="int">5</parameter>
<parameter name="substeps" condition="int">5</parameter>
<parameter name="tau" condition="au">1.5000e-01</parameter>
<parameter name="time_step" condition="au">1.5000e-01</parameter>
<parameter name="timestep" condition="au">1.5000e-01</parameter>
<parameter name="use_drift" condition="string">no</parameter>
<parameter name="usedrift" condition="string">no</parameter>
<parameter name="walkers" condition="int">1</parameter>
<parameter name="warmup_steps" condition="int">0</parameter>
<parameter name="warmupsteps" condition="int">0</parameter>
  DumpConfig==false Nothing (configurations, state) will be saved.
  Walker Samples are dumped every 1 steps.
</vmc>
  Set drift_modifier UNR parameter a = 1.0000e+00
  EstimatorManagerBase::add replace LocalEnergy estimator.
  Set drift_modifier UNR parameter a = 1.0000e+00
  EstimatorManagerBase::add replace LocalEnergy estimator.
<optimization-report>
<vmc stage="main" blocks="500">
  Cannot make clones again. Use existing 1 clones
  Initial partition of walkers 0 1 
  Using Particle by Particle moves
  Walker moves without drift
  Total Sample Size   =512000
  Walker distribution on root = 0 1 
  Using Locality Approximation
===== Memory Usage after the buffer registration =====
Available memory on node 0, free + buffers : 49583 MB
Memory footprint by rank 0 on node 0       : 591 MB
==================================================
====================================================
  SimpleFixedNodeBranch::finalize after a VMC block
    QMC counter        = 3
    time step          = 0.15
    reference energy   = -6.10374
    reference variance = 0.510038
====================================================
  Execution time = 3.5910e+00
</vmc>
<opt stage="setup">
  <log>
   Reading configurations from h5FileRoot As.log.s003
  QMCCostFunction is created with 1 threads.
  Using Nonlocal PP in Opt: NonLocalECP
   Number of samples loaded to each thread : 500 
  VMC Eavg = -6.1748e+00
  VMC Evar = 8.3681e-01
  Total weights = 5.1200e+05
  Execution time = 9.6489e-01
  </log>
</opt>
<opt stage="main" walkers="512000">
  <log>

*****************************************
Building overlap and Hamiltonian matrices
*****************************************

Among totally 82 optimized parameters, largest LM parameter change : 3.1371e-02 at parameter 20

******************************************************************************
Init Cost =  -5.8243e+00    New Cost =  -5.8249e+00  Delta Cost =  -6.1064e-04
******************************************************************************

The new set of parameters is valid. Updating the trial wave function!

*****************************************************************************
Applying the update for shift_i =   1.0000e-02     and shift_s =   1.5625e-02
*****************************************************************************
  Execution time = 5.5284e+00
  </log>
  <optVariables href="As.log.s003.opt.xml">
   uu_0                 5.179870e-01 1 1  ON 0
   uu_1                 2.915718e-01 1 1  ON 1
   uu_2                 1.919317e-01 1 1  ON 2
   uu_3                 1.356468e-01 1 1  ON 3
   uu_4                 8.878540e-02 1 1  ON 4
   uu_5                 4.153220e-02 1 1  ON 5
   uu_6                -6.574642e-03 1 1  ON 6
   uu_7                -3.521987e-02 1 1  ON 7
   uu_8                -5.213721e-02 1 1  ON 8
   uu_9                -5.586695e-02 1 1  ON 9
   ud_0                 8.873227e-01 1 1  ON 10
   ud_1                 5.326464e-01 1 1  ON 11
   ud_2                 2.648143e-01 1 1  ON 12
   ud_3                 7.344810e-02 1 1  ON 13
   ud_4                -3.256936e-02 1 1  ON 14
   ud_5                -1.083184e-01 1 1  ON 15
   ud_6                -1.814511e-01 1 1  ON 16
   ud_7                -2.282483e-01 1 1  ON 17
   ud_8                -2.391571e-01 1 1  ON 18
   ud_9                -2.311595e-01 1 1  ON 19
  eAs_0                -1.223894e+00 1 1  ON 20
  eAs_1                -5.231341e-01 1 1  ON 21
  eAs_2                -4.822245e-01 1 1  ON 22
  eAs_3                -1.509647e-01 1 1  ON 23
  eAs_4                 2.270345e-01 1 1  ON 24
  eAs_5                 2.609418e-01 1 1  ON 25
  eAs_6                 4.409647e-01 1 1  ON 26
  eAs_7                 5.323872e-01 1 1  ON 27
  eAs_8                 5.289131e-01 1 1  ON 28
  eAs_9                 3.268031e-01 1 1  ON 29
 uuAs_0                 8.528829e-05 1 1  ON 30
 uuAs_1                -2.063400e-04 1 1  ON 31
 uuAs_2                -7.539819e-05 1 1  ON 32
 uuAs_3                 2.756578e-05 1 1  ON 33
 uuAs_4                 2.300237e-05 1 1  ON 34
 uuAs_5                 2.764737e-05 1 1  ON 35
 uuAs_6                -4.052764e-04 1 1  ON 36
 uuAs_7                 9.590388e-05 1 1  ON 37
 uuAs_8                 1.749965e-05 1 1  ON 38
 uuAs_9                 1.470275e-04 1 1  ON 39
uuAs_10                 5.771448e-05 1 1  ON 40
uuAs_11                -7.509013e-05 1 1  ON 41
uuAs_12                 2.909965e-06 1 1  ON 42
uuAs_13                 7.208450e-05 1 1  ON 43
uuAs_14                 1.847263e-05 1 1  ON 44
uuAs_15                -1.813986e-06 1 1  ON 45
uuAs_16                -2.076557e-04 1 1  ON 46
uuAs_17                 7.624916e-05 1 1  ON 47
uuAs_18                 5.986791e-05 1 1  ON 48
uuAs_19                -9.804851e-06 1 1  ON 49
uuAs_20                -1.975040e-05 1 1  ON 50
uuAs_21                -1.469185e-05 1 1  ON 51
uuAs_22                 2.819865e-06 1 1  ON 52
uuAs_23                 1.548910e-05 1 1  ON 53
uuAs_24                 2.476859e-06 1 1  ON 54
uuAs_25                -6.456421e-07 1 1  ON 55
 udAs_0                -1.931967e-04 1 1  ON 56
 udAs_1                -1.850474e-04 1 1  ON 57
 udAs_2                 1.550932e-04 1 1  ON 58
 udAs_3                 2.660559e-04 1 1  ON 59
 udAs_4                 1.008814e-05 1 1  ON 60
 udAs_5                -2.104556e-06 1 1  ON 61
 udAs_6                 9.945872e-05 1 1  ON 62
 udAs_7                 1.719600e-04 1 1  ON 63
 udAs_8                -3.444889e-05 1 1  ON 64
 udAs_9                 5.404019e-05 1 1  ON 65
udAs_10                 1.650241e-04 1 1  ON 66
udAs_11                -1.766859e-04 1 1  ON 67
udAs_12                 2.106726e-05 1 1  ON 68
udAs_13                -3.388928e-04 1 1  ON 69
udAs_14                -2.468401e-05 1 1  ON 70
udAs_15                 3.493304e-07 1 1  ON 71
udAs_16                 2.487582e-04 1 1  ON 72
udAs_17                -4.324133e-04 1 1  ON 73
udAs_18                 1.987179e-04 1 1  ON 74
udAs_19                -1.801429e-05 1 1  ON 75
udAs_20                 6.101445e-05 1 1  ON 76
udAs_21                -1.833501e-05 1 1  ON 77
udAs_22                 2.175266e-06 1 1  ON 78
udAs_23                -1.368553e-05 1 1  ON 79
udAs_24                 3.435851e-06 1 1  ON 80
udAs_25                -4.612976e-07 1 1  ON 81
  </optVariables>
   Restore the number of walkers to 1, removing 0 walkers.
</opt>
</optimization-report>
  QMC Execution time = 5.54 secs
  Reusing QMCFixedSampleLinearOptimize
 Using QMCCostFunction::QMCCostFunction

=========================================================
  Start QMCFixedSampleLinearOptimize
  File Root As.log.s004 append = no 
=========================================================
  Skip QMCDriver::putQMCInfo 
  Resetting Properties of the walkers 1 x 13

=========================================================
  Start VMC
  File Root As.log.s004 append = no 
=========================================================
Using existing walkers 
  Resetting Properties of the walkers 1 x 13

<vmc function="put">
  qmc_counter=3  my_counter=3
  time step      = 1.5000e-01
  blocks         = 500
  steps          = 1
  substeps       = 5
  current        = 0
  target samples = 5.1200e+05
  walkers/mpi    = 1

  stepsbetweensamples = 1
<parameter name="blocks" condition="int">500</parameter>
<parameter name="blocks_between_recompute" condition="int">0</parameter>
<parameter name="check_properties" condition="int">100</parameter>
<parameter name="checkproperties" condition="int">100</parameter>
<parameter name="current" condition="int">0</parameter>
<parameter name="dmcwalkersperthread" condition="real">5.0000e+02</parameter>
<parameter name="maxcpusecs" condition="real">3.6000e+05</parameter>
<parameter name="record_configs" condition="int">0</parameter>
<parameter name="record_walkers" condition="int">1</parameter>
<parameter name="recordconfigs" condition="int">0</parameter>
<parameter name="recordwalkers" condition="int">1</parameter>
<parameter name="rewind" condition="int">0</parameter>
<parameter name="samples" condition="real">5.1200e+05</parameter>
<parameter name="samplesperthread" condition="real">5.0000e+02</parameter>
<parameter name="steps" condition="int">1</parameter>
<parameter name="stepsbetweensamples" condition="int">1</parameter>
<parameter name="store_configs" condition="int">0</parameter>
<parameter name="storeconfigs" condition="int">0</parameter>
<parameter name="sub_steps" condition="int">5</parameter>
<parameter name="substeps" condition="int">5</parameter>
<parameter name="tau" condition="au">1.5000e-01</parameter>
<parameter name="time_step" condition="au">1.5000e-01</parameter>
<parameter name="timestep" condition="au">1.5000e-01</parameter>
<parameter name="use_drift" condition="string">no</parameter>
<parameter name="usedrift" condition="string">no</parameter>
<parameter name="walkers" condition="int">1</parameter>
<parameter name="warmup_steps" condition="int">0</parameter>
<parameter name="warmupsteps" condition="int">0</parameter>
  DumpConfig==false Nothing (configurations, state) will be saved.
  Walker Samples are dumped every 1 steps.
</vmc>
  Set drift_modifier UNR parameter a = 1.0000e+00
  EstimatorManagerBase::add replace LocalEnergy estimator.
  Set drift_modifier UNR parameter a = 1.0000e+00
  EstimatorManagerBase::add replace LocalEnergy estimator.
<optimization-report>
<vmc stage="main" blocks="500">
  Cannot make clones again. Use existing 1 clones
  Initial partition of walkers 0 1 
  Using Particle by Particle moves
  Walker moves without drift
  Total Sample Size   =512000
  Walker distribution on root = 0 1 
  Using Locality Approximation
===== Memory Usage after the buffer registration =====
Available memory on node 0, free + buffers : 49580 MB
Memory footprint by rank 0 on node 0       : 594 MB
==================================================
====================================================
  SimpleFixedNodeBranch::finalize after a VMC block
    QMC counter        = 4
    time step          = 0.15
    reference energy   = -6.15134
    reference variance = 0.270402
====================================================
  Execution time = 3.6061e+00
</vmc>
<opt stage="setup">
  <log>
   Reading configurations from h5FileRoot As.log.s004
  QMCCostFunction is created with 1 threads.
  Using Nonlocal PP in Opt: NonLocalECP
   Number of samples loaded to each thread : 500 
  VMC Eavg = -6.1783e+00
  VMC Evar = 7.2827e-01
  Total weights = 5.1200e+05
  Execution time = 9.7549e-01
  </log>
</opt>
<opt stage="main" walkers="512000">
  <log>

*****************************************
Building overlap and Hamiltonian matrices
*****************************************

Among totally 82 optimized parameters, largest LM parameter change : 2.4997e-02 at parameter 0

******************************************************************************
Init Cost =  -5.8330e+00    New Cost =  -5.8320e+00  Delta Cost =   9.1463e-04
******************************************************************************

The new set of parameters is valid. Updating the trial wave function!

*****************************************************************************
Applying the update for shift_i =   1.0000e-02     and shift_s =   3.9062e-03
*****************************************************************************
  Execution time = 5.5550e+00
  </log>
  <optVariables href="As.log.s004.opt.xml">
   uu_0                 4.929899e-01 1 1  ON 0
   uu_1                 2.775734e-01 1 1  ON 1
   uu_2                 1.806635e-01 1 1  ON 2
   uu_3                 1.322173e-01 1 1  ON 3
   uu_4                 9.024158e-02 1 1  ON 4
   uu_5                 4.796653e-02 1 1  ON 5
   uu_6                 1.884371e-03 1 1  ON 6
   uu_7                -2.631710e-02 1 1  ON 7
   uu_8                -4.028239e-02 1 1  ON 8
   uu_9                -4.816803e-02 1 1  ON 9
   ud_0                 9.096899e-01 1 1  ON 10
   ud_1                 5.469140e-01 1 1  ON 11
   ud_2                 2.717904e-01 1 1  ON 12
   ud_3                 7.414980e-02 1 1  ON 13
   ud_4                -3.165771e-02 1 1  ON 14
   ud_5                -1.057785e-01 1 1  ON 15
   ud_6                -1.778008e-01 1 1  ON 16
   ud_7                -2.257825e-01 1 1  ON 17
   ud_8                -2.432806e-01 1 1  ON 18
   ud_9                -2.361630e-01 1 1  ON 19
  eAs_0                -1.239156e+00 1 1  ON 20
  eAs_1                -5.182043e-01 1 1  ON 21
  eAs_2                -4.800002e-01 1 1  ON 22
  eAs_3                -1.512557e-01 1 1  ON 23
  eAs_4                 2.315637e-01 1 1  ON 24
  eAs_5                 2.684603e-01 1 1  ON 25
  eAs_6                 4.364098e-01 1 1  ON 26
  eAs_7                 5.166119e-01 1 1  ON 27
  eAs_8                 5.238213e-01 1 1  ON 28
  eAs_9                 3.387219e-01 1 1  ON 29
 uuAs_0                 9.413112e-05 1 1  ON 30
 uuAs_1                -1.795705e-04 1 1  ON 31
 uuAs_2                -6.722511e-05 1 1  ON 32
 uuAs_3                 1.665853e-05 1 1  ON 33
 uuAs_4                 1.829965e-05 1 1  ON 34
 uuAs_5                 2.749650e-05 1 1  ON 35
 uuAs_6                -3.638097e-04 1 1  ON 36
 uuAs_7                 8.565243e-05 1 1  ON 37
 uuAs_8                 3.079290e-05 1 1  ON 38
 uuAs_9                 1.059252e-04 1 1  ON 39
uuAs_10                 4.819879e-05 1 1  ON 40
uuAs_11                -8.110075e-05 1 1  ON 41
uuAs_12                -1.602470e-06 1 1  ON 42
uuAs_13                 8.889514e-05 1 1  ON 43
uuAs_14                 2.169123e-05 1 1  ON 44
uuAs_15                -1.706431e-06 1 1  ON 45
uuAs_16                -1.571310e-04 1 1  ON 46
uuAs_17                 7.939022e-05 1 1  ON 47
uuAs_18                 6.450606e-05 1 1  ON 48
uuAs_19                -8.191626e-06 1 1  ON 49
uuAs_20                -3.509943e-05 1 1  ON 50
uuAs_21                -1.552969e-05 1 1  ON 51
uuAs_22                 2.725435e-06 1 1  ON 52
uuAs_23                 1.998200e-05 1 1  ON 53
uuAs_24                 2.413297e-06 1 1  ON 54
uuAs_25                -6.232378e-07 1 1  ON 55
 udAs_0                -2.208514e-04 1 1  ON 56
 udAs_1                -1.483179e-04 1 1  ON 57
 udAs_2                 1.929788e-04 1 1  ON 58
 udAs_3                 2.707242e-04 1 1  ON 59
 udAs_4                 4.277410e-06 1 1  ON 60
 udAs_5                -7.118800e-06 1 1  ON 61
 udAs_6                 1.945749e-04 1 1  ON 62
 udAs_7                 1.592571e-04 1 1  ON 63
 udAs_8                -2.116148e-05 1 1  ON 64
 udAs_9                 1.820879e-05 1 1  ON 65
udAs_10                 1.631058e-04 1 1  ON 66
udAs_11                -1.847583e-04 1 1  ON 67
udAs_12                 1.807814e-05 1 1  ON 68
udAs_13                -3.558161e-04 1 1  ON 69
udAs_14                -2.664863e-05 1 1  ON 70
udAs_15                 8.181894e-07 1 1  ON 71
udAs_16                 3.002508e-04 1 1  ON 72
udAs_17                -4.621375e-04 1 1  ON 73
udAs_18                 2.066798e-04 1 1  ON 74
udAs_19                -1.680803e-05 1 1  ON 75
udAs_20                 6.141679e-05 1 1  ON 76
udAs_21                -1.823405e-05 1 1  ON 77
udAs_22                 1.868638e-06 1 1  ON 78
udAs_23                -1.455186e-05 1 1  ON 79
udAs_24                 3.422585e-06 1 1  ON 80
udAs_25                -4.004869e-07 1 1  ON 81
  </optVariables>
   Restore the number of walkers to 1, removing 0 walkers.
</opt>
</optimization-report>
  QMC Execution time = 5.567 secs
  Reusing QMCFixedSampleLinearOptimize
 Using QMCCostFunction::QMCCostFunction

=========================================================
  Start QMCFixedSampleLinearOptimize
  File Root As.log.s005 append = no 
=========================================================
  Skip QMCDriver::putQMCInfo 
  Resetting Properties of the walkers 1 x 13

=========================================================
  Start VMC
  File Root As.log.s005 append = no 
=========================================================
Using existing walkers 
  Resetting Properties of the walkers 1 x 13

<vmc function="put">
  qmc_counter=4  my_counter=4
  time step      = 1.5000e-01
  blocks         = 500
  steps          = 1
  substeps       = 5
  current        = 0
  target samples = 5.1200e+05
  walkers/mpi    = 1

  stepsbetweensamples = 1
<parameter name="blocks" condition="int">500</parameter>
<parameter name="blocks_between_recompute" condition="int">0</parameter>
<parameter name="check_properties" condition="int">100</parameter>
<parameter name="checkproperties" condition="int">100</parameter>
<parameter name="current" condition="int">0</parameter>
<parameter name="dmcwalkersperthread" condition="real">5.0000e+02</parameter>
<parameter name="maxcpusecs" condition="real">3.6000e+05</parameter>
<parameter name="record_configs" condition="int">0</parameter>
<parameter name="record_walkers" condition="int">1</parameter>
<parameter name="recordconfigs" condition="int">0</parameter>
<parameter name="recordwalkers" condition="int">1</parameter>
<parameter name="rewind" condition="int">0</parameter>
<parameter name="samples" condition="real">5.1200e+05</parameter>
<parameter name="samplesperthread" condition="real">5.0000e+02</parameter>
<parameter name="steps" condition="int">1</parameter>
<parameter name="stepsbetweensamples" condition="int">1</parameter>
<parameter name="store_configs" condition="int">0</parameter>
<parameter name="storeconfigs" condition="int">0</parameter>
<parameter name="sub_steps" condition="int">5</parameter>
<parameter name="substeps" condition="int">5</parameter>
<parameter name="tau" condition="au">1.5000e-01</parameter>
<parameter name="time_step" condition="au">1.5000e-01</parameter>
<parameter name="timestep" condition="au">1.5000e-01</parameter>
<parameter name="use_drift" condition="string">no</parameter>
<parameter name="usedrift" condition="string">no</parameter>
<parameter name="walkers" condition="int">1</parameter>
<parameter name="warmup_steps" condition="int">0</parameter>
<parameter name="warmupsteps" condition="int">0</parameter>
  DumpConfig==false Nothing (configurations, state) will be saved.
  Walker Samples are dumped every 1 steps.
</vmc>
  Set drift_modifier UNR parameter a = 1.0000e+00
  EstimatorManagerBase::add replace LocalEnergy estimator.
  Set drift_modifier UNR parameter a = 1.0000e+00
  EstimatorManagerBase::add replace LocalEnergy estimator.
<optimization-report>
<vmc stage="main" blocks="500">
  Cannot make clones again. Use existing 1 clones
  Initial partition of walkers 0 1 
  Using Particle by Particle moves
  Walker moves without drift
  Total Sample Size   =512000
  Walker distribution on root = 0 1 
  Using Locality Approximation
===== Memory Usage after the buffer registration =====
Available memory on node 0, free + buffers : 49576 MB
Memory footprint by rank 0 on node 0       : 597 MB
==================================================
====================================================
  SimpleFixedNodeBranch::finalize after a VMC block
    QMC counter        = 5
    time step          = 0.15
    reference energy   = -6.15889
    reference variance = 0.273535
====================================================
  Execution time = 3.6026e+00
</vmc>
<opt stage="setup">
  <log>
   Reading configurations from h5FileRoot As.log.s005
  QMCCostFunction is created with 1 threads.
  Using Nonlocal PP in Opt: NonLocalECP
   Number of samples loaded to each thread : 500 
  VMC Eavg = -6.1748e+00
  VMC Evar = 7.5142e-01
  Total weights = 5.1200e+05
  Execution time = 9.6309e-01
  </log>
</opt>
<opt stage="main" walkers="512000">
  <log>

*****************************************
Building overlap and Hamiltonian matrices
*****************************************

Among totally 82 optimized parameters, largest LM parameter change : 2.7069e-02 at parameter 20

******************************************************************************
Init Cost =  -5.8285e+00    New Cost =  -5.8297e+00  Delta Cost =  -1.1788e-03
******************************************************************************

The new set of parameters is valid. Updating the trial wave function!

*****************************************************************************
Applying the update for shift_i =   1.0000e-02     and shift_s =   3.9062e-03
*****************************************************************************
  Execution time = 5.5390e+00
  </log>
  <optVariables href="As.log.s005.opt.xml">
   uu_0                 4.716686e-01 1 1  ON 0
   uu_1                 2.674807e-01 1 1  ON 1
   uu_2                 1.799515e-01 1 1  ON 2
   uu_3                 1.383040e-01 1 1  ON 3
   uu_4                 9.981604e-02 1 1  ON 4
   uu_5                 5.611288e-02 1 1  ON 5
   uu_6                 8.495860e-03 1 1  ON 6
   uu_7                -2.198544e-02 1 1  ON 7
   uu_8                -4.326762e-02 1 1  ON 8
   uu_9                -4.654189e-02 1 1  ON 9
   ud_0                 9.251822e-01 1 1  ON 10
   ud_1                 5.596777e-01 1 1  ON 11
   ud_2                 2.800874e-01 1 1  ON 12
   ud_3                 7.738142e-02 1 1  ON 13
   ud_4                -3.141265e-02 1 1  ON 14
   ud_5                -1.072177e-01 1 1  ON 15
   ud_6                -1.776803e-01 1 1  ON 16
   ud_7                -2.244947e-01 1 1  ON 17
   ud_8                -2.413335e-01 1 1  ON 18
   ud_9                -2.388660e-01 1 1  ON 19
  eAs_0                -1.266225e+00 1 1  ON 20
  eAs_1                -5.177304e-01 1 1  ON 21
  eAs_2                -4.665006e-01 1 1  ON 22
  eAs_3                -1.415656e-01 1 1  ON 23
  eAs_4                 2.316916e-01 1 1  ON 24
  eAs_5                 2.642274e-01 1 1  ON 25
  eAs_6                 4.313587e-01 1 1  ON 26
  eAs_7                 5.149101e-01 1 1  ON 27
  eAs_8                 5.228724e-01 1 1  ON 28
  eAs_9                 3.477870e-01 1 1  ON 29
 uuAs_0                 8.718265e-05 1 1  ON 30
 uuAs_1                -2.024632e-04 1 1  ON 31
 uuAs_2                -8.845634e-05 1 1  ON 32
 uuAs_3                 1.785139e-05 1 1  ON 33
 uuAs_4                 2.275750e-05 1 1  ON 34
 uuAs_5                 2.781063e-05 1 1  ON 35
 uuAs_6                -4.095804e-04 1 1  ON 36
 uuAs_7                 7.230789e-05 1 1  ON 37
 uuAs_8                 6.791764e-06 1 1  ON 38
 uuAs_9                 1.585424e-04 1 1  ON 39
uuAs_10                 4.707056e-05 1 1  ON 40
uuAs_11                -4.639098e-05 1 1  ON 41
uuAs_12                 3.172697e-06 1 1  ON 42
uuAs_13                 8.309418e-05 1 1  ON 43
uuAs_14                 1.670364e-05 1 1  ON 44
uuAs_15                -1.666763e-06 1 1  ON 45
uuAs_16                -2.341515e-04 1 1  ON 46
uuAs_17                 1.003356e-04 1 1  ON 47
uuAs_18                 3.484192e-05 1 1  ON 48
uuAs_19                -7.442645e-06 1 1  ON 49
uuAs_20                -1.913966e-05 1 1  ON 50
uuAs_21                -1.134950e-05 1 1  ON 51
uuAs_22                 2.302280e-06 1 1  ON 52
uuAs_23                 1.580175e-05 1 1  ON 53
uuAs_24                 1.844806e-06 1 1  ON 54
uuAs_25                -5.226652e-07 1 1  ON 55
 udAs_0                -2.071810e-04 1 1  ON 56
 udAs_1                -1.107993e-04 1 1  ON 57
 udAs_2                 1.747397e-04 1 1  ON 58
 udAs_3                 2.374993e-04 1 1  ON 59
 udAs_4                 2.839719e-06 1 1  ON 60
 udAs_5                -1.088140e-05 1 1  ON 61
 udAs_6                 2.118945e-04 1 1  ON 62
 udAs_7                 1.173784e-04 1 1  ON 63
 udAs_8                -2.909147e-05 1 1  ON 64
 udAs_9                 1.167745e-05 1 1  ON 65
udAs_10                 1.398986e-04 1 1  ON 66
udAs_11                -1.466355e-04 1 1  ON 67
udAs_12                 1.732170e-05 1 1  ON 68
udAs_13                -3.220045e-04 1 1  ON 69
udAs_14                -2.726008e-05 1 1  ON 70
udAs_15                 9.070116e-07 1 1  ON 71
udAs_16                 2.732224e-04 1 1  ON 72
udAs_17                -4.184823e-04 1 1  ON 73
udAs_18                 1.772745e-04 1 1  ON 74
udAs_19                -1.454700e-05 1 1  ON 75
udAs_20                 5.555895e-05 1 1  ON 76
udAs_21                -1.528304e-05 1 1  ON 77
udAs_22                 1.519629e-06 1 1  ON 78
udAs_23                -1.312050e-05 1 1  ON 79
udAs_24                 3.010137e-06 1 1  ON 80
udAs_25                -3.395984e-07 1 1  ON 81
  </optVariables>
   Restore the number of walkers to 1, removing 0 walkers.
</opt>
</optimization-report>
  QMC Execution time = 5.551 secs
  Reusing QMCFixedSampleLinearOptimize
 Using QMCCostFunction::QMCCostFunction

=========================================================
  Start QMCFixedSampleLinearOptimize
  File Root As.log.s006 append = no 
=========================================================
  Skip QMCDriver::putQMCInfo 
  Resetting Properties of the walkers 1 x 13

=========================================================
  Start VMC
  File Root As.log.s006 append = no 
=========================================================
Using existing walkers 
  Resetting Properties of the walkers 1 x 13

<vmc function="put">
  qmc_counter=5  my_counter=5
  time step      = 1.5000e-01
  blocks         = 500
  steps          = 1
  substeps       = 5
  current        = 0
  target samples = 5.1200e+05
  walkers/mpi    = 1

  stepsbetweensamples = 1
<parameter name="blocks" condition="int">500</parameter>
<parameter name="blocks_between_recompute" condition="int">0</parameter>
<parameter name="check_properties" condition="int">100</parameter>
<parameter name="checkproperties" condition="int">100</parameter>
<parameter name="current" condition="int">0</parameter>
<parameter name="dmcwalkersperthread" condition="real">5.0000e+02</parameter>
<parameter name="maxcpusecs" condition="real">3.6000e+05</parameter>
<parameter name="record_configs" condition="int">0</parameter>
<parameter name="record_walkers" condition="int">1</parameter>
<parameter name="recordconfigs" condition="int">0</parameter>
<parameter name="recordwalkers" condition="int">1</parameter>
<parameter name="rewind" condition="int">0</parameter>
<parameter name="samples" condition="real">5.1200e+05</parameter>
<parameter name="samplesperthread" condition="real">5.0000e+02</parameter>
<parameter name="steps" condition="int">1</parameter>
<parameter name="stepsbetweensamples" condition="int">1</parameter>
<parameter name="store_configs" condition="int">0</parameter>
<parameter name="storeconfigs" condition="int">0</parameter>
<parameter name="sub_steps" condition="int">5</parameter>
<parameter name="substeps" condition="int">5</parameter>
<parameter name="tau" condition="au">1.5000e-01</parameter>
<parameter name="time_step" condition="au">1.5000e-01</parameter>
<parameter name="timestep" condition="au">1.5000e-01</parameter>
<parameter name="use_drift" condition="string">no</parameter>
<parameter name="usedrift" condition="string">no</parameter>
<parameter name="walkers" condition="int">1</parameter>
<parameter name="warmup_steps" condition="int">0</parameter>
<parameter name="warmupsteps" condition="int">0</parameter>
  DumpConfig==false Nothing (configurations, state) will be saved.
  Walker Samples are dumped every 1 steps.
</vmc>
  Set drift_modifier UNR parameter a = 1.0000e+00
  EstimatorManagerBase::add replace LocalEnergy estimator.
  Set drift_modifier UNR parameter a = 1.0000e+00
  EstimatorManagerBase::add replace LocalEnergy estimator.
<optimization-report>
<vmc stage="main" blocks="500">
  Cannot make clones again. Use existing 1 clones
  Initial partition of walkers 0 1 
  Using Particle by Particle moves
  Walker moves without drift
  Total Sample Size   =512000
  Walker distribution on root = 0 1 
  Using Locality Approximation
===== Memory Usage after the buffer registration =====
Available memory on node 0, free + buffers : 49572 MB
Memory footprint by rank 0 on node 0       : 600 MB
==================================================
====================================================
  SimpleFixedNodeBranch::finalize after a VMC block
    QMC counter        = 6
    time step          = 0.15
    reference energy   = -6.13375
    reference variance = 0.3035
====================================================
  Execution time = 3.6230e+00
</vmc>
<opt stage="setup">
  <log>
   Reading configurations from h5FileRoot As.log.s006
  QMCCostFunction is created with 1 threads.
  Using Nonlocal PP in Opt: NonLocalECP
   Number of samples loaded to each thread : 500 
  VMC Eavg = -6.1846e+00
  VMC Evar = 7.0703e-01
  Total weights = 5.1200e+05
  Execution time = 9.6710e-01
  </log>
</opt>
<opt stage="main" walkers="512000">
  <log>

*****************************************
Building overlap and Hamiltonian matrices
*****************************************

Among totally 82 optimized parameters, largest LM parameter change : 2.1522e-02 at parameter 20

******************************************************************************
Init Cost =  -5.8400e+00    New Cost =  -5.8373e+00  Delta Cost =   2.7201e-03
******************************************************************************

The new set of parameters is valid. Updating the trial wave function!

*****************************************************************************
Applying the update for shift_i =   1.0000e-02     and shift_s =   3.9062e-03
*****************************************************************************
  Execution time = 5.5779e+00
  </log>
  <optVariables href="As.log.s006.opt.xml">
   uu_0                 4.615049e-01 1 1  ON 0
   uu_1                 2.604929e-01 1 1  ON 1
   uu_2                 1.802368e-01 1 1  ON 2
   uu_3                 1.401258e-01 1 1  ON 3
   uu_4                 1.030734e-01 1 1  ON 4
   uu_5                 6.031429e-02 1 1  ON 5
   uu_6                 1.191560e-02 1 1  ON 6
   uu_7                -2.150081e-02 1 1  ON 7
   uu_8                -4.235422e-02 1 1  ON 8
   uu_9                -4.859252e-02 1 1  ON 9
   ud_0                 9.364414e-01 1 1  ON 10
   ud_1                 5.718808e-01 1 1  ON 11
   ud_2                 2.853830e-01 1 1  ON 12
   ud_3                 7.618541e-02 1 1  ON 13
   ud_4                -3.433293e-02 1 1  ON 14
   ud_5                -1.092523e-01 1 1  ON 15
   ud_6                -1.764458e-01 1 1  ON 16
   ud_7                -2.196546e-01 1 1  ON 17
   ud_8                -2.343579e-01 1 1  ON 18
   ud_9                -2.344459e-01 1 1  ON 19
  eAs_0                -1.287747e+00 1 1  ON 20
  eAs_1                -5.154109e-01 1 1  ON 21
  eAs_2                -4.619511e-01 1 1  ON 22
  eAs_3                -1.378570e-01 1 1  ON 23
  eAs_4                 2.356987e-01 1 1  ON 24
  eAs_5                 2.481237e-01 1 1  ON 25
  eAs_6                 4.243307e-01 1 1  ON 26
  eAs_7                 5.161393e-01 1 1  ON 27
  eAs_8                 5.280357e-01 1 1  ON 28
  eAs_9                 3.568180e-01 1 1  ON 29
 uuAs_0                 9.836150e-05 1 1  ON 30
 uuAs_1                -2.123058e-04 1 1  ON 31
 uuAs_2                -9.718003e-05 1 1  ON 32
 uuAs_3                 2.204165e-05 1 1  ON 33
 uuAs_4                 2.542374e-05 1 1  ON 34
 uuAs_5                 3.037845e-05 1 1  ON 35
 uuAs_6                -4.275217e-04 1 1  ON 36
 uuAs_7                 6.861610e-05 1 1  ON 37
 uuAs_8                 1.994678e-06 1 1  ON 38
 uuAs_9                 1.551999e-04 1 1  ON 39
uuAs_10                 5.262659e-05 1 1  ON 40
uuAs_11                -4.863505e-05 1 1  ON 41
uuAs_12                 4.069420e-06 1 1  ON 42
uuAs_13                 8.474593e-05 1 1  ON 43
uuAs_14                 1.681486e-05 1 1  ON 44
uuAs_15                -1.731321e-06 1 1  ON 45
uuAs_16                -2.266803e-04 1 1  ON 46
uuAs_17                 9.563306e-05 1 1  ON 47
uuAs_18                 4.220872e-05 1 1  ON 48
uuAs_19                -8.062432e-06 1 1  ON 49
uuAs_20                -2.287249e-05 1 1  ON 50
uuAs_21                -1.310774e-05 1 1  ON 51
uuAs_22                 2.510639e-06 1 1  ON 52
uuAs_23                 1.741610e-05 1 1  ON 53
uuAs_24                 2.285832e-06 1 1  ON 54
uuAs_25                -5.921068e-07 1 1  ON 55
 udAs_0                -2.171258e-04 1 1  ON 56
 udAs_1                -9.998595e-05 1 1  ON 57
 udAs_2                 2.066360e-04 1 1  ON 58
 udAs_3                 2.621823e-04 1 1  ON 59
 udAs_4                 3.106875e-06 1 1  ON 60
 udAs_5                -1.125168e-05 1 1  ON 61
 udAs_6                 2.706610e-04 1 1  ON 62
 udAs_7                 1.524477e-04 1 1  ON 63
 udAs_8                -1.628886e-05 1 1  ON 64
 udAs_9                -4.227546e-05 1 1  ON 65
udAs_10                 1.593298e-04 1 1  ON 66
udAs_11                -1.949399e-04 1 1  ON 67
udAs_12                 1.966164e-05 1 1  ON 68
udAs_13                -3.502263e-04 1 1  ON 69
udAs_14                -2.785793e-05 1 1  ON 70
udAs_15                 6.818294e-07 1 1  ON 71
udAs_16                 3.710746e-04 1 1  ON 72
udAs_17                -4.799772e-04 1 1  ON 73
udAs_18                 2.204303e-04 1 1  ON 74
udAs_19                -1.972358e-05 1 1  ON 75
udAs_20                 5.005958e-05 1 1  ON 76
udAs_21                -1.975940e-05 1 1  ON 77
udAs_22                 2.364309e-06 1 1  ON 78
udAs_23                -1.254157e-05 1 1  ON 79
udAs_24                 3.828656e-06 1 1  ON 80
udAs_25                -5.197342e-07 1 1  ON 81
  </optVariables>
   Restore the number of walkers to 1, removing 0 walkers.
</opt>
</optimization-report>
  QMC Execution time = 5.816 secs
  Reusing QMCFixedSampleLinearOptimize
 Using QMCCostFunction::QMCCostFunction

=========================================================
  Start QMCFixedSampleLinearOptimize
  File Root As.log.s007 append = no 
=========================================================
  Skip QMCDriver::putQMCInfo 
  Resetting Properties of the walkers 1 x 13

=========================================================
  Start VMC
  File Root As.log.s007 append = no 
=========================================================
Using existing walkers 
  Resetting Properties of the walkers 1 x 13

<vmc function="put">
  qmc_counter=6  my_counter=6
  time step      = 1.5000e-01
  blocks         = 500
  steps          = 1
  substeps       = 5
  current        = 0
  target samples = 5.1200e+05
  walkers/mpi    = 1

  stepsbetweensamples = 1
<parameter name="blocks" condition="int">500</parameter>
<parameter name="blocks_between_recompute" condition="int">0</parameter>
<parameter name="check_properties" condition="int">100</parameter>
<parameter name="checkproperties" condition="int">100</parameter>
<parameter name="current" condition="int">0</parameter>
<parameter name="dmcwalkersperthread" condition="real">5.0000e+02</parameter>
<parameter name="maxcpusecs" condition="real">3.6000e+05</parameter>
<parameter name="record_configs" condition="int">0</parameter>
<parameter name="record_walkers" condition="int">1</parameter>
<parameter name="recordconfigs" condition="int">0</parameter>
<parameter name="recordwalkers" condition="int">1</parameter>
<parameter name="rewind" condition="int">0</parameter>
<parameter name="samples" condition="real">5.1200e+05</parameter>
<parameter name="samplesperthread" condition="real">5.0000e+02</parameter>
<parameter name="steps" condition="int">1</parameter>
<parameter name="stepsbetweensamples" condition="int">1</parameter>
<parameter name="store_configs" condition="int">0</parameter>
<parameter name="storeconfigs" condition="int">0</parameter>
<parameter name="sub_steps" condition="int">5</parameter>
<parameter name="substeps" condition="int">5</parameter>
<parameter name="tau" condition="au">1.5000e-01</parameter>
<parameter name="time_step" condition="au">1.5000e-01</parameter>
<parameter name="timestep" condition="au">1.5000e-01</parameter>
<parameter name="use_drift" condition="string">no</parameter>
<parameter name="usedrift" condition="string">no</parameter>
<parameter name="walkers" condition="int">1</parameter>
<parameter name="warmup_steps" condition="int">0</parameter>
<parameter name="warmupsteps" condition="int">0</parameter>
  DumpConfig==false Nothing (configurations, state) will be saved.
  Walker Samples are dumped every 1 steps.
</vmc>
  Set drift_modifier UNR parameter a = 1.0000e+00
  EstimatorManagerBase::add replace LocalEnergy estimator.
  Set drift_modifier UNR parameter a = 1.0000e+00
  EstimatorManagerBase::add replace LocalEnergy estimator.
<optimization-report>
<vmc stage="main" blocks="500">
  Cannot make clones again. Use existing 1 clones
  Initial partition of walkers 0 1 
  Using Particle by Particle moves
  Walker moves without drift
  Total Sample Size   =512000
  Walker distribution on root = 0 1 
  Using Locality Approximation
===== Memory Usage after the buffer registration =====
Available memory on node 0, free + buffers : 49569 MB
Memory footprint by rank 0 on node 0       : 604 MB
==================================================
====================================================
  SimpleFixedNodeBranch::finalize after a VMC block
    QMC counter        = 7
    time step          = 0.15
    reference energy   = -6.10046
    reference variance = 0.426813
====================================================
  Execution time = 3.6234e+00
</vmc>
<opt stage="setup">
  <log>
   Reading configurations from h5FileRoot As.log.s007
  QMCCostFunction is created with 1 threads.
  Using Nonlocal PP in Opt: NonLocalECP
   Number of samples loaded to each thread : 500 
  VMC Eavg = -6.1800e+00
  VMC Evar = 7.6695e-01
  Total weights = 5.1200e+05
  Execution time = 9.5984e-01
  </log>
</opt>
<opt stage="main" walkers="512000">
  <log>

*****************************************
Building overlap and Hamiltonian matrices
*****************************************

Among totally 82 optimized parameters, largest LM parameter change : 2.0486e-02 at parameter 20

******************************************************************************
Init Cost =  -5.8327e+00    New Cost =  -5.8341e+00  Delta Cost =  -1.4438e-03
******************************************************************************

The new set of parameters is valid. Updating the trial wave function!

*****************************************************************************
Applying the update for shift_i =   1.0000e-02     and shift_s =   3.9062e-03
*****************************************************************************
  Execution time = 5.5522e+00
  </log>
  <optVariables href="As.log.s007.opt.xml">
   uu_0                 4.513509e-01 1 1  ON 0
   uu_1                 2.552436e-01 1 1  ON 1
   uu_2                 1.730667e-01 1 1  ON 2
   uu_3                 1.386738e-01 1 1  ON 3
   uu_4                 1.066495e-01 1 1  ON 4
   uu_5                 6.493577e-02 1 1  ON 5
   uu_6                 1.665634e-02 1 1  ON 6
   uu_7                -1.444702e-02 1 1  ON 7
   uu_8                -3.085850e-02 1 1  ON 8
   uu_9                -4.251198e-02 1 1  ON 9
   ud_0                 9.472579e-01 1 1  ON 10
   ud_1                 5.785611e-01 1 1  ON 11
   ud_2                 2.891617e-01 1 1  ON 12
   ud_3                 7.882859e-02 1 1  ON 13
   ud_4                -3.260745e-02 1 1  ON 14
   ud_5                -1.068982e-01 1 1  ON 15
   ud_6                -1.743671e-01 1 1  ON 16
   ud_7                -2.152203e-01 1 1  ON 17
   ud_8                -2.330669e-01 1 1  ON 18
   ud_9                -2.341555e-01 1 1  ON 19
  eAs_0                -1.308232e+00 1 1  ON 20
  eAs_1                -5.050696e-01 1 1  ON 21
  eAs_2                -4.581566e-01 1 1  ON 22
  eAs_3                -1.430765e-01 1 1  ON 23
  eAs_4                 2.326730e-01 1 1  ON 24
  eAs_5                 2.529608e-01 1 1  ON 25
  eAs_6                 4.198640e-01 1 1  ON 26
  eAs_7                 5.116213e-01 1 1  ON 27
  eAs_8                 5.282976e-01 1 1  ON 28
  eAs_9                 3.653526e-01 1 1  ON 29
 uuAs_0                 9.210192e-05 1 1  ON 30
 uuAs_1                -2.290119e-04 1 1  ON 31
 uuAs_2                -1.035283e-04 1 1  ON 32
 uuAs_3                 3.038108e-05 1 1  ON 33
 uuAs_4                 2.789711e-05 1 1  ON 34
 uuAs_5                 3.075913e-05 1 1  ON 35
 uuAs_6                -4.518919e-04 1 1  ON 36
 uuAs_7                 7.832231e-05 1 1  ON 37
 uuAs_8                -1.014641e-05 1 1  ON 38
 uuAs_9                 1.818825e-04 1 1  ON 39
uuAs_10                 5.703659e-05 1 1  ON 40
uuAs_11                -4.521565e-05 1 1  ON 41
uuAs_12                 7.880556e-06 1 1  ON 42
uuAs_13                 6.563940e-05 1 1  ON 43
uuAs_14                 1.305137e-05 1 1  ON 44
uuAs_15                -1.722585e-06 1 1  ON 45
uuAs_16                -2.450359e-04 1 1  ON 46
uuAs_17                 8.032779e-05 1 1  ON 47
uuAs_18                 4.294372e-05 1 1  ON 48
uuAs_19                -9.593033e-06 1 1  ON 49
uuAs_20                -1.243537e-05 1 1  ON 50
uuAs_21                -1.245944e-05 1 1  ON 51
uuAs_22                 2.549655e-06 1 1  ON 52
uuAs_23                 1.479967e-05 1 1  ON 53
uuAs_24                 2.222978e-06 1 1  ON 54
uuAs_25                -5.840655e-07 1 1  ON 55
 udAs_0                -2.277659e-04 1 1  ON 56
 udAs_1                -1.163094e-04 1 1  ON 57
 udAs_2                 1.912565e-04 1 1  ON 58
 udAs_3                 2.563086e-04 1 1  ON 59
 udAs_4                 2.843527e-06 1 1  ON 60
 udAs_5                -1.280142e-05 1 1  ON 61
 udAs_6                 2.392777e-04 1 1  ON 62
 udAs_7                 1.237265e-04 1 1  ON 63
[...]
   uu_2                 1.676802e-01 1 1  ON 2
   uu_3                 1.396926e-01 1 1  ON 3
   uu_4                 1.081911e-01 1 1  ON 4
   uu_5                 6.753481e-02 1 1  ON 5
   uu_6                 2.035858e-02 1 1  ON 6
   uu_7                -8.847500e-03 1 1  ON 7
   uu_8                -2.350399e-02 1 1  ON 8
   uu_9                -2.166754e-02 1 1  ON 9
   ud_0                 1.009548e+00 1 1  ON 10
   ud_1                 6.345189e-01 1 1  ON 11
   ud_2                 3.435801e-01 1 1  ON 12
   ud_3                 1.312877e-01 1 1  ON 13
   ud_4                 2.171725e-02 1 1  ON 14
   ud_5                -5.315366e-02 1 1  ON 15
   ud_6                -1.246502e-01 1 1  ON 16
   ud_7                -1.707900e-01 1 1  ON 17
   ud_8                -1.890836e-01 1 1  ON 18
   ud_9                -1.942808e-01 1 1  ON 19
  eAs_0                -1.434256e+00 1 1  ON 20
  eAs_1                -5.301783e-01 1 1  ON 21
  eAs_2                -4.600916e-01 1 1  ON 22
  eAs_3                -1.507908e-01 1 1  ON 23
  eAs_4                 2.287087e-01 1 1  ON 24
  eAs_5                 2.466305e-01 1 1  ON 25
  eAs_6                 4.164070e-01 1 1  ON 26
  eAs_7                 4.992024e-01 1 1  ON 27
  eAs_8                 5.045543e-01 1 1  ON 28
  eAs_9                 4.207944e-01 1 1  ON 29
 uuAs_0                 1.130721e-04 1 1  ON 30
 uuAs_1                -2.105359e-04 1 1  ON 31
 uuAs_2                -1.061740e-04 1 1  ON 32
 uuAs_3                 1.824310e-05 1 1  ON 33
 uuAs_4                 2.718651e-05 1 1  ON 34
 uuAs_5                 3.265824e-05 1 1  ON 35
 uuAs_6                -4.381453e-04 1 1  ON 36
 uuAs_7                 6.578192e-05 1 1  ON 37
 uuAs_8                -3.710151e-07 1 1  ON 38
 uuAs_9                 1.436665e-04 1 1  ON 39
uuAs_10                 5.294148e-05 1 1  ON 40
uuAs_11                -4.922320e-05 1 1  ON 41
uuAs_12                 5.430544e-06 1 1  ON 42
uuAs_13                 9.895747e-05 1 1  ON 43
uuAs_14                 1.703360e-05 1 1  ON 44
uuAs_15                -1.872377e-06 1 1  ON 45
uuAs_16                -2.227121e-04 1 1  ON 46
uuAs_17                 1.020520e-04 1 1  ON 47
uuAs_18                 4.423943e-05 1 1  ON 48
uuAs_19                -9.062738e-06 1 1  ON 49
uuAs_20                -2.949837e-05 1 1  ON 50
uuAs_21                -1.358233e-05 1 1  ON 51
uuAs_22                 2.664860e-06 1 1  ON 52
uuAs_23                 1.974626e-05 1 1  ON 53
uuAs_24                 2.326827e-06 1 1  ON 54
uuAs_25                -6.120346e-07 1 1  ON 55
 udAs_0                -2.322923e-04 1 1  ON 56
 udAs_1                -2.389393e-04 1 1  ON 57
 udAs_2                 1.555807e-04 1 1  ON 58
 udAs_3                 3.245811e-04 1 1  ON 59
 udAs_4                 2.417836e-05 1 1  ON 60
 udAs_5                -4.931990e-06 1 1  ON 61
 udAs_6                 6.561584e-05 1 1  ON 62
 udAs_7                 1.833474e-04 1 1  ON 63
 udAs_8                -8.639339e-05 1 1  ON 64
 udAs_9                 1.251474e-04 1 1  ON 65
udAs_10                 2.075608e-04 1 1  ON 66
udAs_11                -1.744518e-04 1 1  ON 67
udAs_12                 3.839228e-05 1 1  ON 68
udAs_13                -4.345314e-04 1 1  ON 69
udAs_14                -4.300898e-05 1 1  ON 70
udAs_15                 5.676688e-07 1 1  ON 71
udAs_16                 2.159318e-04 1 1  ON 72
udAs_17                -5.335778e-04 1 1  ON 73
udAs_18                 2.235084e-04 1 1  ON 74
udAs_19                -2.539209e-05 1 1  ON 75
udAs_20                 1.014258e-04 1 1  ON 76
udAs_21                -1.916689e-05 1 1  ON 77
udAs_22                 2.520501e-06 1 1  ON 78
udAs_23                -2.475098e-05 1 1  ON 79
udAs_24                 4.335256e-06 1 1  ON 80
udAs_25                -5.329901e-07 1 1  ON 81
  </optVariables>
   Restore the number of walkers to 1, removing 0 walkers.
</opt>
</optimization-report>
  QMC Execution time = 5.637 secs

=========================================================
  Start VMC
  File Root As.log.s021 append = no 
=========================================================
  Using the current 1 walkers.
  Total number of walkers: 1024
  Total weight: 1024
  Resetting Properties of the walkers 1 x 13

<vmc function="put">
  qmc_counter=0  my_counter=0
  time step      = 0.15
  blocks         = 200
  steps          = 1
  substeps       = 30
  current        = 0
  target samples = 4096
  walkers/mpi    = 1

  stepsbetweensamples = 50
<parameter name="blocks" condition="int">200</parameter>
<parameter name="blocks_between_recompute" condition="int">0</parameter>
<parameter name="check_properties" condition="int">100</parameter>
<parameter name="checkproperties" condition="int">100</parameter>
<parameter name="current" condition="int">0</parameter>
<parameter name="dmcwalkersperthread" condition="real">4</parameter>
<parameter name="maxcpusecs" condition="real">3.6e+05</parameter>
<parameter name="record_configs" condition="int">0</parameter>
<parameter name="record_walkers" condition="int">50</parameter>
<parameter name="recordconfigs" condition="int">0</parameter>
<parameter name="recordwalkers" condition="int">50</parameter>
<parameter name="rewind" condition="int">0</parameter>
<parameter name="samples" condition="real">4096</parameter>
<parameter name="samplesperthread" condition="real">4</parameter>
<parameter name="steps" condition="int">1</parameter>
<parameter name="stepsbetweensamples" condition="int">50</parameter>
<parameter name="store_configs" condition="int">0</parameter>
<parameter name="storeconfigs" condition="int">0</parameter>
<parameter name="sub_steps" condition="int">30</parameter>
<parameter name="substeps" condition="int">30</parameter>
<parameter name="tau" condition="au">0.15</parameter>
<parameter name="time_step" condition="au">0.15</parameter>
<parameter name="timestep" condition="au">0.15</parameter>
<parameter name="use_drift" condition="string">no</parameter>
<parameter name="usedrift" condition="string">no</parameter>
<parameter name="walkers" condition="int">1</parameter>
<parameter name="warmup_steps" condition="int">100</parameter>
<parameter name="warmupsteps" condition="int">100</parameter>
  DumpConfig==true Configurations are dumped to config.h5 with a period of 200 blocks
  Walker Samples are dumped every 50 steps.
</vmc>
  Set drift_modifier UNR parameter a = 1
  EstimatorManagerBase::add replace LocalEnergy estimator.
  Cannot make clones again. Use existing 1 clones
  Initial partition of walkers 0 1 

  Using Particle by Particle moves
  Walker moves without drift
  Total Sample Size   =4096
  Walker distribution on root = 0 1 
  Using Locality Approximation
===== Memory Usage after the buffer registration =====
Available memory on node 0, free + buffers : 49506 MB
Memory footprint by rank 0 on node 0       : 648 MB
==================================================
  Anonymous Buffer size per walker : 2176 Bytes.
MEMORY increase 0 MB VMC::resetRun
  samples are written to the config.h5
====================================================
  SimpleFixedNodeBranch::finalize after a VMC block
    QMC counter        = 21
    time step          = 0.15
    reference energy   = -6.14451
    reference variance = 0.323695
====================================================
  QMC Execution time = 2.786 secs

=========================================================
  Start DMC
  File Root As.log.s022 append = no 
=========================================================
Using existing walkers 
  Resetting Properties of the walkers 1 x 13
  Set drift_modifier UNR parameter a = 1
  EstimatorManagerBase::add replace LocalEnergy estimator.
  Cannot make clones again. Use existing 1 clones
  Total number of walkers: 4096
  Total weight: 4096
  Creating WalkerController: target  number of walkers = 4096
  Using WalkerControlMPI for dynamic population control.
  START ALL OVER 
  WalkerControlBase parameters 
    maxCopy = 2
    Max Walkers per MPI rank 9
    Min Walkers per MPI rank 1
    Using non-blocking send/recv
  QMC counter      = 22
  time step        = 0.02
  effective time step = 0.02
  trial energy     = -6.145
  reference energy = -6.145
  Feedback = 1
  reference variance = 0.3237
  target walkers = 4096
  branching cutoff scheme classic
  branch cutoff = 50 75
  Max and minimum walkers per node= 9 1
  QMC Status (BranchMode) = 0000001101
  Initial partition of walkers on a node: 0 4 
  Updates by particle-by-particle moves
  DMC moves are rejected when a node crossing is detected
  Using Non-local T-moves v1, M. Casula et al., JCP 132, 154113 (2010)
===== Memory Usage after the buffer registration =====
Available memory on node 0, free + buffers : 49448 MB
Memory footprint by rank 0 on node 0       : 659 MB
==================================================
SimpleFixedNodeBranch::checkParameters 
  Average Energy of a population  = -6.14691
  Energy Variance = 0.393951

  Fluctuating population
  Persistent walkers are killed after 1 MC sweeps
  BranchInterval = 1
  Steps per block = 50
  Number of blocks = 150

  DMC Engine Initialization = 0.03584 secs

 Warmup is completed after 200

  TauEff     = 0.0199
 TauEff/Tau = 0.9951
  Etrial     = -6.105
 Running average of energy = -6.162
                  Variance = 0.3212
branch cutoff = 10 15
====================================================
  SimpleFixedNodeBranch::finalize after a DMC block
    QMC counter                   = 22
    time step                     = 0.02
    effective time step           = 0.0199032
    trial energy                  = -6.16153
    reference energy              = -6.1625
    reference variance            = 0.321168
    target walkers                = 4096
    branch cutoff                 = 10 15
    Max and minimum walkers per node= 9 1
    Feedback                      = 1
    QMC Status (BranchMode)       = 0000001111
====================================================
  QMC Execution time = 193.7 secs
  Reusing DMC
BRANCH resetRun
 SimpleFixedNodeBranch::resetRun detected changes in <parameter>'s 
 BranchMode : 0000001111 0000001111
  WalkerControlBase parameters 
    maxCopy = 2
    Max Walkers per MPI rank 9
    Min Walkers per MPI rank 1
    Using non-blocking send/recv
 iParam (old):                  0                 1                22              4096                 9                 1                 1                 0
 iParam (new):                100                 1                22              4096                 9                 1                 1                 0
 vParam (old):               0.02     0.01990323131      -6.161526187      -6.162503227      -6.163898772                15                10               0.2      0.3211682368      -44992.43745              7301                 1                10                 1                 1                 1                 1
 vParam (new):               0.01     0.01990323131      -6.161526187      -6.162503227      -6.163898772                15                10               0.2      0.3211682368      -44992.43745              7301                 1                10                 1                 1                 1                 1

 Using branching cutoff scheme classic
SimpleFixedNodeBranch::checkParameters 
  Average Energy of a population  = -6.16265
  Energy Variance = 0.33239

  Using Non-local T-moves v1, M. Casula et al., JCP 132, 154113 (2010)
===== Memory Usage after the buffer registration =====
Available memory on node 0, free + buffers : 49463 MB
Memory footprint by rank 0 on node 0       : 664 MB
==================================================

=========================================================
  Start DMC
  File Root As.log.s023 append = no 
=========================================================
Using existing walkers 
  Resetting Properties of the walkers 1 x 13
  Set drift_modifier UNR parameter a = 1
  EstimatorManagerBase::add replace LocalEnergy estimator.
  Cannot make clones again. Use existing 1 clones
SimpleFixedNodeBranch::checkParameters 
  Average Energy of a population  = -6.16389
  Energy Variance = 0.331381

  Fluctuating population
  Persistent walkers are killed after 1 MC sweeps
  BranchInterval = 1
  Steps per block = 100
  Number of blocks = 200

  DMC Engine Initialization = 0.0005271434784 secs

 Warmup is completed after 100

  TauEff     = 0.009981740784
 TauEff/Tau = 0.9981740784
  Etrial     = -6.211844213
 Running average of energy = -6.155458668
                  Variance = 0.3340919044
branch cutoff = 10 15
====================================================
  SimpleFixedNodeBranch::finalize after a DMC block
    QMC counter                   = 23
    time step                     = 0.01
    effective time step           = 0.00998222
    trial energy                  = -6.16204
    reference energy              = -6.16302
    reference variance            = 0.334092
    target walkers                = 4096
    branch cutoff                 = 10 15
    Max and minimum walkers per node= 9 1
    Feedback                      = 1
    QMC Status (BranchMode)       = 0000001111
====================================================
  QMC Execution time = 514.6 secs
  Reusing DMC
BRANCH resetRun
 SimpleFixedNodeBranch::resetRun detected changes in <parameter>'s 
 BranchMode : 0000001111 0000001111
  WalkerControlBase parameters 
    maxCopy = 2
    Max Walkers per MPI rank 9
    Min Walkers per MPI rank 1
    Using non-blocking send/recv
 iParam (old):                  0                 1                23              4096                 9                 1                 1                 0
 iParam (new):                200                 1                23              4096                 9                 1                 1                 0
 vParam (old):               0.01    0.009982216898       -6.16204424       -6.16302128      -6.166656469                15                10               0.2      0.3340919044      -122650.2901             19901                 1                10                 1                 1                 1                 1
 vParam (new):              0.005    0.009982216898       -6.16204424       -6.16302128      -6.166656469                15                10               0.2      0.3340919044      -122650.2901             19901                 1                10                 1                 1                 1                 1

 Using branching cutoff scheme classic
SimpleFixedNodeBranch::checkParameters 
  Average Energy of a population  = -6.16935
  Energy Variance = 0.283866

  Using Non-local T-moves v1, M. Casula et al., JCP 132, 154113 (2010)
===== Memory Usage after the buffer registration =====
Available memory on node 0, free + buffers : 49442 MB
Memory footprint by rank 0 on node 0       : 667 MB
==================================================

=========================================================
  Start DMC
  File Root As.log.s024 append = no 
=========================================================
Using existing walkers 
  Resetting Properties of the walkers 1 x 13
  Set drift_modifier UNR parameter a = 1
  EstimatorManagerBase::add replace LocalEnergy estimator.
  Cannot make clones again. Use existing 1 clones
SimpleFixedNodeBranch::checkParameters 
  Average Energy of a population  = -6.16823
  Energy Variance = 0.285971

  Fluctuating population
  Persistent walkers are killed after 1 MC sweeps
  BranchInterval = 1
  Steps per block = 200
  Number of blocks = 250

  DMC Engine Initialization = 0.002063035965 secs

 Warmup is completed after 200

  TauEff     = 0.00499676142
 TauEff/Tau = 0.9993522839
  Etrial     = -6.149877951
 Running average of energy = -6.160901055
                  Variance = 0.313460613
branch cutoff = 10 15
====================================================
  SimpleFixedNodeBranch::finalize after a DMC block
    QMC counter                   = 24
    time step                     = 0.005
    effective time step           = 0.00499678
    trial energy                  = -6.16268
    reference energy              = -6.16243
    reference variance            = 0.313461
    target walkers                = 4096
    branch cutoff                 = 10 15
    Max and minimum walkers per node= 9 1
    Feedback                      = 1
    QMC Status (BranchMode)       = 0000001111
====================================================
  QMC Execution time = 1280 secs
  Reusing DMC
BRANCH resetRun
 SimpleFixedNodeBranch::resetRun detected changes in <parameter>'s 
 BranchMode : 0000001111 0000001111
  WalkerControlBase parameters 
    maxCopy = 2
    Max Walkers per MPI rank 9
    Min Walkers per MPI rank 1
    Using non-blocking send/recv
 iParam (old):                  0                 1                24              4096                 9                 1                 1                 0
 iParam (new):                400                 1                24              4096                 9                 1                 1                 0
 vParam (old):              0.005    0.004996778004      -6.162678988      -6.162434877       -6.15984788                15                10               0.2       0.313460613      -306895.4167             49801                 1                10                 1                 1                 1                 1
 vParam (new):             0.0025    0.004996778004      -6.162678988      -6.162434877       -6.15984788                15                10               0.2       0.313460613      -306895.4167             49801                 1                10                 1                 1                 1                 1

 Using branching cutoff scheme classic
SimpleFixedNodeBranch::checkParameters 
  Average Energy of a population  = -6.16006
  Energy Variance = 0.332808

  Using Non-local T-moves v1, M. Casula et al., JCP 132, 154113 (2010)
===== Memory Usage after the buffer registration =====
Available memory on node 0, free + buffers : 49410 MB
Memory footprint by rank 0 on node 0       : 671 MB
==================================================

=========================================================
  Start DMC
  File Root As.log.s025 append = no 
=========================================================
Using existing walkers 
  Resetting Properties of the walkers 1 x 13
  Set drift_modifier UNR parameter a = 1
  EstimatorManagerBase::add replace LocalEnergy estimator.
  Cannot make clones again. Use existing 1 clones
SimpleFixedNodeBranch::checkParameters 
  Average Energy of a population  = -6.1603
  Energy Variance = 0.331836

  Fluctuating population
  Persistent walkers are killed after 1 MC sweeps
  BranchInterval = 1
  Steps per block = 400
  Number of blocks = 300

  DMC Engine Initialization = 0.0003077983856 secs

 Warmup is completed after 400

  TauEff     = 0.002499436242
 TauEff/Tau = 0.9997744969
  Etrial     = -6.16469464
 Running average of energy = -6.168271808
                  Variance = 0.3134804101
branch cutoff = 10 15
====================================================
  SimpleFixedNodeBranch::finalize after a DMC block
    QMC counter                   = 25
    time step                     = 0.0025
    effective time step           = 0.00249942
    trial energy                  = -6.15858
    reference energy              = -6.16298
    reference variance            = 0.31348
    target walkers                = 4096
    branch cutoff                 = 10 15
    Max and minimum walkers per node= 9 1
    Feedback                      = 1
    QMC Status (BranchMode)       = 0000001111
====================================================
  QMC Execution time = 3075 secs
  Total Execution time = 5180 secs

=========================================================
  A new xml input file : As.log.s025.cont.xml
TACC:  Shutdown complete. Exiting. 
