----- GAMESS execution script 'rungms' -----
This job is running on host gwang18-Lenovo-Y50-70
under operating system Linux at Sun Jun 24 18:04:10 EDT 2018
Available scratch disk space (Kbyte units) at beginning of the job is
Filesystem     1K-blocks     Used Available Use% Mounted on
/dev/sda7      411134224 55931680 334295076  15% /
GAMESS temporary binary files will be written to /home/gwang18/research/qwalk/ecpcorrelation/o/hf
GAMESS supplementary output files will be written to /home/gwang18/research/qwalk/ecpcorrelation/o/hf
Copying input file o.inp to your run's scratch directory...
cp o.inp /home/gwang18/research/qwalk/ecpcorrelation/o/hf/o.F05
unset echo
/home/gwang18/gamess/ddikick.x /home/gwang18/gamess/gamess.00.x o -ddi 1 1 gwang18-Lenovo-Y50-70 -scr /home/gwang18/research/qwalk/ecpcorrelation/o/hf

 Distributed Data Interface kickoff program.
 Initiating 1 compute processes on 1 nodes to run the following command:
 /home/gwang18/gamess/gamess.00.x o 

          ******************************************************
          *         GAMESS VERSION =  5 DEC 2014 (R1)          *
          *             FROM IOWA STATE UNIVERSITY             *
          * M.W.SCHMIDT, K.K.BALDRIDGE, J.A.BOATZ, S.T.ELBERT, *
          *   M.S.GORDON, J.H.JENSEN, S.KOSEKI, N.MATSUNAGA,   *
          *          K.A.NGUYEN, S.J.SU, T.L.WINDUS,           *
          *       TOGETHER WITH M.DUPUIS, J.A.MONTGOMERY       *
          *         J.COMPUT.CHEM.  14, 1347-1363(1993)        *
          **************** 64 BIT LINUX VERSION ****************

  SINCE 1993, STUDENTS AND POSTDOCS WORKING AT IOWA STATE UNIVERSITY
  AND ALSO IN THEIR VARIOUS JOBS AFTER LEAVING ISU HAVE MADE IMPORTANT
  CONTRIBUTIONS TO THE CODE:
     IVANA ADAMOVIC, CHRISTINE AIKENS, YURI ALEXEEV, POOJA ARORA,
     ANDREY ASADCHEV, ROB BELL, PRADIPTA BANDYOPADHYAY, JONATHAN BENTZ,
     BRETT BODE, KURT BRORSEN, CALEB CARLIN, GALINA CHABAN, WEI CHEN,
     CHEOL HO CHOI, PAUL DAY, ALBERT DEFUSCO, NUWAN DESILVA, TIM DUDLEY,
     DMITRI FEDOROV, GRAHAM FLETCHER, MARK FREITAG, KURT GLAESEMANN,
     DAN KEMP, GRANT MERRILL, NORIYUKI MINEZAWA, JONATHAN MULLIN,
     TAKESHI NAGATA, SEAN NEDD, HEATHER NETZLOFF, BOSILJKA NJEGIC, RYAN OLSON,
     MIKE PAK, SPENCER PRUITT, LUKE ROSKOP, JIM SHOEMAKER, LYUDMILA SLIPCHENKO,
     TONY SMITH, SAROM SOK, JIE SONG, TETSUYA TAKETSUGU, SIMON WEBB,
     PENG XU, SOOHAENG YOO, FEDERICO ZAHARIEV

  ADDITIONAL CODE HAS BEEN PROVIDED BY COLLABORATORS IN OTHER GROUPS:
     IOWA STATE UNIVERSITY:
          JOE IVANIC, AARON WEST, LAIMUTIS BYTAUTAS, KLAUS RUEDENBERG
     UNIVERSITY OF TOKYO: KIMIHIKO HIRAO, TAKAHITO NAKAJIMA,
          TAKAO TSUNEDA, MUNEAKI KAMIYA, SUSUMU YANAGISAWA,
          KIYOSHI YAGI, MAHITO CHIBA, SEIKEN TOKURA, NAOAKI KAWAKAMI
     UNIVERSITY OF AARHUS: FRANK JENSEN
     UNIVERSITY OF IOWA: VISVALDAS KAIRYS, HUI LI
     NATIONAL INST. OF STANDARDS AND TECHNOLOGY: WALT STEVENS, DAVID GARMER
     UNIVERSITY OF PISA: BENEDETTA MENNUCCI, JACOPO TOMASI
     UNIVERSITY OF MEMPHIS: HENRY KURTZ, PRAKASHAN KORAMBATH
     UNIVERSITY OF ALBERTA: TOBY ZENG, MARIUSZ KLOBUKOWSKI
     UNIVERSITY OF NEW ENGLAND: MARK SPACKMAN
     MIE UNIVERSITY: HIROAKI UMEDA
     NAT. INST. OF ADVANCED INDUSTRIAL SCIENCE AND TECHNOLOGY: KAZUO KITAURA
     MICHIGAN STATE UNIVERSITY:
          KAROL KOWALSKI, MARTA WLOCH, JEFFREY GOUR, JESSE LUTZ,
          WEI LI, PIOTR PIECUCH
     UNIVERSITY OF SILESIA: MONIKA MUSIAL, STANISLAW KUCHARSKI
     FACULTES UNIVERSITAIRES NOTRE-DAME DE LA PAIX:
          OLIVIER QUINET, BENOIT CHAMPAGNE
     UNIVERSITY OF CALIFORNIA - SANTA BARBARA: BERNARD KIRTMAN
     INSTITUTE FOR MOLECULAR SCIENCE:
          KAZUYA ISHIMURA, MICHIO KATOUDA, AND SHIGERU NAGASE
     UNIVERSITY OF NOTRE DAME: ANNA POMOGAEVA, DAN CHIPMAN
     KYUSHU UNIVERSITY:
          HARUYUKI NAKANO,
          FENG LONG GU, JACEK KORCHOWIEC, MARCIN MAKOWSKI, AND YURIKO AOKI,
          HIROTOSHI MORI AND EISAKU MIYOSHI
     PENNSYLVANIA STATE UNIVERSITY:
          TZVETELIN IORDANOV, CHET SWALINA, JONATHAN SKONE,
          SHARON HAMMES-SCHIFFER
     WASEDA UNIVERSITY:
          MASATO KOBAYASHI, TOMOKO AKAMA, TSUGUKI TOUMA,
          TAKESHI YOSHIKAWA, YASUHIRO IKABATA, HIROMI NAKAI
     NANJING UNIVERSITY: SHUHUA LI
     UNIVERSITY OF NEBRASKA:
          PEIFENG SU, DEJUN SI, NANDUN THELLAMUREGE, YALI WANG, HUI LI
     UNIVERSITY OF ZURICH: ROBERTO PEVERATI, KIM BALDRIDGE
     N. COPERNICUS UNIVERSITY AND JACKSON STATE UNIVERSITY:
          MARIA BARYSZ
     UNIVERSITY OF COPENHAGEN: CASPER STEINMANN
     TOKYO INSTITUTE OF TECHNOLOGY: HIROYA NAKATA
     NAGOYA UNIVERSITY: YOSHIO NISHIMOTO, STEPHAN IRLE

 EXECUTION OF GAMESS BEGUN Sun Jun 24 18:04:10 2018

            ECHO OF THE FIRST FEW INPUT CARDS -
 INPUT CARD> $CONTRL                                                                        
 INPUT CARD>     SCFTYP=ROHF                                                                
 INPUT CARD>     MULT=3                                                                     
 INPUT CARD>     ICHARG=0                                                                   
 INPUT CARD>     RUNTYP=ENERGY                                                              
 INPUT CARD>     MAXIT=150                                                                  
 INPUT CARD>     PP=READ                                                                    
 INPUT CARD> $END                                                                           
 INPUT CARD>                                                                                
 INPUT CARD> $CONTRL                                                                        
 INPUT CARD>     ISPHER=1                                                                   
 INPUT CARD> $END                                                                           
 INPUT CARD>                                                                                
 INPUT CARD> $SYSTEM                                                                        
 INPUT CARD>     KDIAG=3                                                                    
 INPUT CARD>     mwords=125                                                                 
 INPUT CARD> $END                                                                           
 INPUT CARD>                                                                                
 INPUT CARD> $GUESS                                                                         
 INPUT CARD>    GUESS=HUCKEL                                                                
 INPUT CARD> $END                                                                           
 INPUT CARD>                                                                                
 INPUT CARD> $DATA                                                                          
 INPUT CARD>                                                                                
 INPUT CARD>C1                                                                              
 INPUT CARD>O 8 0. 0. 0.                                                                    
 INPUT CARD>s 9                                                                             
 INPUT CARD>1 54.775216   -0.0012444                                                        
 INPUT CARD>2 25.616801   0.0107330                                                         
 INPUT CARD>3 11.980245   0.0018889                                                         
 INPUT CARD>4 6.992317    -0.1742537                                                        
 INPUT CARD>5 2.620277    0.0017622                                                         
 INPUT CARD>6 1.225429    0.3161846                                                         
 INPUT CARD>7 0.577797    0.4512023                                                         
 INPUT CARD>8 0.268022    0.3121534                                                         
 INPUT CARD>9 0.125346    0.0511167                                                         
 INPUT CARD>s 1                                                                             
 INPUT CARD>1 1.351771    1.000000                                                          
 INPUT CARD>s 1                                                                             
 INPUT CARD>1 0.843157    1.000000                                                          
 INPUT CARD>s 1                                                                             
 INPUT CARD>1 0.224380    1.000000                                                          
 INPUT CARD>s 1                                                                             
 INPUT CARD>1 0.089752    1.000000                                                          
 INPUT CARD>p 9                                                                             
 INPUT CARD>1 22.217266   0.0104866                                                         
 INPUT CARD>2 10.747550   0.0366435                                                         
 INPUT CARD>3 5.315785    0.0803674                                                         
 INPUT CARD>4 2.660761    0.1627010                                                         
 INPUT CARD>5 1.331816    0.2377791                                                         
  125000000 WORDS OF MEMORY AVAILABLE


     RUN TITLE
     ---------
                                                                                 

 THE POINT GROUP OF THE MOLECULE IS C1      
 THE ORDER OF THE PRINCIPAL AXIS IS     0

 ATOM      ATOMIC                      COORDINATES (BOHR)
           CHARGE         X                   Y                   Z
 O           8.0     0.0000000000        0.0000000000        0.0000000000

          INTERNUCLEAR DISTANCES (ANGS.)
          ------------------------------

                1 O     

   1 O       0.0000000  

  * ... LESS THAN  3.000


     ATOMIC BASIS SET
     ----------------
 THE CONTRACTED PRIMITIVE FUNCTIONS HAVE BEEN UNNORMALIZED
 THE CONTRACTED BASIS FUNCTIONS ARE NOW NORMALIZED TO UNITY

  SHELL TYPE  PRIMITIVE        EXPONENT          CONTRACTION COEFFICIENT(S)

 O         

      1   S       1            54.7752160   -0.001244399967
      1   S       2            25.6168010    0.010732999712
      1   S       3            11.9802450    0.001888899949
      1   S       4             6.9923170   -0.174253695322
      1   S       5             2.6202770    0.001762199953
      1   S       6             1.2254290    0.316184591512
      1   S       7             0.5777970    0.451202287887
      1   S       8             0.2680220    0.312153391620
      1   S       9             0.1253460    0.051116698628

      2   S      10             1.3517710    1.000000000000

      3   S      11             0.8431570    1.000000000000

      4   S      12             0.2243800    1.000000000000

      5   S      13             0.0897520    1.000000000000

      6   P      14            22.2172660    0.010486599899
      6   P      15            10.7475500    0.036643499646
      6   P      16             5.3157850    0.080367399224
      6   P      17             2.6607610    0.162700998430
      6   P      18             1.3318160    0.237779097705
      6   P      19             0.6786260    0.281142197287
      6   P      20             0.3336730    0.264318897449
      6   P      21             0.1670170    0.146601398585
      6   P      22             0.0835980    0.045814499558

      7   P      23             1.1067370    1.000000000000

      8   P      24             0.4523640    1.000000000000

      9   P      25             0.1485620    1.000000000000

     10   P      26             0.0594250    1.000000000000

     11   P      27             0.0522320    1.000000000000

     12   D      28             4.0088670    1.000000000000

     13   D      29             1.3443310    1.000000000000

     14   D      30             0.4557110    1.000000000000

     15   D      31             0.1822840    1.000000000000

     16   F      32             2.7631150    1.000000000000

     17   F      33             0.8762890    1.000000000000

     18   F      34             0.3505160    1.000000000000

     19   G      35             1.7590810    1.000000000000

     20   G      36             0.7036320    1.000000000000

 TOTAL NUMBER OF BASIS SET SHELLS             =   20
 NUMBER OF CARTESIAN GAUSSIAN BASIS FUNCTIONS =  107
 NOTE: THIS RUN WILL RESTRICT THE MO VARIATION SPACE TO SPHERICAL HARMONICS.
 THE NUMBER OF ORBITALS KEPT IN THE VARIATIONAL SPACE WILL BE PRINTED LATER.
 NUMBER OF ELECTRONS                          =    8
 CHARGE OF MOLECULE                           =    0
 SPIN MULTIPLICITY                            =    3
 NUMBER OF OCCUPIED ORBITALS (ALPHA)          =    5
 NUMBER OF OCCUPIED ORBITALS (BETA )          =    3
 TOTAL NUMBER OF ATOMS                        =    1
 THE NUCLEAR REPULSION ENERGY IS        0.0000000000
 NOTE THIS RUN IS USING CORE POTENTIALS, AND THE NUMBER OF ELECTRONS,
 OCCUPIED ORBITALS, AND NUCLEAR REPULSION ENERGY WILL BE ADJUSTED BELOW
 AFTER REMOVAL OF THE CORE CHARGES.

 THIS MOLECULE IS RECOGNIZED AS BEING LINEAR,
 ORBITAL LZ DEGENERACY TOLERANCE ETOLLZ= 1.00E-06

     $CONTRL OPTIONS
     ---------------
 SCFTYP=ROHF         RUNTYP=ENERGY       EXETYP=RUN     
 MPLEVL=       0     CITYP =NONE         CCTYP =NONE         VBTYP =NONE    
 DFTTYP=NONE         TDDFT =NONE    
 MULT  =       3     ICHARG=       0     NZVAR =       0     COORD =UNIQUE  
 PP    =READ         RELWFN=NONE         LOCAL =NONE         NUMGRD=       F
 ISPHER=       1     NOSYM =       0     MAXIT =     150     UNITS =ANGS    
 PLTORB=       F     MOLPLT=       F     AIMPAC=       F     FRIEND=        
 NPRINT=       7     IREST =       0     GEOM  =INPUT   
 NORMF =       0     NORMP =       0     ITOL  =      20     ICUT  =       9
 INTTYP=BEST         GRDTYP=BEST         QMTTOL= 1.0E-06

     $SYSTEM OPTIONS
     ---------------
  REPLICATED MEMORY=   125000000 WORDS (ON EVERY NODE).
 DISTRIBUTED MEMDDI=           0 MILLION WORDS IN AGGREGATE,
 MEMDDI DISTRIBUTED OVER   1 PROCESSORS IS           0 WORDS/PROCESSOR.
 TOTAL MEMORY REQUESTED ON EACH PROCESSOR=   125000000 WORDS.
 TIMLIM=      525600.00 MINUTES, OR     365.0 DAYS.
 PARALL= F  BALTYP=  DLB     KDIAG=    3  COREFL= F
 MXSEQ2=     300 MXSEQ3=     150  mem10=         0

          --------------
          ECP POTENTIALS
          --------------

 PARAMETERS FOR "O-QMC   " ON ATOM    1 WITH ZCORE   2 AND LMAX  1 ARE
 FOR L= 1      COEFF    N           ZETA
    1        6.00000    1       12.30997
    2       73.85984    3       14.76962
    3      -47.87600    2       13.71419
 FOR L= 0      COEFF    N           ZETA
    1       85.86406    2       13.65512

 THE ECP RUN REMOVES    2 CORE ELECTRONS, AND THE SAME NUMBER OF PROTONS.
 NUMBER OF ELECTRONS KEPT IN THE CALCULATION IS =    6
 NUMBER OF OCCUPIED ORBITALS (ALPHA) KEPT IS    =    4
 NUMBER OF OCCUPIED ORBITALS (BETA ) KEPT IS    =    2
 THE ADJUSTED NUCLEAR REPULSION ENERGY=        0.0000000000
          ECP ANGULAR INTS.........     0.02 SECONDS

          ----------------
          PROPERTIES INPUT
          ----------------

     MOMENTS            FIELD           POTENTIAL          DENSITY
 IEMOM =       1   IEFLD =       0   IEPOT =       0   IEDEN =       0
 WHERE =COMASS     WHERE =NUCLEI     WHERE =NUCLEI     WHERE =NUCLEI  
 OUTPUT=BOTH       OUTPUT=BOTH       OUTPUT=BOTH       OUTPUT=BOTH    
 IEMINT=       0   IEFINT=       0                     IEDINT=       0
                                                       MORB  =       0
          EXTRAPOLATION IN EFFECT
          SOSCF IN EFFECT
 ORBITAL PRINTING OPTION: NPREO=     1   107     2     1

     -------------------------------
     INTEGRAL TRANSFORMATION OPTIONS
     -------------------------------
     NWORD  =            0
     CUTOFF = 1.0E-09     MPTRAN =       0
     DIRTRF =       F     AOINTS =DUP     

          ----------------------
          INTEGRAL INPUT OPTIONS
          ----------------------
 NOPK  =       1 NORDER=       0 SCHWRZ=       F

     ------------------------------------------
     THE POINT GROUP IS C1 , NAXIS= 0, ORDER= 1
     ------------------------------------------

 -- VARIATIONAL SPACE WILL BE RESTRICTED TO PURE SPHERICAL HARMONICS ONLY --
 AFTER EXCLUDING CONTAMINANT COMBINATIONS FROM THE CARTESIAN GAUSSIAN BASIS
 SET, THE NUMBER OF SPHERICAL HARMONICS KEPT IN THE VARIATION SPACE IS   82

     DIMENSIONS OF THE SYMMETRY SUBSPACES ARE
 A   =   82

 ..... DONE SETTING UP THE RUN .....
 STEP CPU TIME =     0.02 TOTAL CPU TIME =        0.0 (    0.0 MIN)
 TOTAL WALL CLOCK TIME=        0.2 SECONDS, CPU UTILIZATION IS   8.00%

          ********************
          1 ELECTRON INTEGRALS
          ********************
 TIME TO DO ORDINARY INTEGRALS=      0.00
 TIME TO DO      ECP INTEGRALS=      0.00
 ...... END OF ONE-ELECTRON INTEGRALS ......
 STEP CPU TIME =     0.00 TOTAL CPU TIME =        0.0 (    0.0 MIN)
 TOTAL WALL CLOCK TIME=        0.3 SECONDS, CPU UTILIZATION IS   7.69%

          -------------
          GUESS OPTIONS
          -------------
          GUESS =HUCKEL            NORB  =       0          NORDER=       0
          MIX   =       F          PRTMO =       F          PUNMO =       F
          TOLZ  = 1.0E-08          TOLE  = 1.0E-05
          SYMDEN=       F          PURIFY=       F

 INITIAL GUESS ORBITALS GENERATED BY HUCKEL   ROUTINE.
 HUCKEL GUESS REQUIRES     82927 WORDS.

 STATISTICS FOR GENERATION OF SYMMETRY ORBITAL -Q- MATRIX
 NUMBER OF CARTESIAN ATOMIC ORBITALS=        107
 NUMBER OF SPHERICAL CONTAMINANTS DROPPED=    25
 NUMBER OF LINEARLY DEPENDENT MOS DROPPED=     0
 TOTAL NUMBER OF MOS IN VARIATION SPACE=      82

 SYMMETRIES FOR INITIAL GUESS ORBITALS FOLLOW.  ALPHA SET(S).
     4 ORBITALS ARE OCCUPIED (    0 CORE ORBITALS).
     1=A        2=A        3=A        4=A        5=A        6=A        7=A   
     8=A        9=A       10=A       11=A       12=A       13=A       14=A   

 SYMMETRIES FOR INITIAL GUESS ORBITALS FOLLOW.   BETA SET(S).
     2 ORBITALS ARE OCCUPIED (    0 CORE ORBITALS).
     1=A        2=A        3=A        4=A        5=A        6=A        7=A   
     8=A        9=A       10=A       11=A       12=A   
 ...... END OF INITIAL ORBITAL SELECTION ......
 STEP CPU TIME =     0.01 TOTAL CPU TIME =        0.0 (    0.0 MIN)
 TOTAL WALL CLOCK TIME=        0.3 SECONDS, CPU UTILIZATION IS   9.37%

                    ----------------------
                    AO INTEGRAL TECHNOLOGY
                    ----------------------
     S,P,L SHELL ROTATED AXIS INTEGRALS, REPROGRAMMED BY
        KAZUYA ISHIMURA (IMS) AND JOSE SIERRA (SYNSTAR).
     S,P,D,L SHELL ROTATED AXIS INTEGRALS PROGRAMMED BY
        KAZUYA ISHIMURA (INSTITUTE FOR MOLECULAR SCIENCE).
     S,P,D,F,G SHELL TO TOTAL QUARTET ANGULAR MOMENTUM SUM 5,
        ERIC PROGRAM BY GRAHAM FLETCHER (ELORET AND NASA ADVANCED
        SUPERCOMPUTING DIVISION, AMES RESEARCH CENTER).
     S,P,D,F,G,L SHELL GENERAL RYS QUADRATURE PROGRAMMED BY
        MICHEL DUPUIS (PACIFIC NORTHWEST NATIONAL LABORATORY).

          --------------------
          2 ELECTRON INTEGRALS
          --------------------

 THE -PK- OPTION IS OFF, THE INTEGRALS ARE NOT IN SUPERMATRIX FORM.
 STORING   15000 INTEGRALS/RECORD ON DISK, USING 12 BYTES/INTEGRAL.
 TWO ELECTRON INTEGRAL EVALUATION REQUIRES  139935 WORDS OF MEMORY.
 II,JST,KST,LST =  1  1  1  1 NREC =         1 INTLOC =    1
 II,JST,KST,LST =  2  1  1  1 NREC =         1 INTLOC =    2
 II,JST,KST,LST =  3  1  1  1 NREC =         1 INTLOC =    7
 II,JST,KST,LST =  4  1  1  1 NREC =         1 INTLOC =   22
 II,JST,KST,LST =  5  1  1  1 NREC =         1 INTLOC =   56
 II,JST,KST,LST =  6  1  1  1 NREC =         1 INTLOC =  121
 II,JST,KST,LST =  7  1  1  1 NREC =         1 INTLOC =  220
 II,JST,KST,LST =  8  1  1  1 NREC =         1 INTLOC =  496
 II,JST,KST,LST =  9  1  1  1 NREC =         1 INTLOC = 1057
 II,JST,KST,LST = 10  1  1  1 NREC =         1 INTLOC = 2074
 II,JST,KST,LST = 11  1  1  1 NREC =         1 INTLOC = 3781
 II,JST,KST,LST = 12  1  1  1 NREC =         1 INTLOC = 6475
 II,JST,KST,LST = 13  1  1  1 NREC =         1 INTLOC =14020
 II,JST,KST,LST = 14  1  1  1 NREC =         2 INTLOC =13402
 II,JST,KST,LST = 15  1  1  1 NREC =         4 INTLOC = 7141
 II,JST,KST,LST = 16  1  1  1 NREC =         6 INTLOC =13765
 II,JST,KST,LST = 17  1  1  1 NREC =        13 INTLOC = 3596
 II,JST,KST,LST = 18  1  1  1 NREC =        23 INTLOC =12734
 II,JST,KST,LST = 19  1  1  1 NREC =        40 INTLOC = 6511
 II,JST,KST,LST = 20  1  1  1 NREC =        79 INTLOC =12670
 TOTAL NUMBER OF NONZERO TWO-ELECTRON INTEGRALS =             2144889
        143 INTEGRAL RECORDS WERE STORED ON DISK FILE  8.
  ...... END OF TWO-ELECTRON INTEGRALS .....
 STEP CPU TIME =     0.45 TOTAL CPU TIME =        0.5 (    0.0 MIN)
 TOTAL WALL CLOCK TIME=        0.8 SECONDS, CPU UTILIZATION IS  60.00%

          ---------------------------
                 ROHF SCF CALCULATION
          ---------------------------

     NUCLEAR ENERGY =         0.0000000000
     MAXIT =150     NPUNCH=  2     MULT=  3
     EXTRAP=T  DAMP=F  SHIFT=F  RSTRCT=F  DIIS=F  SOSCF=T
     DENSITY MATRIX CONV=  1.00E-05
     ROHF CANONICALIZATION PARAMETERS
             C-C     O-O     V-V
     ALPHA -0.5000  0.5000  1.5000
     BETA   1.5000  0.5000 -0.5000
     SOSCF WILL OPTIMIZE     316 ORBITAL ROTATION ANGLES. SOGTOL= 2.500E-01
     MEMORY REQUIRED FOR UHF/ROHF ITERS=    136382 WORDS.

 ITER EX      TOTAL ENERGY        E CHANGE  DENSITY CHANGE    ORB. GRAD 
   1  0      -15.5253219630   -15.5253219630   0.962321380   0.000000000
          ---------------START SECOND ORDER SCF---------------
   2  1      -15.6827246091    -0.1574026461   0.199870137   0.033718412
   3  2      -15.6848718902    -0.0021472811   0.217074374   0.026107225
   4  3      -15.6896940969    -0.0048222067   0.175445487   0.003455753
   5  4      -15.6897172504    -0.0000231535   0.079458632   0.003699601
   6  5      -15.6897751876    -0.0000579372   0.001324109   0.000254153
   7  6      -15.6897755405    -0.0000003529   0.000476947   0.000056426
   8  7      -15.6897755606    -0.0000000201   0.000104604   0.000005291
   9  8      -15.6897755607    -0.0000000001   0.000030635   0.000002170
  10  9      -15.6897755607    -0.0000000000   0.000000383   0.000000076
  11 10      -15.6897755607    -0.0000000000   0.000000000   0.000000000

          -----------------
          DENSITY CONVERGED
          -----------------
     TIME TO FORM FOCK OPERATORS=       0.3 SECONDS (       0.0 SEC/ITER)
     TIME TO SOLVE SCF EQUATIONS=       0.0 SECONDS (       0.0 SEC/ITER)

 FINAL ROHF ENERGY IS      -15.6897755607 AFTER  11 ITERATIONS

          --------------------
          SPIN SZ   =    1.000
          S-SQUARED =    2.000
          --------------------

 LZ VALUE ANALYSIS FOR THE MOS
 ----------------------------------------
 MO     1 (    1) HAS LZ(WEIGHT)= 0.00(100.0%) 
 MO     2 (    2) HAS LZ(WEIGHT)= 0.00(100.0%) 
 MO     3 (    3) HAS LZ(WEIGHT)= 0.00(100.0%) 
 MO     4 (    3) HAS LZ(WEIGHT)= 0.00(100.0%) 
 MO     5 (    4) HAS LZ(WEIGHT)= 0.00(100.0%) 
 MO     6 (    4) HAS LZ(WEIGHT)= 0.00(100.0%) 
 MO     7 (    5) HAS LZ(WEIGHT)= 0.00(100.0%) 
 MO     8 (    6) HAS LZ(WEIGHT)= 0.00(100.0%) 
 MO     9 (    7) HAS LZ(WEIGHT)= 0.00(100.0%) 
 MO    10 (    7) HAS LZ(WEIGHT)= 0.00(100.0%) 
 MO    11 (    8) HAS LZ(WEIGHT)= 0.00(100.0%) 
 MO    12 (    9) HAS LZ(WEIGHT)= 0.00(100.0%) 
 MO    13 (    9) HAS LZ(WEIGHT)= 0.00(100.0%) 
 MO    14 (   10) HAS LZ(WEIGHT)= 0.00(100.0%) 
 MO    15 (   10) HAS LZ(WEIGHT)= 0.00(100.0%) 
 MO    16 (   11) HAS LZ(WEIGHT)= 0.00(100.0%) 
 MO    17 (   12) HAS LZ(WEIGHT)= 0.00(100.0%) 
 MO    18 (   12) HAS LZ(WEIGHT)= 0.00(100.0%) 
 MO    19 (   13) HAS LZ(WEIGHT)= 0.00(100.0%) 
 MO    20 (   14) HAS LZ(WEIGHT)= 0.00(100.0%) 
 MO    21 (   15) HAS LZ(WEIGHT)= 0.00(100.0%) 
 MO    22 (   15) HAS LZ(WEIGHT)= 0.00(100.0%) 
 MO    23 (   16) HAS LZ(WEIGHT)= 0.00(100.0%) 
 MO    24 (   16) HAS LZ(WEIGHT)= 0.00(100.0%) 
 MO    25 (   17) HAS LZ(WEIGHT)= 0.00(100.0%) 
 MO    26 (   17) HAS LZ(WEIGHT)= 0.00(100.0%) 
 MO    27 (   18) HAS LZ(WEIGHT)= 0.00(100.0%) 
 MO    28 (   19) HAS LZ(WEIGHT)= 0.00(100.0%) 
 MO    29 (   19) HAS LZ(WEIGHT)= 0.00(100.0%) 
 MO    30 (   20) HAS LZ(WEIGHT)= 0.00(100.0%) 
 MO    31 (   20) HAS LZ(WEIGHT)= 0.00(100.0%) 
 MO    32 (   21) HAS LZ(WEIGHT)= 0.00(100.0%) 
 MO    33 (   22) HAS LZ(WEIGHT)= 0.00(100.0%) 
 MO    34 (   22) HAS LZ(WEIGHT)= 0.00(100.0%) 
 MO    35 (   23) HAS LZ(WEIGHT)= 0.00(100.0%) 
 MO    36 (   24) HAS LZ(WEIGHT)= 0.00(100.0%) 
 MO    37 (   24) HAS LZ(WEIGHT)= 0.00(100.0%) 
 MO    38 (   25) HAS LZ(WEIGHT)= 0.00(100.0%) 
 MO    39 (   25) HAS LZ(WEIGHT)= 0.00(100.0%) 
 MO    40 (   26) HAS LZ(WEIGHT)= 0.00(100.0%) 
 MO    41 (   26) HAS LZ(WEIGHT)= 0.00(100.0%) 
 MO    42 (   27) HAS LZ(WEIGHT)= 0.00(100.0%) 
 MO    43 (   27) HAS LZ(WEIGHT)= 0.00(100.0%) 
 MO    44 (   28) HAS LZ(WEIGHT)= 0.00(100.0%) 
 MO    45 (   29) HAS LZ(WEIGHT)= 0.00(100.0%) 
 MO    46 (   29) HAS LZ(WEIGHT)= 0.00(100.0%) 
 MO    47 (   30) HAS LZ(WEIGHT)= 0.00(100.0%) 
 MO    48 (   30) HAS LZ(WEIGHT)= 0.00(100.0%) 
 MO    49 (   31) HAS LZ(WEIGHT)= 0.00(100.0%) 
 MO    50 (   31) HAS LZ(WEIGHT)= 0.00(100.0%) 
 MO    51 (   32) HAS LZ(WEIGHT)= 0.00(100.0%) 
 MO    52 (   33) HAS LZ(WEIGHT)= 0.00(100.0%) 
 MO    53 (   33) HAS LZ(WEIGHT)= 0.00(100.0%) 
 MO    54 (   34) HAS LZ(WEIGHT)= 0.00(100.0%) 
 MO    55 (   34) HAS LZ(WEIGHT)= 0.00(100.0%) 
 MO    56 (   35) HAS LZ(WEIGHT)= 0.00(100.0%) 
 MO    57 (   36) HAS LZ(WEIGHT)= 0.00(100.0%) 
 MO    58 (   37) HAS LZ(WEIGHT)= 0.00(100.0%) 
 MO    59 (   37) HAS LZ(WEIGHT)= 0.00(100.0%) 
 MO    60 (   38) HAS LZ(WEIGHT)= 0.00(100.0%) 
 MO    61 (   39) HAS LZ(WEIGHT)= 0.00(100.0%) 
 MO    62 (   39) HAS LZ(WEIGHT)= 0.00(100.0%) 
 MO    63 (   40) HAS LZ(WEIGHT)= 0.00(100.0%) 
 MO    64 (   40) HAS LZ(WEIGHT)= 0.00(100.0%) 
 MO    65 (   41) HAS LZ(WEIGHT)= 0.00(100.0%) 
 MO    66 (   41) HAS LZ(WEIGHT)= 0.00(100.0%) 
 MO    67 (   42) HAS LZ(WEIGHT)= 0.00(100.0%) 
 MO    68 (   42) HAS LZ(WEIGHT)= 0.00(100.0%) 
 MO    69 (   43) HAS LZ(WEIGHT)= 0.00(100.0%) 
 MO    70 (   44) HAS LZ(WEIGHT)= 0.00(100.0%) 
 MO    71 (   44) HAS LZ(WEIGHT)= 0.00(100.0%) 
 MO    72 (   45) HAS LZ(WEIGHT)= 0.00(100.0%) 
 MO    73 (   45) HAS LZ(WEIGHT)= 0.00(100.0%) 
 MO    74 (   46) HAS LZ(WEIGHT)= 0.00(100.0%) 
 MO    75 (   46) HAS LZ(WEIGHT)= 0.00(100.0%) 
 MO    76 (   47) HAS LZ(WEIGHT)= 0.00(100.0%) 
 MO    77 (   48) HAS LZ(WEIGHT)= 0.00(100.0%) 
 MO    78 (   48) HAS LZ(WEIGHT)= 0.00(100.0%) 
 MO    79 (   49) HAS LZ(WEIGHT)= 0.00(100.0%) 
 MO    80 (   49) HAS LZ(WEIGHT)= 0.00(100.0%) 
 MO    81 (   50) HAS LZ(WEIGHT)= 0.00(100.0%) 
 MO    82 (   51) HAS LZ(WEIGHT)= 0.00(100.0%) 

          ------------
          EIGENVECTORS
          ------------

                      1          2          3          4          5
                   -0.9241    -0.4875    -0.2675    -0.2675     0.0828
                     A          A          A          A          A   
    1  O  1  S    1.000313   0.000000  -0.000000   0.000000  -0.000000
    2  O  1  S    0.000342   0.000000  -0.000000   0.000000  -0.000000
    3  O  1  S   -0.000526   0.000000  -0.000000   0.000000  -0.000000
    4  O  1  S   -0.000276   0.000000  -0.000000   0.000000  -0.000000
    5  O  1  S    0.000209   0.000000  -0.000000   0.000000  -0.000000
    6  O  1  X    0.000000   0.999960  -0.000000   0.000000  -0.000000
    7  O  1  Y    0.000000   0.000000  -0.000000   1.037118  -0.000000
    8  O  1  Z    0.000000   0.000000   1.037118   0.000000  -0.147434
    9  O  1  X    0.000000   0.000184  -0.000000   0.000000  -0.000000
   10  O  1  Y    0.000000   0.000000  -0.000000   0.012179  -0.000000
   11  O  1  Z    0.000000   0.000000   0.012179   0.000000   0.030444
   12  O  1  X    0.000000  -0.000092  -0.000000   0.000000  -0.000000
   13  O  1  Y    0.000000   0.000000  -0.000000  -0.012563  -0.000000
   14  O  1  Z    0.000000   0.000000  -0.012563   0.000000  -0.082462
   15  O  1  X    0.000000   0.000710  -0.000000   0.000000  -0.000000
   16  O  1  Y    0.000000   0.000000  -0.000000  -0.053397  -0.000000
   17  O  1  Z    0.000000   0.000000  -0.053397   0.000000   0.483947
   18  O  1  X    0.000000  -0.008226  -0.000000   0.000000  -0.000000
   19  O  1  Y    0.000000   0.000000  -0.000000  -0.011967  -0.000000
   20  O  1  Z    0.000000   0.000000  -0.011967   0.000000  -7.384357
   21  O  1  X    0.000000   0.007516  -0.000000   0.000000  -0.000000
   22  O  1  Y    0.000000   0.000000  -0.000000   0.001033  -0.000000
   23  O  1  Z    0.000000   0.000000   0.001033   0.000000   7.888056
   24  O  1 XX    0.000816   0.000000  -0.000000   0.000000  -0.000000
   25  O  1 YY   -0.000408   0.000000  -0.000000   0.000000  -0.000000
   26  O  1 ZZ   -0.000408   0.000000  -0.000000   0.000000  -0.000000
   27  O  1 XY    0.000000   0.000000  -0.000000   0.000000  -0.000000
   28  O  1 XZ    0.000000   0.000000  -0.000000   0.000000  -0.000000
   29  O  1 YZ    0.000000   0.000000  -0.000000   0.000000  -0.000000
   30  O  1 XX    0.000076   0.000000  -0.000000   0.000000  -0.000000
   31  O  1 YY   -0.000038   0.000000  -0.000000   0.000000  -0.000000
   32  O  1 ZZ   -0.000038   0.000000  -0.000000   0.000000  -0.000000
   33  O  1 XY    0.000000   0.000000  -0.000000   0.000000  -0.000000
   34  O  1 XZ    0.000000   0.000000  -0.000000   0.000000  -0.000000
   35  O  1 YZ    0.000000   0.000000  -0.000000   0.000000  -0.000000
   36  O  1 XX    0.002574   0.000000  -0.000000   0.000000  -0.000000
   37  O  1 YY   -0.001287   0.000000  -0.000000   0.000000  -0.000000
   38  O  1 ZZ   -0.001287   0.000000  -0.000000   0.000000  -0.000000
   39  O  1 XY    0.000000   0.000000  -0.000000   0.000000  -0.000000
   40  O  1 XZ    0.000000   0.000000  -0.000000   0.000000  -0.000000
   41  O  1 YZ    0.000000   0.000000  -0.000000   0.000000  -0.000000
   42  O  1 XX    0.002400   0.000000  -0.000000   0.000000  -0.000000
   43  O  1 YY   -0.001200   0.000000  -0.000000   0.000000  -0.000000
   44  O  1 ZZ   -0.001200   0.000000  -0.000000   0.000000  -0.000000
   45  O  1 XY    0.000000   0.000000  -0.000000   0.000000  -0.000000
   46  O  1 XZ    0.000000   0.000000  -0.000000   0.000000  -0.000000
   47  O  1 YZ    0.000000   0.000000  -0.000000   0.000000  -0.000000
   48  O  1 XXX   0.000000  -0.001533  -0.000000   0.000000  -0.000000
   49  O  1 YYY   0.000000   0.000000  -0.000000   0.001747  -0.000000
   50  O  1 ZZZ   0.000000   0.000000   0.001747   0.000000  -0.000261
   51  O  1 XXY   0.000000   0.000000  -0.000000  -0.003125  -0.000000
   52  O  1 XXZ   0.000000   0.000000  -0.003125   0.000000   0.000466
   53  O  1 YYX   0.000000   0.001028  -0.000000   0.000000  -0.000000
   54  O  1 YYZ   0.000000   0.000000   0.000781   0.000000  -0.000117
   55  O  1 ZZX   0.000000   0.001028  -0.000000   0.000000  -0.000000
   56  O  1 ZZY   0.000000   0.000000  -0.000000   0.000781  -0.000000
   57  O  1 XYZ   0.000000   0.000000  -0.000000   0.000000  -0.000000
   58  O  1 XXX   0.000000  -0.003239  -0.000000   0.000000  -0.000000
   59  O  1 YYY   0.000000   0.000000  -0.000000   0.003486  -0.000000
   60  O  1 ZZZ   0.000000   0.000000   0.003486   0.000000  -0.000732
   61  O  1 XXY   0.000000   0.000000  -0.000000  -0.006236  -0.000000
   62  O  1 XXZ   0.000000   0.000000  -0.006236   0.000000   0.001309
   63  O  1 YYX   0.000000   0.002173  -0.000000   0.000000  -0.000000
   64  O  1 YYZ   0.000000   0.000000   0.001559   0.000000  -0.000327
   65  O  1 ZZX   0.000000   0.002173  -0.000000   0.000000  -0.000000
   66  O  1 ZZY   0.000000   0.000000  -0.000000   0.001559  -0.000000
   67  O  1 XYZ   0.000000   0.000000  -0.000000   0.000000  -0.000000
   68  O  1 XXX   0.000000  -0.002254  -0.000000   0.000000  -0.000000
   69  O  1 YYY   0.000000   0.000000  -0.000000   0.001811  -0.000000
   70  O  1 ZZZ   0.000000   0.000000   0.001811   0.000000   0.001097
   71  O  1 XXY   0.000000   0.000000  -0.000000  -0.003240  -0.000000
   72  O  1 XXZ   0.000000   0.000000  -0.003240   0.000000  -0.001963
   73  O  1 YYX   0.000000   0.001512  -0.000000   0.000000  -0.000000
   74  O  1 YYZ   0.000000   0.000000   0.000810   0.000000   0.000491
   75  O  1 ZZX   0.000000   0.001512  -0.000000   0.000000  -0.000000
   76  O  1 ZZY   0.000000   0.000000  -0.000000   0.000810  -0.000000
   77  O  1 XYZ   0.000000   0.000000  -0.000000   0.000000  -0.000000
   78  O  1XXXX   0.000001   0.000000  -0.000000   0.000000  -0.000000
   79  O  1YYYY   0.000000   0.000000  -0.000000   0.000000  -0.000000
   80  O  1ZZZZ   0.000000   0.000000  -0.000000   0.000000  -0.000000
   81  O  1XXXY   0.000000   0.000000  -0.000000   0.000000  -0.000000
   82  O  1XXXZ   0.000000   0.000000  -0.000000   0.000000  -0.000000
   83  O  1YYYX   0.000000   0.000000  -0.000000   0.000000  -0.000000
   84  O  1YYYZ   0.000000   0.000000  -0.000000   0.000000  -0.000000
   85  O  1ZZZX   0.000000   0.000000  -0.000000   0.000000  -0.000000
   86  O  1ZZZY   0.000000   0.000000  -0.000000   0.000000  -0.000000
   87  O  1XXYY  -0.000001   0.000000  -0.000000   0.000000  -0.000000
   88  O  1XXZZ  -0.000001   0.000000  -0.000000   0.000000  -0.000000
   89  O  1YYZZ   0.000000   0.000000  -0.000000   0.000000  -0.000000
   90  O  1XXYZ   0.000000   0.000000  -0.000000   0.000000  -0.000000
   91  O  1YYXZ   0.000000   0.000000  -0.000000   0.000000  -0.000000
   92  O  1ZZXY   0.000000   0.000000  -0.000000   0.000000  -0.000000
   93  O  1XXXX  -0.000022   0.000000  -0.000000   0.000000  -0.000000
   94  O  1YYYY  -0.000008   0.000000  -0.000000   0.000000  -0.000000
   95  O  1ZZZZ  -0.000008   0.000000  -0.000000   0.000000  -0.000000
   96  O  1XXXY   0.000000   0.000000  -0.000000   0.000000  -0.000000
   97  O  1XXXZ   0.000000   0.000000  -0.000000   0.000000  -0.000000
   98  O  1YYYX   0.000000   0.000000  -0.000000   0.000000  -0.000000
   99  O  1YYYZ   0.000000   0.000000  -0.000000   0.000000  -0.000000
  100  O  1ZZZX   0.000000   0.000000  -0.000000   0.000000  -0.000000
  101  O  1ZZZY   0.000000   0.000000  -0.000000   0.000000  -0.000000
  102  O  1XXYY   0.000020   0.000000  -0.000000   0.000000  -0.000000
  103  O  1XXZZ   0.000020   0.000000  -0.000000   0.000000  -0.000000
  104  O  1YYZZ  -0.000005   0.000000  -0.000000   0.000000  -0.000000
  105  O  1XXYZ   0.000000   0.000000  -0.000000   0.000000  -0.000000
  106  O  1YYXZ   0.000000   0.000000  -0.000000   0.000000  -0.000000
  107  O  1ZZXY   0.000000   0.000000  -0.000000   0.000000  -0.000000

                      6          7          8          9         10
                    0.0828     0.0882     0.1688     0.2797     0.2797
                     A          A          A          A          A   
    1  O  1  S    0.000000   0.000000  -0.351499   0.000000   0.000000
    2  O  1  S    0.000000   0.000000  -0.188104   0.000000   0.000000
    3  O  1  S    0.000000   0.000000   0.349019   0.000000   0.000000
    4  O  1  S    0.000000   0.000000  -1.121009   0.000000   0.000000
    5  O  1  S    0.000000   0.000000   1.825700   0.000000   0.000000
    6  O  1  X    0.000000  -0.143957   0.000000   0.000000   0.000000
    7  O  1  Y   -0.147434   0.000000   0.000000   0.000000  -0.272124
    8  O  1  Z    0.000000   0.000000   0.000000  -0.272124   0.000000
    9  O  1  X    0.000000   0.033785   0.000000   0.000000   0.000000
   10  O  1  Y    0.030444   0.000000   0.000000   0.000000  -0.079728
   11  O  1  Z    0.000000   0.000000   0.000000  -0.079728   0.000000
   12  O  1  X    0.000000  -0.092602   0.000000   0.000000   0.000000
   13  O  1  Y   -0.082462   0.000000   0.000000   0.000000   0.202592
   14  O  1  Z    0.000000   0.000000   0.000000   0.202592   0.000000
   15  O  1  X    0.000000   0.487987   0.000000   0.000000   0.000000
   16  O  1  Y    0.483947   0.000000   0.000000   0.000000  -1.170232
   17  O  1  Z    0.000000   0.000000   0.000000  -1.170232   0.000000
   18  O  1  X    0.000000  -7.784653   0.000000   0.000000   0.000000
   19  O  1  Y   -7.384357   0.000000   0.000000   0.000000  13.807226
   20  O  1  Z    0.000000   0.000000   0.000000  13.807226   0.000000
   21  O  1  X    0.000000   8.256170   0.000000   0.000000   0.000000
   22  O  1  Y    7.888056   0.000000   0.000000   0.000000 -12.364282
   23  O  1  Z    0.000000   0.000000   0.000000 -12.364282   0.000000
   24  O  1 XX    0.000000   0.000000   0.001669   0.000000   0.000000
   25  O  1 YY    0.000000   0.000000  -0.000834   0.000000   0.000000
   26  O  1 ZZ    0.000000   0.000000  -0.000834   0.000000   0.000000
   27  O  1 XY    0.000000   0.000000   0.000000   0.000000   0.000000
   28  O  1 XZ    0.000000   0.000000   0.000000   0.000000   0.000000
   29  O  1 YZ    0.000000   0.000000   0.000000   0.000000   0.000000
   30  O  1 XX    0.000000   0.000000   0.004386   0.000000   0.000000
   31  O  1 YY    0.000000   0.000000  -0.002193   0.000000   0.000000
   32  O  1 ZZ    0.000000   0.000000  -0.002193   0.000000   0.000000
   33  O  1 XY    0.000000   0.000000   0.000000   0.000000   0.000000
   34  O  1 XZ    0.000000   0.000000   0.000000   0.000000   0.000000
   35  O  1 YZ    0.000000   0.000000   0.000000   0.000000   0.000000
   36  O  1 XX    0.000000   0.000000   0.007360   0.000000   0.000000
   37  O  1 YY    0.000000   0.000000  -0.003680   0.000000   0.000000
   38  O  1 ZZ    0.000000   0.000000  -0.003680   0.000000   0.000000
   39  O  1 XY    0.000000   0.000000   0.000000   0.000000   0.000000
   40  O  1 XZ    0.000000   0.000000   0.000000   0.000000   0.000000
   41  O  1 YZ    0.000000   0.000000   0.000000   0.000000   0.000000
   42  O  1 XX    0.000000   0.000000  -0.028986   0.000000   0.000000
   43  O  1 YY    0.000000   0.000000   0.014493   0.000000   0.000000
   44  O  1 ZZ    0.000000   0.000000   0.014493   0.000000   0.000000
   45  O  1 XY    0.000000   0.000000   0.000000   0.000000   0.000000
   46  O  1 XZ    0.000000   0.000000   0.000000   0.000000   0.000000
   47  O  1 YZ    0.000000   0.000000   0.000000   0.000000   0.000000
   48  O  1 XXX   0.000000   0.000521   0.000000   0.000000   0.000000
   49  O  1 YYY  -0.000261   0.000000   0.000000   0.000000  -0.000613
   50  O  1 ZZZ   0.000000   0.000000   0.000000  -0.000613   0.000000
   51  O  1 XXY   0.000466   0.000000   0.000000   0.000000   0.001096
   52  O  1 XXZ   0.000000   0.000000   0.000000   0.001096   0.000000
   53  O  1 YYX   0.000000  -0.000350   0.000000   0.000000   0.000000
   54  O  1 YYZ   0.000000   0.000000   0.000000  -0.000274   0.000000
   55  O  1 ZZX   0.000000  -0.000350   0.000000   0.000000   0.000000
   56  O  1 ZZY  -0.000117   0.000000   0.000000   0.000000  -0.000274
   57  O  1 XYZ   0.000000   0.000000   0.000000   0.000000   0.000000
   58  O  1 XXX   0.000000   0.001522   0.000000   0.000000   0.000000
   59  O  1 YYY  -0.000732   0.000000   0.000000   0.000000  -0.001566
   60  O  1 ZZZ   0.000000   0.000000   0.000000  -0.001566   0.000000
   61  O  1 XXY   0.001309   0.000000   0.000000   0.000000   0.002802
   62  O  1 XXZ   0.000000   0.000000   0.000000   0.002802   0.000000
   63  O  1 YYX   0.000000  -0.001021   0.000000   0.000000   0.000000
   64  O  1 YYZ   0.000000   0.000000   0.000000  -0.000700   0.000000
   65  O  1 ZZX   0.000000  -0.001021   0.000000   0.000000   0.000000
   66  O  1 ZZY  -0.000327   0.000000   0.000000   0.000000  -0.000700
   67  O  1 XYZ   0.000000   0.000000   0.000000   0.000000   0.000000
   68  O  1 XXX   0.000000  -0.001526   0.000000   0.000000   0.000000
   69  O  1 YYY   0.001097   0.000000   0.000000   0.000000   0.003155
   70  O  1 ZZZ   0.000000   0.000000   0.000000   0.003155   0.000000
   71  O  1 XXY  -0.001963   0.000000   0.000000   0.000000  -0.005644
   72  O  1 XXZ   0.000000   0.000000   0.000000  -0.005644   0.000000
   73  O  1 YYX   0.000000   0.001024   0.000000   0.000000   0.000000
   74  O  1 YYZ   0.000000   0.000000   0.000000   0.001411   0.000000
   75  O  1 ZZX   0.000000   0.001024   0.000000   0.000000   0.000000
   76  O  1 ZZY   0.000491   0.000000   0.000000   0.000000   0.001411
   77  O  1 XYZ   0.000000   0.000000   0.000000   0.000000   0.000000
   78  O  1XXXX   0.000000   0.000000  -0.000085   0.000000   0.000000
   79  O  1YYYY   0.000000   0.000000  -0.000032   0.000000   0.000000
   80  O  1ZZZZ   0.000000   0.000000  -0.000032   0.000000   0.000000
   81  O  1XXXY   0.000000   0.000000   0.000000   0.000000   0.000000
   82  O  1XXXZ   0.000000   0.000000   0.000000   0.000000   0.000000
   83  O  1YYYX   0.000000   0.000000   0.000000   0.000000   0.000000
   84  O  1YYYZ   0.000000   0.000000   0.000000   0.000000   0.000000
   85  O  1ZZZX   0.000000   0.000000   0.000000   0.000000   0.000000
   86  O  1ZZZY   0.000000   0.000000   0.000000   0.000000   0.000000
   87  O  1XXYY   0.000000   0.000000   0.000075   0.000000   0.000000
   88  O  1XXZZ   0.000000   0.000000   0.000075   0.000000   0.000000
   89  O  1YYZZ   0.000000   0.000000  -0.000019   0.000000   0.000000
   90  O  1XXYZ   0.000000   0.000000   0.000000   0.000000   0.000000
   91  O  1YYXZ   0.000000   0.000000   0.000000   0.000000   0.000000
   92  O  1ZZXY   0.000000   0.000000   0.000000   0.000000   0.000000
   93  O  1XXXX   0.000000   0.000000   0.000121   0.000000   0.000000
   94  O  1YYYY   0.000000   0.000000   0.000045   0.000000   0.000000
   95  O  1ZZZZ   0.000000   0.000000   0.000045   0.000000   0.000000
   96  O  1XXXY   0.000000   0.000000   0.000000   0.000000   0.000000
   97  O  1XXXZ   0.000000   0.000000   0.000000   0.000000   0.000000
   98  O  1YYYX   0.000000   0.000000   0.000000   0.000000   0.000000
   99  O  1YYYZ   0.000000   0.000000   0.000000   0.000000   0.000000
  100  O  1ZZZX   0.000000   0.000000   0.000000   0.000000   0.000000
  101  O  1ZZZY   0.000000   0.000000   0.000000   0.000000   0.000000
  102  O  1XXYY   0.000000   0.000000  -0.000106   0.000000   0.000000
  103  O  1XXZZ   0.000000   0.000000  -0.000106   0.000000   0.000000
  104  O  1YYZZ   0.000000   0.000000   0.000026   0.000000   0.000000
  105  O  1XXYZ   0.000000   0.000000   0.000000   0.000000   0.000000
  106  O  1YYXZ   0.000000   0.000000   0.000000   0.000000   0.000000
  107  O  1ZZXY   0.000000   0.000000   0.000000   0.000000   0.000000

                     11         12         13         14         15
                    0.2994     0.5128     0.5128     0.5312     0.5312
                     A          A          A          A          A   
    1  O  1  S    0.000000   0.000000   0.000000  -0.000000   0.000000
    2  O  1  S    0.000000   0.000000   0.000000  -0.000000   0.000000
    3  O  1  S    0.000000   0.000000   0.000000  -0.000000   0.000000
    4  O  1  S    0.000000   0.000000   0.000000  -0.000000   0.000000
    5  O  1  S    0.000000   0.000000   0.000000  -0.000000   0.000000
    6  O  1  X   -0.262406   0.000000   0.000000  -0.000000   0.000000
    7  O  1  Y    0.000000   0.000000   0.000000  -0.000000   0.000000
    8  O  1  Z    0.000000   0.000000   0.000000  -0.000000   0.000000
    9  O  1  X   -0.080709   0.000000   0.000000  -0.000000   0.000000
   10  O  1  Y    0.000000   0.000000   0.000000  -0.000000   0.000000
   11  O  1  Z    0.000000   0.000000   0.000000  -0.000000   0.000000
   12  O  1  X    0.202543   0.000000   0.000000  -0.000000   0.000000
   13  O  1  Y    0.000000   0.000000   0.000000  -0.000000   0.000000
   14  O  1  Z    0.000000   0.000000   0.000000  -0.000000   0.000000
   15  O  1  X   -1.320834   0.000000   0.000000  -0.000000   0.000000
   16  O  1  Y    0.000000   0.000000   0.000000  -0.000000   0.000000
   17  O  1  Z    0.000000   0.000000   0.000000  -0.000000   0.000000
   18  O  1  X   14.106072   0.000000   0.000000  -0.000000   0.000000
   19  O  1  Y    0.000000   0.000000   0.000000  -0.000000   0.000000
   20  O  1  Z    0.000000   0.000000   0.000000  -0.000000   0.000000
   21  O  1  X  -12.537931   0.000000   0.000000  -0.000000   0.000000
   22  O  1  Y    0.000000   0.000000   0.000000  -0.000000   0.000000
   23  O  1  Z    0.000000   0.000000   0.000000  -0.000000   0.000000
   24  O  1 XX    0.000000   0.000000   0.000000  -0.000000   0.000000
   25  O  1 YY    0.000000   0.000000   0.005679  -0.000000   0.000000
   26  O  1 ZZ    0.000000   0.000000  -0.005679  -0.000000   0.000000
   27  O  1 XY    0.000000   0.000000   0.000000  -0.000000  -0.007749
   28  O  1 XZ    0.000000   0.000000   0.000000  -0.007749   0.000000
   29  O  1 YZ    0.000000  -0.006558   0.000000  -0.000000   0.000000
   30  O  1 XX    0.000000   0.000000   0.000000  -0.000000   0.000000
   31  O  1 YY    0.000000   0.000000  -0.077175  -0.000000   0.000000
   32  O  1 ZZ    0.000000   0.000000   0.077175  -0.000000   0.000000
   33  O  1 XY    0.000000   0.000000   0.000000  -0.000000   0.087545
   34  O  1 XZ    0.000000   0.000000   0.000000   0.087545   0.000000
   35  O  1 YZ    0.000000   0.089114   0.000000  -0.000000   0.000000
   36  O  1 XX    0.000000   0.000000   0.000000  -0.000000   0.000000
   37  O  1 YY    0.000000   0.000000   0.189138  -0.000000   0.000000
   38  O  1 ZZ    0.000000   0.000000  -0.189138  -0.000000   0.000000
   39  O  1 XY    0.000000   0.000000   0.000000  -0.000000  -0.243383
   40  O  1 XZ    0.000000   0.000000   0.000000  -0.243383   0.000000
   41  O  1 YZ    0.000000  -0.218397   0.000000  -0.000000   0.000000
   42  O  1 XX    0.000000   0.000000   0.000000  -0.000000   0.000000
   43  O  1 YY    0.000000   0.000000  -0.975967  -0.000000   0.000000
   44  O  1 ZZ    0.000000   0.000000   0.975967  -0.000000   0.000000
   45  O  1 XY    0.000000   0.000000   0.000000  -0.000000   1.142871
   46  O  1 XZ    0.000000   0.000000   0.000000   1.142871   0.000000
   47  O  1 YZ    0.000000   1.126949   0.000000  -0.000000   0.000000
   48  O  1 XXX   0.001226   0.000000   0.000000  -0.000000   0.000000
   49  O  1 YYY   0.000000   0.000000   0.000000  -0.000000   0.000000
   50  O  1 ZZZ   0.000000   0.000000   0.000000  -0.000000   0.000000
   51  O  1 XXY   0.000000   0.000000   0.000000  -0.000000   0.000000
   52  O  1 XXZ   0.000000   0.000000   0.000000  -0.000000   0.000000
   53  O  1 YYX  -0.000823   0.000000   0.000000  -0.000000   0.000000
   54  O  1 YYZ   0.000000   0.000000   0.000000  -0.000000   0.000000
   55  O  1 ZZX  -0.000823   0.000000   0.000000  -0.000000   0.000000
   56  O  1 ZZY   0.000000   0.000000   0.000000  -0.000000   0.000000
   57  O  1 XYZ   0.000000   0.000000   0.000000  -0.000000   0.000000
   58  O  1 XXX   0.003388   0.000000   0.000000  -0.000000   0.000000
   59  O  1 YYY   0.000000   0.000000   0.000000  -0.000000   0.000000
   60  O  1 ZZZ   0.000000   0.000000   0.000000  -0.000000   0.000000
   61  O  1 XXY   0.000000   0.000000   0.000000  -0.000000   0.000000
   62  O  1 XXZ   0.000000   0.000000   0.000000  -0.000000   0.000000
   63  O  1 YYX  -0.002272   0.000000   0.000000  -0.000000   0.000000
   64  O  1 YYZ   0.000000   0.000000   0.000000  -0.000000   0.000000
   65  O  1 ZZX  -0.002272   0.000000   0.000000  -0.000000   0.000000
   66  O  1 ZZY   0.000000   0.000000   0.000000  -0.000000   0.000000
   67  O  1 XYZ   0.000000   0.000000   0.000000  -0.000000   0.000000
   68  O  1 XXX  -0.005093   0.000000   0.000000  -0.000000   0.000000
   69  O  1 YYY   0.000000   0.000000   0.000000  -0.000000   0.000000
   70  O  1 ZZZ   0.000000   0.000000   0.000000  -0.000000   0.000000
   71  O  1 XXY   0.000000   0.000000   0.000000  -0.000000   0.000000
   72  O  1 XXZ   0.000000   0.000000   0.000000  -0.000000   0.000000
   73  O  1 YYX   0.003417   0.000000   0.000000  -0.000000   0.000000
   74  O  1 YYZ   0.000000   0.000000   0.000000  -0.000000   0.000000
   75  O  1 ZZX   0.003417   0.000000   0.000000  -0.000000   0.000000
   76  O  1 ZZY   0.000000   0.000000   0.000000  -0.000000   0.000000
   77  O  1 XYZ   0.000000   0.000000   0.000000  -0.000000   0.000000
   78  O  1XXXX   0.000000   0.000000   0.000000  -0.000000   0.000000
   79  O  1YYYY   0.000000   0.000000   0.000046  -0.000000   0.000000
   80  O  1ZZZZ   0.000000   0.000000  -0.000046  -0.000000   0.000000
   81  O  1XXXY   0.000000   0.000000   0.000000  -0.000000   0.000225
   82  O  1XXXZ   0.000000   0.000000   0.000000   0.000225   0.000000
   83  O  1YYYX   0.000000   0.000000   0.000000  -0.000000  -0.000169
   84  O  1YYYZ   0.000000  -0.000035   0.000000  -0.000000   0.000000
   85  O  1ZZZX   0.000000   0.000000   0.000000  -0.000169   0.000000
   86  O  1ZZZY   0.000000  -0.000035   0.000000  -0.000000   0.000000
   87  O  1XXYY   0.000000   0.000000  -0.000081  -0.000000   0.000000
   88  O  1XXZZ   0.000000   0.000000   0.000081  -0.000000   0.000000
   89  O  1YYZZ   0.000000   0.000000   0.000000  -0.000000   0.000000
   90  O  1XXYZ   0.000000   0.000093   0.000000  -0.000000   0.000000
   91  O  1YYXZ   0.000000   0.000000   0.000000  -0.000076   0.000000
   92  O  1ZZXY   0.000000   0.000000   0.000000  -0.000000  -0.000076
   93  O  1XXXX   0.000000   0.000000   0.000000  -0.000000   0.000000
   94  O  1YYYY   0.000000   0.000000  -0.002048  -0.000000   0.000000
   95  O  1ZZZZ   0.000000   0.000000   0.002048  -0.000000   0.000000
   96  O  1XXXY   0.000000   0.000000   0.000000  -0.000000  -0.005889
   97  O  1XXXZ   0.000000   0.000000   0.000000  -0.005889   0.000000
   98  O  1YYYX   0.000000   0.000000   0.000000  -0.000000   0.004417
   99  O  1YYYZ   0.000000   0.001548   0.000000  -0.000000   0.000000
  100  O  1ZZZX   0.000000   0.000000   0.000000   0.004417   0.000000
  101  O  1ZZZY   0.000000   0.001548   0.000000  -0.000000   0.000000
  102  O  1XXYY   0.000000   0.000000   0.003597  -0.000000   0.000000
  103  O  1XXZZ   0.000000   0.000000  -0.003597  -0.000000   0.000000
  104  O  1YYZZ   0.000000   0.000000   0.000000  -0.000000   0.000000
  105  O  1XXYZ   0.000000  -0.004154   0.000000  -0.000000   0.000000
  106  O  1YYXZ   0.000000   0.000000   0.000000   0.001975   0.000000
  107  O  1ZZXY   0.000000   0.000000   0.000000  -0.000000   0.001975

                     16         17         18         19         20
                    0.5364     0.7597     0.7597     0.8131     1.0959
                     A          A          A          A          A   
    1  O  1  S   -0.002863   0.000000   0.000000  -0.000000  -0.570592
    2  O  1  S   -0.018312   0.000000   0.000000  -0.000000   1.049556
    3  O  1  S    0.043304   0.000000   0.000000  -0.000000  -2.516639
    4  O  1  S   -0.077557   0.000000   0.000000  -0.000000   3.445503
    5  O  1  S    0.066338   0.000000   0.000000  -0.000000  -1.592694
    6  O  1  X    0.000000   0.000000   0.000000   0.716442   0.000000
    7  O  1  Y    0.000000   0.000000   0.706586  -0.000000   0.000000
    8  O  1  Z    0.000000   0.706586   0.000000  -0.000000   0.000000
    9  O  1  X    0.000000   0.000000   0.000000  -0.223414   0.000000
   10  O  1  Y    0.000000   0.000000  -0.197919  -0.000000   0.000000
   11  O  1  Z    0.000000  -0.197919   0.000000  -0.000000   0.000000
   12  O  1  X    0.000000   0.000000   0.000000   0.763712   0.000000
   13  O  1  Y    0.000000   0.000000   0.671373  -0.000000   0.000000
   14  O  1  Z    0.000000   0.671373   0.000000  -0.000000   0.000000
   15  O  1  X    0.000000   0.000000   0.000000  -3.665512   0.000000
   16  O  1  Y    0.000000   0.000000  -3.649032  -0.000000   0.000000
   17  O  1  Z    0.000000  -3.649032   0.000000  -0.000000   0.000000
   18  O  1  X    0.000000   0.000000   0.000000  12.493130   0.000000
   19  O  1  Y    0.000000   0.000000  12.906883  -0.000000   0.000000
   20  O  1  Z    0.000000  12.906883   0.000000  -0.000000   0.000000
   21  O  1  X    0.000000   0.000000   0.000000 -10.297919   0.000000
   22  O  1  Y    0.000000   0.000000 -10.664771  -0.000000   0.000000
   23  O  1  Z    0.000000 -10.664771   0.000000  -0.000000   0.000000
   24  O  1 XX   -0.008030   0.000000   0.000000  -0.000000   0.002181
   25  O  1 YY    0.004015   0.000000   0.000000  -0.000000  -0.001091
   26  O  1 ZZ    0.004015   0.000000   0.000000  -0.000000  -0.001091
   27  O  1 XY    0.000000   0.000000   0.000000  -0.000000   0.000000
   28  O  1 XZ    0.000000   0.000000   0.000000  -0.000000   0.000000
   29  O  1 YZ    0.000000   0.000000   0.000000  -0.000000   0.000000
   30  O  1 XX    0.087224   0.000000   0.000000  -0.000000   0.020752
   31  O  1 YY   -0.043612   0.000000   0.000000  -0.000000  -0.010376
   32  O  1 ZZ   -0.043612   0.000000   0.000000  -0.000000  -0.010376
   33  O  1 XY    0.000000   0.000000   0.000000  -0.000000   0.000000
   34  O  1 XZ    0.000000   0.000000   0.000000  -0.000000   0.000000
   35  O  1 YZ    0.000000   0.000000   0.000000  -0.000000   0.000000
   36  O  1 XX   -0.248937   0.000000   0.000000  -0.000000  -0.042763
   37  O  1 YY    0.124469   0.000000   0.000000  -0.000000   0.021381
   38  O  1 ZZ    0.124469   0.000000   0.000000  -0.000000   0.021381
   39  O  1 XY    0.000000   0.000000   0.000000  -0.000000   0.000000
   40  O  1 XZ    0.000000   0.000000   0.000000  -0.000000   0.000000
   41  O  1 YZ    0.000000   0.000000   0.000000  -0.000000   0.000000
   42  O  1 XX    1.145957   0.000000   0.000000  -0.000000   0.037398
   43  O  1 YY   -0.572978   0.000000   0.000000  -0.000000  -0.018699
   44  O  1 ZZ   -0.572978   0.000000   0.000000  -0.000000  -0.018699
   45  O  1 XY    0.000000   0.000000   0.000000  -0.000000   0.000000
   46  O  1 XZ    0.000000   0.000000   0.000000  -0.000000   0.000000
   47  O  1 YZ    0.000000   0.000000   0.000000  -0.000000   0.000000
   48  O  1 XXX   0.000000   0.000000   0.000000  -0.002042   0.000000
   49  O  1 YYY   0.000000   0.000000   0.001025  -0.000000   0.000000
   50  O  1 ZZZ   0.000000   0.001025   0.000000  -0.000000   0.000000
   51  O  1 XXY   0.000000   0.000000  -0.001833  -0.000000   0.000000
   52  O  1 XXZ   0.000000  -0.001833   0.000000  -0.000000   0.000000
   53  O  1 YYX   0.000000   0.000000   0.000000   0.001370   0.000000
   54  O  1 YYZ   0.000000   0.000458   0.000000  -0.000000   0.000000
   55  O  1 ZZX   0.000000   0.000000   0.000000   0.001370   0.000000
   56  O  1 ZZY   0.000000   0.000000   0.000458  -0.000000   0.000000
   57  O  1 XYZ   0.000000   0.000000   0.000000  -0.000000   0.000000
   58  O  1 XXX   0.000000   0.000000   0.000000  -0.006980   0.000000
   59  O  1 YYY   0.000000   0.000000   0.002967  -0.000000   0.000000
   60  O  1 ZZZ   0.000000   0.002967   0.000000  -0.000000   0.000000
   61  O  1 XXY   0.000000   0.000000  -0.005307  -0.000000   0.000000
   62  O  1 XXZ   0.000000  -0.005307   0.000000  -0.000000   0.000000
   63  O  1 YYX   0.000000   0.000000   0.000000   0.004683   0.000000
   64  O  1 YYZ   0.000000   0.001327   0.000000  -0.000000   0.000000
   65  O  1 ZZX   0.000000   0.000000   0.000000   0.004683   0.000000
   66  O  1 ZZY   0.000000   0.000000   0.001327  -0.000000   0.000000
   67  O  1 XYZ   0.000000   0.000000   0.000000  -0.000000   0.000000
   68  O  1 XXX   0.000000   0.000000   0.000000   0.022796   0.000000
   69  O  1 YYY   0.000000   0.000000  -0.011237  -0.000000   0.000000
   70  O  1 ZZZ   0.000000  -0.011237   0.000000  -0.000000   0.000000
   71  O  1 XXY   0.000000   0.000000   0.020102  -0.000000   0.000000
   72  O  1 XXZ   0.000000   0.020102   0.000000  -0.000000   0.000000
   73  O  1 YYX   0.000000   0.000000   0.000000  -0.015292   0.000000
   74  O  1 YYZ   0.000000  -0.005025   0.000000  -0.000000   0.000000
   75  O  1 ZZX   0.000000   0.000000   0.000000  -0.015292   0.000000
   76  O  1 ZZY   0.000000   0.000000  -0.005025  -0.000000   0.000000
   77  O  1 XYZ   0.000000   0.000000   0.000000  -0.000000   0.000000
   78  O  1XXXX   0.000224   0.000000   0.000000  -0.000000  -0.000135
   79  O  1YYYY   0.000084   0.000000   0.000000  -0.000000  -0.000051
   80  O  1ZZZZ   0.000084   0.000000   0.000000  -0.000000  -0.000051
   81  O  1XXXY   0.000000   0.000000   0.000000  -0.000000   0.000000
   82  O  1XXXZ   0.000000   0.000000   0.000000  -0.000000   0.000000
   83  O  1YYYX   0.000000   0.000000   0.000000  -0.000000   0.000000
   84  O  1YYYZ   0.000000   0.000000   0.000000  -0.000000   0.000000
   85  O  1ZZZX   0.000000   0.000000   0.000000  -0.000000   0.000000
   86  O  1ZZZY   0.000000   0.000000   0.000000  -0.000000   0.000000
   87  O  1XXYY  -0.000197   0.000000   0.000000  -0.000000   0.000119
   88  O  1XXZZ  -0.000197   0.000000   0.000000  -0.000000   0.000119
   89  O  1YYZZ   0.000049   0.000000   0.000000  -0.000000  -0.000030
   90  O  1XXYZ   0.000000   0.000000   0.000000  -0.000000   0.000000
   91  O  1YYXZ   0.000000   0.000000   0.000000  -0.000000   0.000000
   92  O  1ZZXY   0.000000   0.000000   0.000000  -0.000000   0.000000
   93  O  1XXXX  -0.005326   0.000000   0.000000  -0.000000   0.000284
   94  O  1YYYY  -0.001997   0.000000   0.000000  -0.000000   0.000107
   95  O  1ZZZZ  -0.001997   0.000000   0.000000  -0.000000   0.000107
   96  O  1XXXY   0.000000   0.000000   0.000000  -0.000000   0.000000
   97  O  1XXXZ   0.000000   0.000000   0.000000  -0.000000   0.000000
   98  O  1YYYX   0.000000   0.000000   0.000000  -0.000000   0.000000
   99  O  1YYYZ   0.000000   0.000000   0.000000  -0.000000   0.000000
  100  O  1ZZZX   0.000000   0.000000   0.000000  -0.000000   0.000000
  101  O  1ZZZY   0.000000   0.000000   0.000000  -0.000000   0.000000
  102  O  1XXYY   0.004677   0.000000   0.000000  -0.000000  -0.000249
  103  O  1XXZZ   0.004677   0.000000   0.000000  -0.000000  -0.000249
  104  O  1YYZZ  -0.001169   0.000000   0.000000  -0.000000   0.000062
  105  O  1XXYZ   0.000000   0.000000   0.000000  -0.000000   0.000000
  106  O  1YYXZ   0.000000   0.000000   0.000000  -0.000000   0.000000
  107  O  1ZZXY   0.000000   0.000000   0.000000  -0.000000   0.000000

                     21         22         23         24         25
                    1.3894     1.3894     1.4075     1.4075     1.4182
                     A          A          A          A          A   
    1  O  1  S    0.000000  -0.000000  -0.000000   0.000000   0.000000
    2  O  1  S    0.000000  -0.000000  -0.000000   0.000000   0.000000
    3  O  1  S    0.000000  -0.000000  -0.000000   0.000000   0.000000
    4  O  1  S    0.000000  -0.000000  -0.000000   0.000000   0.000000
    5  O  1  S    0.000000  -0.000000  -0.000000   0.000000   0.000000
    6  O  1  X    0.000000  -0.000000  -0.000000   0.000000   0.000000
    7  O  1  Y    0.000000  -0.000000  -0.000000   0.000000   0.001098
    8  O  1  Z    0.000000  -0.000000  -0.000000   0.000000   0.000000
    9  O  1  X    0.000000  -0.000000  -0.000000   0.000000   0.000000
   10  O  1  Y    0.000000  -0.000000  -0.000000   0.000000   0.014277
   11  O  1  Z    0.000000  -0.000000  -0.000000   0.000000   0.000000
   12  O  1  X    0.000000  -0.000000  -0.000000   0.000000   0.000000
   13  O  1  Y    0.000000  -0.000000  -0.000000   0.000000  -0.038778
   14  O  1  Z    0.000000  -0.000000  -0.000000   0.000000   0.000000
   15  O  1  X    0.000000  -0.000000  -0.000000   0.000000   0.000000
   16  O  1  Y    0.000000  -0.000000  -0.000000   0.000000   0.076317
   17  O  1  Z    0.000000  -0.000000  -0.000000   0.000000   0.000000
   18  O  1  X    0.000000  -0.000000  -0.000000   0.000000   0.000000
   19  O  1  Y    0.000000  -0.000000  -0.000000   0.000000  -0.224282
   20  O  1  Z    0.000000  -0.000000  -0.000000   0.000000   0.000000
   21  O  1  X    0.000000  -0.000000  -0.000000   0.000000   0.000000
   22  O  1  Y    0.000000  -0.000000  -0.000000   0.000000   0.182654
   23  O  1  Z    0.000000  -0.000000  -0.000000   0.000000   0.000000
   24  O  1 XX    0.000000  -0.000000  -0.000000   0.000000   0.000000
   25  O  1 YY    0.000000  -0.000000  -0.000000   0.000000   0.000000
   26  O  1 ZZ    0.000000  -0.000000  -0.000000   0.000000   0.000000
   27  O  1 XY    0.000000  -0.000000  -0.000000   0.000000   0.000000
   28  O  1 XZ    0.000000  -0.000000  -0.000000   0.000000   0.000000
   29  O  1 YZ    0.000000  -0.000000  -0.000000   0.000000   0.000000
   30  O  1 XX    0.000000  -0.000000  -0.000000   0.000000   0.000000
   31  O  1 YY    0.000000  -0.000000  -0.000000   0.000000   0.000000
   32  O  1 ZZ    0.000000  -0.000000  -0.000000   0.000000   0.000000
   33  O  1 XY    0.000000  -0.000000  -0.000000   0.000000   0.000000
   34  O  1 XZ    0.000000  -0.000000  -0.000000   0.000000   0.000000
   35  O  1 YZ    0.000000  -0.000000  -0.000000   0.000000   0.000000
   36  O  1 XX    0.000000  -0.000000  -0.000000   0.000000   0.000000
   37  O  1 YY    0.000000  -0.000000  -0.000000   0.000000   0.000000
   38  O  1 ZZ    0.000000  -0.000000  -0.000000   0.000000   0.000000
   39  O  1 XY    0.000000  -0.000000  -0.000000   0.000000   0.000000
   40  O  1 XZ    0.000000  -0.000000  -0.000000   0.000000   0.000000
   41  O  1 YZ    0.000000  -0.000000  -0.000000   0.000000   0.000000
   42  O  1 XX    0.000000  -0.000000  -0.000000   0.000000   0.000000
   43  O  1 YY    0.000000  -0.000000  -0.000000   0.000000   0.000000
   44  O  1 ZZ    0.000000  -0.000000  -0.000000   0.000000   0.000000
   45  O  1 XY    0.000000  -0.000000  -0.000000   0.000000   0.000000
   46  O  1 XZ    0.000000  -0.000000  -0.000000   0.000000   0.000000
   47  O  1 YZ    0.000000  -0.000000  -0.000000   0.000000   0.000000
   48  O  1 XXX   0.000000  -0.000000  -0.000000   0.000000   0.000000
   49  O  1 YYY   0.000000  -0.029568  -0.000000   0.000000  -0.023172
   50  O  1 ZZZ  -0.029568  -0.000000  -0.000000   0.000000   0.000000
   51  O  1 XXY   0.000000  -0.000000  -0.000000   0.000000   0.041451
   52  O  1 XXZ   0.000000  -0.000000  -0.000000   0.000000   0.000000
   53  O  1 YYX   0.000000  -0.000000  -0.000000  -0.032648   0.000000
   54  O  1 YYZ   0.039670  -0.000000  -0.000000   0.000000   0.000000
   55  O  1 ZZX   0.000000  -0.000000  -0.000000   0.032648   0.000000
   56  O  1 ZZY   0.000000   0.039670  -0.000000   0.000000  -0.010363
   57  O  1 XYZ   0.000000  -0.000000   0.037699   0.000000   0.000000
   58  O  1 XXX   0.000000  -0.000000  -0.000000   0.000000   0.000000
   59  O  1 YYY   0.000000   0.171715  -0.000000   0.000000   0.137704
   60  O  1 ZZZ   0.171715  -0.000000  -0.000000   0.000000   0.000000
   61  O  1 XXY   0.000000  -0.000000  -0.000000   0.000000  -0.246332
   62  O  1 XXZ   0.000000  -0.000000  -0.000000   0.000000   0.000000
   63  O  1 YYX   0.000000  -0.000000  -0.000000   0.192406   0.000000
   64  O  1 YYZ  -0.230380  -0.000000  -0.000000   0.000000   0.000000
   65  O  1 ZZX   0.000000  -0.000000  -0.000000  -0.192406   0.000000
   66  O  1 ZZY   0.000000  -0.230380  -0.000000   0.000000   0.061583
   67  O  1 XYZ   0.000000  -0.000000  -0.222171   0.000000   0.000000
   68  O  1 XXX   0.000000  -0.000000  -0.000000   0.000000   0.000000
   69  O  1 YYY   0.000000  -0.886480  -0.000000   0.000000  -0.688945
   70  O  1 ZZZ  -0.886480  -0.000000  -0.000000   0.000000   0.000000
   71  O  1 XXY   0.000000  -0.000000  -0.000000   0.000000   1.232423
   72  O  1 XXZ   0.000000  -0.000000  -0.000000   0.000000   0.000000
   73  O  1 YYX   0.000000  -0.000000  -0.000000  -0.973291   0.000000
   74  O  1 YYZ   1.189338  -0.000000  -0.000000   0.000000   0.000000
   75  O  1 ZZX   0.000000  -0.000000  -0.000000   0.973291   0.000000
   76  O  1 ZZY   0.000000   1.189338  -0.000000   0.000000  -0.308106
   77  O  1 XYZ   0.000000  -0.000000   1.123860   0.000000   0.000000
   78  O  1XXXX   0.000000  -0.000000  -0.000000   0.000000   0.000000
   79  O  1YYYY   0.000000  -0.000000  -0.000000   0.000000   0.000000
   80  O  1ZZZZ   0.000000  -0.000000  -0.000000   0.000000   0.000000
   81  O  1XXXY   0.000000  -0.000000  -0.000000   0.000000   0.000000
   82  O  1XXXZ   0.000000  -0.000000  -0.000000   0.000000   0.000000
   83  O  1YYYX   0.000000  -0.000000  -0.000000   0.000000   0.000000
   84  O  1YYYZ   0.000000  -0.000000  -0.000000   0.000000   0.000000
   85  O  1ZZZX   0.000000  -0.000000  -0.000000   0.000000   0.000000
   86  O  1ZZZY   0.000000  -0.000000  -0.000000   0.000000   0.000000
   87  O  1XXYY   0.000000  -0.000000  -0.000000   0.000000   0.000000
   88  O  1XXZZ   0.000000  -0.000000  -0.000000   0.000000   0.000000
   89  O  1YYZZ   0.000000  -0.000000  -0.000000   0.000000   0.000000
   90  O  1XXYZ   0.000000  -0.000000  -0.000000   0.000000   0.000000
   91  O  1YYXZ   0.000000  -0.000000  -0.000000   0.000000   0.000000
   92  O  1ZZXY   0.000000  -0.000000  -0.000000   0.000000   0.000000
   93  O  1XXXX   0.000000  -0.000000  -0.000000   0.000000   0.000000
   94  O  1YYYY   0.000000  -0.000000  -0.000000   0.000000   0.000000
   95  O  1ZZZZ   0.000000  -0.000000  -0.000000   0.000000   0.000000
   96  O  1XXXY   0.000000  -0.000000  -0.000000   0.000000   0.000000
   97  O  1XXXZ   0.000000  -0.000000  -0.000000   0.000000   0.000000
   98  O  1YYYX   0.000000  -0.000000  -0.000000   0.000000   0.000000
   99  O  1YYYZ   0.000000  -0.000000  -0.000000   0.000000   0.000000
  100  O  1ZZZX   0.000000  -0.000000  -0.000000   0.000000   0.000000
  101  O  1ZZZY   0.000000  -0.000000  -0.000000   0.000000   0.000000
  102  O  1XXYY   0.000000  -0.000000  -0.000000   0.000000   0.000000
  103  O  1XXZZ   0.000000  -0.000000  -0.000000   0.000000   0.000000
  104  O  1YYZZ   0.000000  -0.000000  -0.000000   0.000000   0.000000
  105  O  1XXYZ   0.000000  -0.000000  -0.000000   0.000000   0.000000
  106  O  1YYXZ   0.000000  -0.000000  -0.000000   0.000000   0.000000
  107  O  1ZZXY   0.000000  -0.000000  -0.000000   0.000000   0.000000

                     26         27         28         29         30
                    1.4182     1.4216     1.5209     1.5209     1.5821
                     A          A          A          A          A   
    1  O  1  S    0.000000   0.000000   0.000000   0.000000  -0.000000
    2  O  1  S    0.000000   0.000000   0.000000   0.000000  -0.000000
    3  O  1  S    0.000000   0.000000   0.000000   0.000000  -0.000000
    4  O  1  S    0.000000   0.000000   0.000000   0.000000  -0.000000
    5  O  1  S    0.000000   0.000000   0.000000   0.000000  -0.000000
    6  O  1  X    0.000000  -0.003373   0.000000   0.000000  -0.000000
    7  O  1  Y    0.000000   0.000000   0.000000   0.000000  -0.000000
    8  O  1  Z    0.001098   0.000000   0.000000   0.000000  -0.000000
    9  O  1  X    0.000000   0.016540   0.000000   0.000000  -0.000000
   10  O  1  Y    0.000000   0.000000   0.000000   0.000000  -0.000000
   11  O  1  Z    0.014277   0.000000   0.000000   0.000000  -0.000000
   12  O  1  X    0.000000  -0.044173   0.000000   0.000000  -0.000000
   13  O  1  Y    0.000000   0.000000   0.000000   0.000000  -0.000000
   14  O  1  Z   -0.038778   0.000000   0.000000   0.000000  -0.000000
   15  O  1  X    0.000000   0.089475   0.000000   0.000000  -0.000000
   16  O  1  Y    0.000000   0.000000   0.000000   0.000000  -0.000000
   17  O  1  Z    0.076317   0.000000   0.000000   0.000000  -0.000000
   18  O  1  X    0.000000  -0.263271   0.000000   0.000000  -0.000000
   19  O  1  Y    0.000000   0.000000   0.000000   0.000000  -0.000000
   20  O  1  Z   -0.224282   0.000000   0.000000   0.000000  -0.000000
   21  O  1  X    0.000000   0.214384   0.000000   0.000000  -0.000000
   22  O  1  Y    0.000000   0.000000   0.000000   0.000000  -0.000000
   23  O  1  Z    0.182654   0.000000   0.000000   0.000000  -0.000000
   24  O  1 XX    0.000000   0.000000   0.000000   0.000000  -0.000000
   25  O  1 YY    0.000000   0.000000   0.000000   0.048696  -0.000000
   26  O  1 ZZ    0.000000   0.000000   0.000000  -0.048696  -0.000000
   27  O  1 XY    0.000000   0.000000   0.000000   0.000000  -0.000000
   28  O  1 XZ    0.000000   0.000000   0.000000   0.000000   0.056243
   29  O  1 YZ    0.000000   0.000000   0.056229   0.000000  -0.000000
   30  O  1 XX    0.000000   0.000000   0.000000   0.000000  -0.000000
   31  O  1 YY    0.000000   0.000000   0.000000  -0.052860  -0.000000
   32  O  1 ZZ    0.000000   0.000000   0.000000   0.052860  -0.000000
   33  O  1 XY    0.000000   0.000000   0.000000   0.000000  -0.000000
   34  O  1 XZ    0.000000   0.000000   0.000000   0.000000  -0.078199
   35  O  1 YZ    0.000000   0.000000  -0.061038   0.000000  -0.000000
   36  O  1 XX    0.000000   0.000000   0.000000   0.000000  -0.000000
   37  O  1 YY    0.000000   0.000000   0.000000   1.241275  -0.000000
   38  O  1 ZZ    0.000000   0.000000   0.000000  -1.241275  -0.000000
   39  O  1 XY    0.000000   0.000000   0.000000   0.000000  -0.000000
   40  O  1 XZ    0.000000   0.000000   0.000000   0.000000   1.445376
   41  O  1 YZ    0.000000   0.000000   1.433301   0.000000  -0.000000
   42  O  1 XX    0.000000   0.000000   0.000000   0.000000  -0.000000
   43  O  1 YY    0.000000   0.000000   0.000000  -0.773747  -0.000000
   44  O  1 ZZ    0.000000   0.000000   0.000000   0.773747  -0.000000
   45  O  1 XY    0.000000   0.000000   0.000000   0.000000  -0.000000
   46  O  1 XZ    0.000000   0.000000   0.000000   0.000000  -0.878376
   47  O  1 YZ    0.000000   0.000000  -0.893447   0.000000  -0.000000
   48  O  1 XXX   0.000000   0.037905   0.000000   0.000000  -0.000000
   49  O  1 YYY   0.000000   0.000000   0.000000   0.000000  -0.000000
   50  O  1 ZZZ  -0.023172   0.000000   0.000000   0.000000  -0.000000
   51  O  1 XXY   0.000000   0.000000   0.000000   0.000000  -0.000000
   52  O  1 XXZ   0.041451   0.000000   0.000000   0.000000  -0.000000
   53  O  1 YYX   0.000000  -0.025427   0.000000   0.000000  -0.000000
   54  O  1 YYZ  -0.010363   0.000000   0.000000   0.000000  -0.000000
   55  O  1 ZZX   0.000000  -0.025427   0.000000   0.000000  -0.000000
   56  O  1 ZZY   0.000000   0.000000   0.000000   0.000000  -0.000000
   57  O  1 XYZ   0.000000   0.000000   0.000000   0.000000  -0.000000
   58  O  1 XXX   0.000000  -0.225662   0.000000   0.000000  -0.000000
   59  O  1 YYY   0.000000   0.000000   0.000000   0.000000  -0.000000
   60  O  1 ZZZ   0.137704   0.000000   0.000000   0.000000  -0.000000
   61  O  1 XXY   0.000000   0.000000   0.000000   0.000000  -0.000000
   62  O  1 XXZ  -0.246332   0.000000   0.000000   0.000000  -0.000000
   63  O  1 YYX   0.000000   0.151378   0.000000   0.000000  -0.000000
   64  O  1 YYZ   0.061583   0.000000   0.000000   0.000000  -0.000000
   65  O  1 ZZX   0.000000   0.151378   0.000000   0.000000  -0.000000
   66  O  1 ZZY   0.000000   0.000000   0.000000   0.000000  -0.000000
   67  O  1 XYZ   0.000000   0.000000   0.000000   0.000000  -0.000000
   68  O  1 XXX   0.000000   1.125394   0.000000   0.000000  -0.000000
   69  O  1 YYY   0.000000   0.000000   0.000000   0.000000  -0.000000
   70  O  1 ZZZ  -0.688945   0.000000   0.000000   0.000000  -0.000000
   71  O  1 XXY   0.000000   0.000000   0.000000   0.000000  -0.000000
   72  O  1 XXZ   1.232423   0.000000   0.000000   0.000000  -0.000000
   73  O  1 YYX   0.000000  -0.754937   0.000000   0.000000  -0.000000
   74  O  1 YYZ  -0.308106   0.000000   0.000000   0.000000  -0.000000
   75  O  1 ZZX   0.000000  -0.754937   0.000000   0.000000  -0.000000
   76  O  1 ZZY   0.000000   0.000000   0.000000   0.000000  -0.000000
   77  O  1 XYZ   0.000000   0.000000   0.000000   0.000000  -0.000000
   78  O  1XXXX   0.000000   0.000000   0.000000   0.000000  -0.000000
   79  O  1YYYY   0.000000   0.000000   0.000000   0.000770  -0.000000
   80  O  1ZZZZ   0.000000   0.000000   0.000000  -0.000770  -0.000000
   81  O  1XXXY   0.000000   0.000000   0.000000   0.000000  -0.000000
   82  O  1XXXZ   0.000000   0.000000   0.000000   0.000000  -0.002076
   83  O  1YYYX   0.000000   0.000000   0.000000   0.000000  -0.000000
   84  O  1YYYZ   0.000000   0.000000   0.000582   0.000000  -0.000000
   85  O  1ZZZX   0.000000   0.000000   0.000000   0.000000   0.001557
   86  O  1ZZZY   0.000000   0.000000   0.000582   0.000000  -0.000000
   87  O  1XXYY   0.000000   0.000000   0.000000  -0.001353  -0.000000
   88  O  1XXZZ   0.000000   0.000000   0.000000   0.001353  -0.000000
   89  O  1YYZZ   0.000000   0.000000   0.000000   0.000000  -0.000000
   90  O  1XXYZ   0.000000   0.000000  -0.001562   0.000000  -0.000000
   91  O  1YYXZ   0.000000   0.000000   0.000000   0.000000   0.000696
   92  O  1ZZXY   0.000000   0.000000   0.000000   0.000000  -0.000000
   93  O  1XXXX   0.000000   0.000000   0.000000   0.000000  -0.000000
   94  O  1YYYY   0.000000   0.000000   0.000000   0.005325  -0.000000
   95  O  1ZZZZ   0.000000   0.000000   0.000000  -0.005325  -0.000000
   96  O  1XXXY   0.000000   0.000000   0.000000   0.000000  -0.000000
   97  O  1XXXZ   0.000000   0.000000   0.000000   0.000000  -0.016409
   98  O  1YYYX   0.000000   0.000000   0.000000   0.000000  -0.000000
   99  O  1YYYZ   0.000000   0.000000   0.004026   0.000000  -0.000000
  100  O  1ZZZX   0.000000   0.000000   0.000000   0.000000   0.012307
  101  O  1ZZZY   0.000000   0.000000   0.004026   0.000000  -0.000000
  102  O  1XXYY   0.000000   0.000000   0.000000  -0.009355  -0.000000
  103  O  1XXZZ   0.000000   0.000000   0.000000   0.009355  -0.000000
  104  O  1YYZZ   0.000000   0.000000   0.000000   0.000000  -0.000000
  105  O  1XXYZ   0.000000   0.000000  -0.010802   0.000000  -0.000000
  106  O  1YYXZ   0.000000   0.000000   0.000000   0.000000   0.005504
  107  O  1ZZXY   0.000000   0.000000   0.000000   0.000000  -0.000000

                     31         32         33         34         35
                    1.5821     1.5994     2.2864     2.2864     2.3910
                     A          A          A          A          A   
    1  O  1  S   -0.000000   0.006140  -0.000000  -0.000000  -0.000000
    2  O  1  S   -0.000000   0.046189  -0.000000  -0.000000  -0.000000
    3  O  1  S   -0.000000  -0.083553  -0.000000  -0.000000  -0.000000
    4  O  1  S   -0.000000   0.062413  -0.000000  -0.000000  -0.000000
    5  O  1  S   -0.000000  -0.037727  -0.000000  -0.000000  -0.000000
    6  O  1  X   -0.000000   0.000000  -0.000000  -0.000000  -0.888985
    7  O  1  Y   -0.000000   0.000000  -0.000000  -0.896016  -0.000000
    8  O  1  Z   -0.000000   0.000000  -0.896016  -0.000000  -0.000000
    9  O  1  X   -0.000000   0.000000  -0.000000  -0.000000  -1.124136
   10  O  1  Y   -0.000000   0.000000  -0.000000  -1.095106  -0.000000
   11  O  1  Z   -0.000000   0.000000  -1.095106  -0.000000  -0.000000
   12  O  1  X   -0.000000   0.000000  -0.000000  -0.000000   3.058255
   13  O  1  Y   -0.000000   0.000000  -0.000000   3.081481  -0.000000
   14  O  1  Z   -0.000000   0.000000   3.081481  -0.000000  -0.000000
   15  O  1  X   -0.000000   0.000000  -0.000000  -0.000000  -2.360586
   16  O  1  Y   -0.000000   0.000000  -0.000000  -2.448624  -0.000000
   17  O  1  Z   -0.000000   0.000000  -2.448624  -0.000000  -0.000000
   18  O  1  X   -0.000000   0.000000  -0.000000  -0.000000   6.704479
   19  O  1  Y   -0.000000   0.000000  -0.000000   6.966592  -0.000000
   20  O  1  Z   -0.000000   0.000000   6.966592  -0.000000  -0.000000
   21  O  1  X   -0.000000   0.000000  -0.000000  -0.000000  -5.427698
   22  O  1  Y   -0.000000   0.000000  -0.000000  -5.641052  -0.000000
   23  O  1  Z   -0.000000   0.000000  -5.641052  -0.000000  -0.000000
   24  O  1 XX   -0.000000   0.056258  -0.000000  -0.000000  -0.000000
   25  O  1 YY   -0.000000  -0.028129  -0.000000  -0.000000  -0.000000
   26  O  1 ZZ   -0.000000  -0.028129  -0.000000  -0.000000  -0.000000
   27  O  1 XY    0.056243   0.000000  -0.000000  -0.000000  -0.000000
   28  O  1 XZ   -0.000000   0.000000  -0.000000  -0.000000  -0.000000
   29  O  1 YZ   -0.000000   0.000000  -0.000000  -0.000000  -0.000000
   30  O  1 XX   -0.000000  -0.082708  -0.000000  -0.000000  -0.000000
   31  O  1 YY   -0.000000   0.041354  -0.000000  -0.000000  -0.000000
   32  O  1 ZZ   -0.000000   0.041354  -0.000000  -0.000000  -0.000000
   33  O  1 XY   -0.078199   0.000000  -0.000000  -0.000000  -0.000000
   34  O  1 XZ   -0.000000   0.000000  -0.000000  -0.000000  -0.000000
   35  O  1 YZ   -0.000000   0.000000  -0.000000  -0.000000  -0.000000
   36  O  1 XX   -0.000000   1.448271  -0.000000  -0.000000  -0.000000
   37  O  1 YY   -0.000000  -0.724135  -0.000000  -0.000000  -0.000000
   38  O  1 ZZ   -0.000000  -0.724135  -0.000000  -0.000000  -0.000000
   39  O  1 XY    1.445376   0.000000  -0.000000  -0.000000  -0.000000
   40  O  1 XZ   -0.000000   0.000000  -0.000000  -0.000000  -0.000000
   41  O  1 YZ   -0.000000   0.000000  -0.000000  -0.000000  -0.000000
   42  O  1 XX   -0.000000  -0.874652  -0.000000  -0.000000  -0.000000
   43  O  1 YY   -0.000000   0.437326  -0.000000  -0.000000  -0.000000
   44  O  1 ZZ   -0.000000   0.437326  -0.000000  -0.000000  -0.000000
   45  O  1 XY   -0.878376   0.000000  -0.000000  -0.000000  -0.000000
   46  O  1 XZ   -0.000000   0.000000  -0.000000  -0.000000  -0.000000
   47  O  1 YZ   -0.000000   0.000000  -0.000000  -0.000000  -0.000000
   48  O  1 XXX  -0.000000   0.000000  -0.000000  -0.000000   0.006842
   49  O  1 YYY  -0.000000   0.000000  -0.000000  -0.003385  -0.000000
   50  O  1 ZZZ  -0.000000   0.000000  -0.003385  -0.000000  -0.000000
   51  O  1 XXY  -0.000000   0.000000  -0.000000   0.006054  -0.000000
   52  O  1 XXZ  -0.000000   0.000000   0.006054  -0.000000  -0.000000
   53  O  1 YYX  -0.000000   0.000000  -0.000000  -0.000000  -0.004590
   54  O  1 YYZ  -0.000000   0.000000  -0.001514  -0.000000  -0.000000
   55  O  1 ZZX  -0.000000   0.000000  -0.000000  -0.000000  -0.004590
   56  O  1 ZZY  -0.000000   0.000000  -0.000000  -0.001514  -0.000000
   57  O  1 XYZ  -0.000000   0.000000  -0.000000  -0.000000  -0.000000
   58  O  1 XXX  -0.000000   0.000000  -0.000000  -0.000000  -0.019697
   59  O  1 YYY  -0.000000   0.000000  -0.000000   0.010172  -0.000000
   60  O  1 ZZZ  -0.000000   0.000000   0.010172  -0.000000  -0.000000
   61  O  1 XXY  -0.000000   0.000000  -0.000000  -0.018195  -0.000000
   62  O  1 XXZ  -0.000000   0.000000  -0.018195  -0.000000  -0.000000
   63  O  1 YYX  -0.000000   0.000000  -0.000000  -0.000000   0.013213
   64  O  1 YYZ  -0.000000   0.000000   0.004549  -0.000000  -0.000000
   65  O  1 ZZX  -0.000000   0.000000  -0.000000  -0.000000   0.013213
   66  O  1 ZZY  -0.000000   0.000000  -0.000000   0.004549  -0.000000
   67  O  1 XYZ  -0.000000   0.000000  -0.000000  -0.000000  -0.000000
   68  O  1 XXX  -0.000000   0.000000  -0.000000  -0.000000   0.019685
   69  O  1 YYY  -0.000000   0.000000  -0.000000  -0.010804  -0.000000
   70  O  1 ZZZ  -0.000000   0.000000  -0.010804  -0.000000  -0.000000
   71  O  1 XXY  -0.000000   0.000000  -0.000000   0.019327  -0.000000
   72  O  1 XXZ  -0.000000   0.000000   0.019327  -0.000000  -0.000000
   73  O  1 YYX  -0.000000   0.000000  -0.000000  -0.000000  -0.013205
   74  O  1 YYZ  -0.000000   0.000000  -0.004832  -0.000000  -0.000000
   75  O  1 ZZX  -0.000000   0.000000  -0.000000  -0.000000  -0.013205
   76  O  1 ZZY  -0.000000   0.000000  -0.000000  -0.004832  -0.000000
   77  O  1 XYZ  -0.000000   0.000000  -0.000000  -0.000000  -0.000000
   78  O  1XXXX  -0.000000  -0.001839  -0.000000  -0.000000  -0.000000
   79  O  1YYYY  -0.000000  -0.000690  -0.000000  -0.000000  -0.000000
   80  O  1ZZZZ  -0.000000  -0.000690  -0.000000  -0.000000  -0.000000
   81  O  1XXXY  -0.002076   0.000000  -0.000000  -0.000000  -0.000000
[...]
   38  O  1 ZZ   -0.000000   0.000000   0.519374   0.000000   0.000000
   39  O  1 XY   -0.000000   0.000000   0.000000   0.596519   0.000000
   40  O  1 XZ   -0.000000   0.000000   0.000000   0.000000   0.596519
   41  O  1 YZ   -0.000000   0.599721   0.000000   0.000000   0.000000
   42  O  1 XX   -0.000000   0.000000   0.000000   0.000000   0.000000
   43  O  1 YY   -0.000000   0.000000   0.197393   0.000000   0.000000
   44  O  1 ZZ   -0.000000   0.000000  -0.197393   0.000000   0.000000
   45  O  1 XY   -0.000000   0.000000   0.000000  -0.226565   0.000000
   46  O  1 XZ   -0.000000   0.000000   0.000000   0.000000  -0.226565
   47  O  1 YZ   -0.000000  -0.227930   0.000000   0.000000   0.000000
   48  O  1 XXX   1.193594   0.000000   0.000000   0.000000   0.000000
   49  O  1 YYY  -0.000000   0.000000   0.000000   0.000000   0.000000
   50  O  1 ZZZ  -0.000000   0.000000   0.000000   0.000000   0.000000
   51  O  1 XXY  -0.000000   0.000000   0.000000   0.000000   0.000000
   52  O  1 XXZ  -0.000000   0.000000   0.000000   0.000000   0.000000
   53  O  1 YYX  -0.800687   0.000000   0.000000   0.000000   0.000000
   54  O  1 YYZ  -0.000000   0.000000   0.000000   0.000000   0.000000
   55  O  1 ZZX  -0.800687   0.000000   0.000000   0.000000   0.000000
   56  O  1 ZZY  -0.000000   0.000000   0.000000   0.000000   0.000000
   57  O  1 XYZ  -0.000000   0.000000   0.000000   0.000000   0.000000
   58  O  1 XXX  -0.727993   0.000000   0.000000   0.000000   0.000000
   59  O  1 YYY  -0.000000   0.000000   0.000000   0.000000   0.000000
   60  O  1 ZZZ  -0.000000   0.000000   0.000000   0.000000   0.000000
   61  O  1 XXY  -0.000000   0.000000   0.000000   0.000000   0.000000
   62  O  1 XXZ  -0.000000   0.000000   0.000000   0.000000   0.000000
   63  O  1 YYX   0.488353   0.000000   0.000000   0.000000   0.000000
   64  O  1 YYZ  -0.000000   0.000000   0.000000   0.000000   0.000000
   65  O  1 ZZX   0.488353   0.000000   0.000000   0.000000   0.000000
   66  O  1 ZZY  -0.000000   0.000000   0.000000   0.000000   0.000000
   67  O  1 XYZ  -0.000000   0.000000   0.000000   0.000000   0.000000
   68  O  1 XXX   0.289386   0.000000   0.000000   0.000000   0.000000
   69  O  1 YYY  -0.000000   0.000000   0.000000   0.000000   0.000000
   70  O  1 ZZZ  -0.000000   0.000000   0.000000   0.000000   0.000000
   71  O  1 XXY  -0.000000   0.000000   0.000000   0.000000   0.000000
   72  O  1 XXZ  -0.000000   0.000000   0.000000   0.000000   0.000000
   73  O  1 YYX  -0.194126   0.000000   0.000000   0.000000   0.000000
   74  O  1 YYZ  -0.000000   0.000000   0.000000   0.000000   0.000000
   75  O  1 ZZX  -0.194126   0.000000   0.000000   0.000000   0.000000
   76  O  1 ZZY  -0.000000   0.000000   0.000000   0.000000   0.000000
   77  O  1 XYZ  -0.000000   0.000000   0.000000   0.000000   0.000000
   78  O  1XXXX  -0.000000   0.000000   0.000000   0.000000   0.000000
   79  O  1YYYY  -0.000000   0.000000  -0.001187   0.000000   0.000000
   80  O  1ZZZZ  -0.000000   0.000000   0.001187   0.000000   0.000000
   81  O  1XXXY  -0.000000   0.000000   0.000000  -0.003461   0.000000
   82  O  1XXXZ  -0.000000   0.000000   0.000000   0.000000  -0.003461
   83  O  1YYYX  -0.000000   0.000000   0.000000   0.002596   0.000000
   84  O  1YYYZ  -0.000000   0.000898   0.000000   0.000000   0.000000
   85  O  1ZZZX  -0.000000   0.000000   0.000000   0.000000   0.002596
   86  O  1ZZZY  -0.000000   0.000898   0.000000   0.000000   0.000000
   87  O  1XXYY  -0.000000   0.000000   0.002086   0.000000   0.000000
   88  O  1XXZZ  -0.000000   0.000000  -0.002086   0.000000   0.000000
   89  O  1YYZZ  -0.000000   0.000000   0.000000   0.000000   0.000000
   90  O  1XXYZ  -0.000000  -0.002408   0.000000   0.000000   0.000000
   91  O  1YYXZ  -0.000000   0.000000   0.000000   0.000000   0.001161
   92  O  1ZZXY  -0.000000   0.000000   0.000000   0.001161   0.000000
   93  O  1XXXX  -0.000000   0.000000   0.000000   0.000000   0.000000
   94  O  1YYYY  -0.000000   0.000000   0.000360   0.000000   0.000000
   95  O  1ZZZZ  -0.000000   0.000000  -0.000360   0.000000   0.000000
   96  O  1XXXY  -0.000000   0.000000   0.000000   0.001038   0.000000
   97  O  1XXXZ  -0.000000   0.000000   0.000000   0.000000   0.001038
   98  O  1YYYX  -0.000000   0.000000   0.000000  -0.000779   0.000000
   99  O  1YYYZ  -0.000000  -0.000272   0.000000   0.000000   0.000000
  100  O  1ZZZX  -0.000000   0.000000   0.000000   0.000000  -0.000779
  101  O  1ZZZY  -0.000000  -0.000272   0.000000   0.000000   0.000000
  102  O  1XXYY  -0.000000   0.000000  -0.000632   0.000000   0.000000
  103  O  1XXZZ  -0.000000   0.000000   0.000632   0.000000   0.000000
  104  O  1YYZZ  -0.000000   0.000000   0.000000   0.000000   0.000000
  105  O  1XXYZ  -0.000000   0.000730   0.000000   0.000000   0.000000
  106  O  1YYXZ  -0.000000   0.000000   0.000000   0.000000  -0.000348
  107  O  1ZZXY  -0.000000   0.000000   0.000000  -0.000348   0.000000

                     81         82
                   13.1761    32.5916
                     A          A   
    1  O  1  S    0.037330  10.353717
    2  O  1  S    0.061128   3.184211
    3  O  1  S   -0.088897 -10.159234
    4  O  1  S   -0.001879  -3.806953
    5  O  1  S   -0.004667   0.022344
    6  O  1  X    0.000000   0.000000
    7  O  1  Y    0.000000   0.000000
    8  O  1  Z    0.000000   0.000000
    9  O  1  X    0.000000   0.000000
   10  O  1  Y    0.000000   0.000000
   11  O  1  Z    0.000000   0.000000
   12  O  1  X    0.000000   0.000000
   13  O  1  Y    0.000000   0.000000
   14  O  1  Z    0.000000   0.000000
   15  O  1  X    0.000000   0.000000
   16  O  1  Y    0.000000   0.000000
   17  O  1  Z    0.000000   0.000000
   18  O  1  X    0.000000   0.000000
   19  O  1  Y    0.000000   0.000000
   20  O  1  Z    0.000000   0.000000
   21  O  1  X    0.000000   0.000000
   22  O  1  Y    0.000000   0.000000
   23  O  1  Z    0.000000   0.000000
   24  O  1 XX    1.349559  -0.000264
   25  O  1 YY   -0.674780   0.000132
   26  O  1 ZZ   -0.674780   0.000132
   27  O  1 XY    0.000000   0.000000
   28  O  1 XZ    0.000000   0.000000
   29  O  1 YZ    0.000000   0.000000
   30  O  1 XX   -1.141230   0.000704
   31  O  1 YY    0.570615  -0.000352
   32  O  1 ZZ    0.570615  -0.000352
   33  O  1 XY    0.000000   0.000000
   34  O  1 XZ    0.000000   0.000000
   35  O  1 YZ    0.000000   0.000000
   36  O  1 XX    0.595425  -0.000536
   37  O  1 YY   -0.297713   0.000268
   38  O  1 ZZ   -0.297713   0.000268
   39  O  1 XY    0.000000   0.000000
   40  O  1 XZ    0.000000   0.000000
   41  O  1 YZ    0.000000   0.000000
   42  O  1 XX   -0.226114   0.000234
   43  O  1 YY    0.113057  -0.000117
   44  O  1 ZZ    0.113057  -0.000117
   45  O  1 XY    0.000000   0.000000
   46  O  1 XZ    0.000000   0.000000
   47  O  1 YZ    0.000000   0.000000
   48  O  1 XXX   0.000000   0.000000
   49  O  1 YYY   0.000000   0.000000
   50  O  1 ZZZ   0.000000   0.000000
   51  O  1 XXY   0.000000   0.000000
   52  O  1 XXZ   0.000000   0.000000
   53  O  1 YYX   0.000000   0.000000
   54  O  1 YYZ   0.000000   0.000000
   55  O  1 ZZX   0.000000   0.000000
   56  O  1 ZZY   0.000000   0.000000
   57  O  1 XYZ   0.000000   0.000000
   58  O  1 XXX   0.000000   0.000000
   59  O  1 YYY   0.000000   0.000000
   60  O  1 ZZZ   0.000000   0.000000
   61  O  1 XXY   0.000000   0.000000
   62  O  1 XXZ   0.000000   0.000000
   63  O  1 YYX   0.000000   0.000000
   64  O  1 YYZ   0.000000   0.000000
   65  O  1 ZZX   0.000000   0.000000
   66  O  1 ZZY   0.000000   0.000000
   67  O  1 XYZ   0.000000   0.000000
   68  O  1 XXX   0.000000   0.000000
   69  O  1 YYY   0.000000   0.000000
   70  O  1 ZZZ   0.000000   0.000000
   71  O  1 XXY   0.000000   0.000000
   72  O  1 XXZ   0.000000   0.000000
   73  O  1 YYX   0.000000   0.000000
   74  O  1 YYZ   0.000000   0.000000
   75  O  1 ZZX   0.000000   0.000000
   76  O  1 ZZY   0.000000   0.000000
   77  O  1 XYZ   0.000000   0.000000
   78  O  1XXXX  -0.003135  -0.000002
   79  O  1YYYY  -0.001176  -0.000001
   80  O  1ZZZZ  -0.001176  -0.000001
   81  O  1XXXY   0.000000   0.000000
   82  O  1XXXZ   0.000000   0.000000
   83  O  1YYYX   0.000000   0.000000
   84  O  1YYYZ   0.000000   0.000000
   85  O  1ZZZX   0.000000   0.000000
   86  O  1ZZZY   0.000000   0.000000
   87  O  1XXYY   0.002754   0.000002
   88  O  1XXZZ   0.002754   0.000002
   89  O  1YYZZ  -0.000688  -0.000000
   90  O  1XXYZ   0.000000   0.000000
   91  O  1YYXZ   0.000000   0.000000
   92  O  1ZZXY   0.000000   0.000000
   93  O  1XXXX   0.000938   0.000001
   94  O  1YYYY   0.000352   0.000001
   95  O  1ZZZZ   0.000352   0.000001
   96  O  1XXXY   0.000000   0.000000
   97  O  1XXXZ   0.000000   0.000000
   98  O  1YYYX   0.000000   0.000000
   99  O  1YYYZ   0.000000   0.000000
  100  O  1ZZZX   0.000000   0.000000
  101  O  1ZZZY   0.000000   0.000000
  102  O  1XXYY  -0.000824  -0.000001
  103  O  1XXZZ  -0.000824  -0.000001
  104  O  1YYZZ   0.000206   0.000000
  105  O  1XXYZ   0.000000   0.000000
  106  O  1YYXZ   0.000000   0.000000
  107  O  1ZZXY   0.000000   0.000000
 ...... END OF ROHF CALCULATION ......
 STEP CPU TIME =     0.38 TOTAL CPU TIME =        0.9 (    0.0 MIN)
 TOTAL WALL CLOCK TIME=        1.3 SECONDS, CPU UTILIZATION IS  66.15%

     ----------------------------------------------------------------
     PROPERTY VALUES FOR THE ROHF  SELF-CONSISTENT FIELD WAVEFUNCTION
     ----------------------------------------------------------------

          -----------------
          ENERGY COMPONENTS
          -----------------

         WAVEFUNCTION NORMALIZATION =       1.0000000000

                ONE ELECTRON ENERGY =     -26.3187312760
                TWO ELECTRON ENERGY =      10.6289557153
           NUCLEAR REPULSION ENERGY =       0.0000000000
                                      ------------------
                       TOTAL ENERGY =     -15.6897755607

 ELECTRON-ELECTRON POTENTIAL ENERGY =      10.6289557153
  NUCLEUS-ELECTRON POTENTIAL ENERGY =     -38.1642668742
   NUCLEUS-NUCLEUS POTENTIAL ENERGY =       0.0000000000
                                      ------------------
             TOTAL POTENTIAL ENERGY =     -27.5353111590
               TOTAL KINETIC ENERGY =      11.8455355983
                 VIRIAL RATIO (V/T) =       2.3245307002

          ---------------------------------------
          MULLIKEN AND LOWDIN POPULATION ANALYSES
          ---------------------------------------

     ATOMIC MULLIKEN POPULATION IN EACH MOLECULAR ORBITAL

                      1          2          3          4

                  2.000000   2.000000   1.000000   1.000000

    1             2.000000   2.000000   1.000000   1.000000

          MULLIKEN SPHERICAL HARMONIC POPULATIONS
       ATOM           S       P       D      F      G      H      I    TOTAL
    1 O             1.00    3.00    0.00   0.00   0.00   0.00   0.00    4.00

          MULLIKEN SPHERICAL HARMONIC POPULATIONS
       ATOM           S       P       D      F      G      H      I    TOTAL
    1 O             1.00    1.00    0.00   0.00   0.00   0.00   0.00    2.00

     ATOMIC SPIN POPULATION (ALPHA MINUS BETA)
       ATOM         MULL.POP.                    LOW.POP.
    1 O             2.000000                     2.000000

               ----- POPULATIONS IN EACH AO -----
                             MULLIKEN      LOWDIN
              1  O  1  S      2.00060     0.22280
              2  O  1  S      0.00057     0.14536
              3  O  1  S     -0.00099     0.18573
              4  O  1  S     -0.00050     0.14134
              5  O  1  S      0.00027     0.05647
              6  O  1  X      1.99989     0.59932
              7  O  1  Y      1.03551     0.30931
              8  O  1  Z      1.03551     0.30931
              9  O  1  X      0.00034     0.31425
             10  O  1  Y      0.01131     0.16848
             11  O  1  Z      0.01131     0.16848
             12  O  1  X     -0.00017     0.22919
             13  O  1  Y     -0.01131     0.11407
             14  O  1  Z     -0.01131     0.11407
             15  O  1  X      0.00091     0.09021
             16  O  1  Y     -0.03208     0.03418
             17  O  1  Z     -0.03208     0.03418
             18  O  1  X     -0.00594     0.02064
             19  O  1  Y     -0.00382     0.00636
             20  O  1  Z     -0.00382     0.00636
             21  O  1  X      0.00490     0.01562
             22  O  1  Y      0.00030     0.00484
             23  O  1  Z      0.00030     0.00484
             24  O  1 XX      0.00000     0.07957
             25  O  1 YY      0.00000     0.07868
             26  O  1 ZZ      0.00000     0.07868
             27  O  1 XY      0.00000     0.00000
             28  O  1 XZ      0.00000     0.00000
             29  O  1 YZ      0.00000     0.00000
             30  O  1 XX      0.00000     0.11576
             31  O  1 YY      0.00000     0.11463
             32  O  1 ZZ      0.00000     0.11463
             33  O  1 XY      0.00000     0.00000
             34  O  1 XZ      0.00000     0.00000
             35  O  1 YZ      0.00000     0.00000
             36  O  1 XX      0.00001     0.04925
             37  O  1 YY      0.00002     0.04757
             38  O  1 ZZ      0.00000     0.04757
             39  O  1 XY      0.00000     0.00000
             40  O  1 XZ      0.00000     0.00000
             41  O  1 YZ      0.00000     0.00000
             42  O  1 XX      0.00001     0.00959
             43  O  1 YY      0.00002     0.00861
             44  O  1 ZZ      0.00000     0.00861
             45  O  1 XY      0.00000     0.00000
             46  O  1 XZ      0.00000     0.00000
             47  O  1 YZ      0.00000     0.00000
             48  O  1 XXX     0.00001     0.18038
             49  O  1 YYY     0.00001     0.09980
             50  O  1 ZZZ     0.00000     0.09980
             51  O  1 XXY     0.00001     0.04309
             52  O  1 XXZ     0.00000     0.04309
             53  O  1 YYX     0.00000     0.08357
             54  O  1 YYZ     0.00002     0.04510
             55  O  1 ZZX     0.00000     0.08357
             56  O  1 ZZY     0.00000     0.04510
             57  O  1 XYZ     0.00000     0.00000
             58  O  1 XXX     0.00002     0.12388
             59  O  1 YYY     0.00003     0.06339
             60  O  1 ZZZ     0.00001     0.06339
             61  O  1 XXY     0.00002     0.02635
             62  O  1 XXZ     0.00000     0.02635
             63  O  1 YYX     0.00000     0.05913
             64  O  1 YYZ     0.00005     0.02891
             65  O  1 ZZX     0.00000     0.05913
             66  O  1 ZZY     0.00000     0.02891
             67  O  1 XYZ     0.00000     0.00000
             68  O  1 XXX     0.00001     0.07304
             69  O  1 YYY     0.00001     0.03035
             70  O  1 ZZZ     0.00001     0.03035
             71  O  1 XXY     0.00001     0.01227
             72  O  1 XXZ     0.00000     0.01227
             73  O  1 YYX     0.00000     0.03404
             74  O  1 YYZ     0.00002     0.01349
             75  O  1 ZZX     0.00000     0.03404
             76  O  1 ZZY     0.00000     0.01349
             77  O  1 XYZ     0.00000     0.00000
             78  O  1XXXX    -0.00000     0.05607
             79  O  1YYYY     0.00000     0.05527
             80  O  1ZZZZ     0.00000     0.05527
             81  O  1XXXY     0.00000     0.00000
             82  O  1XXXZ     0.00000     0.00000
             83  O  1YYYX     0.00000     0.00000
             84  O  1YYYZ     0.00000     0.00000
             85  O  1ZZZX     0.00000     0.00000
             86  O  1ZZZY     0.00000     0.00000
             87  O  1XXYY     0.00000     0.06009
             88  O  1XXZZ     0.00000     0.06009
             89  O  1YYZZ     0.00000     0.05967
             90  O  1XXYZ     0.00000     0.00000
             91  O  1YYXZ     0.00000     0.00000
             92  O  1ZZXY     0.00000     0.00000
             93  O  1XXXX     0.00000     0.02524
             94  O  1YYYY     0.00000     0.02400
             95  O  1ZZZZ     0.00000     0.02400
             96  O  1XXXY     0.00000     0.00000
             97  O  1XXXZ     0.00000     0.00000
             98  O  1YYYX     0.00000     0.00000
             99  O  1YYYZ     0.00000     0.00000
            100  O  1ZZZX     0.00000     0.00000
            101  O  1ZZZY     0.00000     0.00000
            102  O  1XXYY     0.00000     0.02536
            103  O  1XXZZ     0.00000     0.02536
            104  O  1YYZZ     0.00000     0.02473
            105  O  1XXYZ     0.00000     0.00000
            106  O  1YYXZ     0.00000     0.00000
            107  O  1ZZXY     0.00000     0.00000

          ----- MULLIKEN ATOMIC OVERLAP POPULATIONS -----
          (OFF-DIAGONAL ELEMENTS NEED TO BE MULTIPLIED BY 2)

             1

    1    6.0000000

          TOTAL MULLIKEN AND LOWDIN ATOMIC POPULATIONS
       ATOM         MULL.POP.    CHARGE          LOW.POP.     CHARGE
    1 O             6.000000   -0.000000         6.000000    0.000000

          MULLIKEN SPHERICAL HARMONIC POPULATIONS
       ATOM           S       P       D      F      G      H      I    TOTAL
    1 O             2.00    4.00    0.00   0.00   0.00   0.00   0.00    6.00

          -------------------------------
          BOND ORDER AND VALENCE ANALYSIS     BOND ORDER THRESHOLD=0.050
          -------------------------------

                   BOND                       BOND                       BOND
  ATOM PAIR DIST  ORDER      ATOM PAIR DIST  ORDER      ATOM PAIR DIST  ORDER

                       TOTAL       BONDED        FREE
      ATOM            VALENCE     VALENCE     VALENCE
    1 O                 2.000       0.000       2.000

          -----------------------------------------
          ATOMIC SPIN DENSITY AT THE NUCLEUS (A.U.)
          -----------------------------------------
                            SPIN DENS    ALPHA DENS     BETA DENS
    1  O            6.0     0.0000000       0.01267       0.01267

          ---------------------
          ELECTROSTATIC MOMENTS
          ---------------------

 POINT   1           X           Y           Z (BOHR)    CHARGE
                 0.000000    0.000000    0.000000       -0.00 (A.U.)
         DX          DY          DZ         /D/  (DEBYE)
     0.000000    0.000000    0.000000    0.000000
 ...... END OF PROPERTY EVALUATION ......
 STEP CPU TIME =     0.03 TOTAL CPU TIME =        0.9 (    0.0 MIN)
 TOTAL WALL CLOCK TIME=        1.4 SECONDS, CPU UTILIZATION IS  62.68%
               809237  WORDS OF DYNAMIC MEMORY USED
 EXECUTION OF GAMESS TERMINATED NORMALLY Sun Jun 24 18:04:12 2018
 DDI: 263640 bytes (0.3 MB / 0 MWords) used by master data server.

 ----------------------------------------
 CPU timing information for all processes
 ========================================
 0: 0.836 + 0.68 = 0.904
 ----------------------------------------
Note: The following floating-point exceptions are signalling: IEEE_UNDERFLOW_FLAG IEEE_DENORMAL
 ddikick.x: exited gracefully.
unset echo
----- accounting info -----
Files used on the master node gwang18-Lenovo-Y50-70 were:
-rw-rw-r-- 1 gwang18 gwang18   144912 Jun 24 18:04 /home/gwang18/research/qwalk/ecpcorrelation/o/hf/o.dat
-rw------- 1 gwang18 gwang18     1384 Jun 24 18:04 /home/gwang18/research/qwalk/ecpcorrelation/o/hf/o.F05
-rw-rw-r-- 1 gwang18 gwang18 25742288 Jun 24 18:04 /home/gwang18/research/qwalk/ecpcorrelation/o/hf/o.F08
-rw-rw-r-- 1 gwang18 gwang18  8441760 Jun 24 18:04 /home/gwang18/research/qwalk/ecpcorrelation/o/hf/o.F10
-rw------- 1 gwang18 gwang18     1384 Jun 24 18:04 /home/gwang18/research/qwalk/ecpcorrelation/o/hf/o.inp
-rw-rw-r-- 1 gwang18 gwang18   166304 Jun 24 18:04 /home/gwang18/research/qwalk/ecpcorrelation/o/hf/o.out
ls: No match.
ls: No match.
ls: No match.
Sun Jun 24 18:04:15 EDT 2018
0.0u 0.0s 0:04.53 0.8% 0+0k 0+16io 0pf+0w
