
 Primary working directories    : /global/cscratch1/sd/aannabe
 Secondary working directories  : /global/cscratch1/sd/aannabe
 Wavefunction directory         : /global/homes/a/aannabe/wfu/
 Main file repository           : /global/cscratch1/sd/aannabe/

 SHA1      : 2873118e99aab1bc19f5b6fc1784693c06d15c95
 NAME      : 2015.1.8
 ARCHNAME  : linux/x86_64
 FC        : /opt/cray/pe/craype/2.5.5/bin/ftn
 BLASLIB   : -Wl,-_start-group /opt/intel/compilers_and_libraries_2016.3.210/linux/mkl/lib/intel64/libmkl_intel_ilp64.a /opt/intel/compilers_and_libraries_2016.3.210/linux/mkl/lib/intel64/libmkl_intel_thread.a /opt/intel/compilers_and_libraries_2016.3.210/linux/mkl/lib/intel64/libmkl_core.a -Wl,-_end-group
 id        : lbl

 Nodes     nprocs
 nid00486     1

 Using customized tuning parameters: mindgm=8; mindgv=16; mindgc=4; mindgr=1; noblas=0; minvec=7
 default implementation of scratch files=df  

 ***,Co
 memory,512,m
 gthresh,twoint=1.e-12
 
 gprint,basis,orbitals
 gexpec,ekin,pot
 
 angstrom
 geometry={
 1                                                                               ! Number of atoms
 Co 0.0 0.0 0.0
 }
 
 basis={
 Including file /global/homes/a/aannabe/docs/accurate/ccECP_D2h/pps/Co.pp
                                             !include,/global/homes/a/aannabe/docs/accurate/ccECP_D2h/basis/aug-cc-pVnZ/Co_qz.basis
 Including file /global/homes/a/aannabe/docs/accurate/ccECP_D2h/basis/cc-pVnZ/Co_qz.basis
 }
 
 {hf
 wf,17,6,3
 occ,4,1,1,1,1,1,1,0
 closed,3,1,1,0,1,1,0,0
                                                                                 !open,4.1,1.7,1.4
 sym,1,1,1,3,2
 }
 scf(i)=energy
 
 _CC_NORM_MAX=2.0
 {uccsd(t)
 maxit,100
 core
 }
 posthf(i)=energy
 
 table,scf,posthf,ekin,pot
 save,4.csv,new
 
 

 Variables initialized (889), CPU time= 0.00 sec
 Commands  initialized (702), CPU time= 0.01 sec, 572 directives.
 Default parameters read. Elapsed time= 0.33 sec

 Checking input...
 Passed
1


                                         ***  PROGRAM SYSTEM MOLPRO  ***
                                       Copyright, TTI GmbH Stuttgart, 2015
                                    Version 2015.1 linked Sep  7 2016 23:09:38


 **********************************************************************************************************************************
 LABEL *   Co                                                                            
  64 bit serial version                                                                  DATE: 13-Nov-18          TIME: 22:27:01  
 **********************************************************************************************************************************

 SHA1:             2873118e99aab1bc19f5b6fc1784693c06d15c95
 **********************************************************************************************************************************

 THRESHOLDS:

 ZERO    =  1.00D-12  ONEINT  =  1.00D-12  TWOINT  =  1.00D-12  PREFAC  =  1.00D-14  LOCALI  =  1.00D-09  EORDER  =  1.00D-04
 ENERGY  =  0.00D+00  ETEST   =  0.00D+00  EDENS   =  0.00D+00  THRDEDEF=  1.00D-06  GRADIENT=  1.00D-02  STEP    =  1.00D-03
 ORBITAL =  1.00D-05  CIVEC   =  1.00D-05  COEFF   =  1.00D-04  PRINTCI =  5.00D-02  PUNCHCI =  9.90D+01  OPTGRAD =  3.00D-04
 OPTENERG=  1.00D-06  OPTSTEP =  3.00D-04  THRGRAD =  1.00D-10  COMPRESS=  1.00D-11  VARMIN  =  1.00D-07  VARMAX  =  1.00D-03
 THRDOUB =  0.00D+00  THRDIV  =  1.00D-05  THRRED  =  1.00D-07  THRPSP  =  1.00D+00  THRDC   =  1.00D-10  THRCS   =  1.00D-10
 THRNRM  =  1.00D-08  THREQ   =  0.00D+00  THRDE   =  1.00D+00  THRREF  =  1.00D-05  SPARFAC =  1.00D+00  THRDLP  =  1.00D-07
 THRDIA  =  1.00D-10  THRDLS  =  1.00D-07  THRGPS  =  0.00D+00  THRKEX  =  0.00D+00  THRDIS  =  2.00D-01  THRVAR  =  1.00D-10
 THRLOC  =  1.00D-06  THRGAP  =  1.00D-06  THRLOCT = -1.00D+00  THRGAPT = -1.00D+00  THRORB  =  1.00D-06  THRMLTP =  0.00D+00
 THRCPQCI=  1.00D-10  KEXTA   =  0.00D+00  THRCOARS=  0.00D+00  SYMTOL  =  1.00D-06  GRADTOL =  1.00D-06  THROVL  =  1.00D-08
 THRORTH =  1.00D-08  GRID    =  1.00D-06  GRIDMAX =  1.00D-03  DTMAX   =  0.00D+00  THROCCDE=  1.00D-01  THROCCDE=  1.00D-01



 ZUNIT=ANG
 

Geometry recognized as XYZ


 Variable memory set to  512000000 words,  buffer space   230000 words

 SETTING BASIS          =    USERDEF


 Recomputing integrals since basis changed


 Using spherical harmonics



 PROGRAM * SEWARD (Integral evaluation for generally contracted gaussian basis sets)     Author: Roland Lindh, 1990

 Geometry written to block  1 of record 700

 Orientation using atomic masses  
 Molecule type: Atom
 Symmetry elements: X,Y,Z
 Rotational constants:       0.0000000      0.0000000      0.0000000 GHz  (calculated with average atomic masses)

 Point group  D2h 



 ATOMIC COORDINATES

 NR  ATOM    CHARGE       X              Y              Z

   1  CO     17.00    0.000000000    0.000000000    0.000000000


          CO  CORE POTENTIAL

          d POTENTIAL

 POWERS             1              3              2              2
 EXPONENTIALS   25.00124       22.83490       23.47468       10.33795    
 COEFFICIENTS   17.00000       425.0211      -195.4821      -2.815729    

          s - d POTENTIAL

 POWERS             2              2
 EXPONENTIALS   23.41427       10.76932    
 COEFFICIENTS   271.7771       54.26461    

          p - d POTENTIAL

 POWERS             2              2
 EXPONENTIALS   25.47446       10.68405    
 COEFFICIENTS   201.5343       38.99232    


 BASIS DATA

   Nr Sym  Nuc  Type         Exponents   Contraction coefficients

    1.1 Ag    1  1s          90.663831     0.000774   -0.000154   -0.000047   -0.000231    0.002809    0.000000
    2.1 Ag                   46.961414    -0.011316    0.002525    0.003654    0.007536   -0.024459    0.000000
    3.1 Ag                   24.110274     0.101209   -0.024443   -0.046132   -0.097298    0.211717    0.000000
    4.1 Ag                   14.430881    -0.081642    0.022200    0.036483    0.111611   -0.387452    0.000000
    5.1 Ag                    8.757423    -0.354812    0.088416    0.217265    0.403621   -0.366909    0.000000
    6.1 Ag                    4.484459    -0.090362    0.016820   -0.011883   -0.048324    0.139143    0.000000
                              2.519739     0.498174   -0.134582   -0.324688   -1.157600    2.834527    0.000000
                              1.236850     0.604123   -0.231295   -0.680581   -0.756839   -2.906398    0.000000
                              0.601882     0.190775   -0.163986    0.256936    2.313683   -0.806896    0.000000
                              0.223338     0.006578    0.121337    1.224005    0.253074    4.336055    0.000000
                              0.123422    -0.000905    0.402414    0.236837   -1.991466   -2.913607    0.000000
                              0.059941     0.000171    0.506113   -0.604064    0.166942   -1.253307    0.000000
                              0.027978    -0.000025    0.145436   -0.574947    0.917221    1.509572    1.000000
    7.1 Ag    1  1s           2.586299     1.000000
    8.1 Ag    1  1s           3.168493     1.000000
    9.1 Ag    1  3d0        160.444504     0.000034
                             52.598830     0.006553
                             27.491581     0.036185
                             12.745988     0.083026
                              6.184310     0.176960
                              3.029146     0.263990
                              1.474099     0.292447
                              0.714391     0.249597
                              0.348520     0.171637
                              0.174166     0.080649
                              0.087891     0.041212
   10.1 Ag    1  3d2+       160.444504     0.000034
                             52.598830     0.006553
                             27.491581     0.036185
                             12.745988     0.083026
                              6.184310     0.176960
                              3.029146     0.263990
                              1.474099     0.292447
                              0.714391     0.249597
                              0.348520     0.171637
                              0.174166     0.080649
                              0.087891     0.041212
   11.1 Ag    1  3d0        160.444504    -0.000031
                             52.598830    -0.007869
                             27.491581    -0.041992
                             12.745988    -0.101388
                              6.184310    -0.216996
                              3.029146    -0.283962
                              1.474099    -0.127179
                              0.714391     0.177125
                              0.348520     0.375596
                              0.174166     0.284631
                              0.087891     0.200277
   12.1 Ag    1  3d2+       160.444504    -0.000031
                             52.598830    -0.007869
                             27.491581    -0.041992
                             12.745988    -0.101388
                              6.184310    -0.216996
                              3.029146    -0.283962
                              1.474099    -0.127179
                              0.714391     0.177125
                              0.348520     0.375596
                              0.174166     0.284631
                              0.087891     0.200277
   13.1 Ag    1  3d0        160.444504     0.000048
                             52.598830     0.010531
                             27.491581     0.055559
                             12.745988     0.140758
                              6.184310     0.305785
                              3.029146     0.242812
                              1.474099    -0.285044
                              0.714391    -0.594819
                              0.348520    -0.017937
                              0.174166     0.348150
                              0.087891     0.455170
   14.1 Ag    1  3d2+       160.444504     0.000048
                             52.598830     0.010531
                             27.491581     0.055559
                             12.745988     0.140758
                              6.184310     0.305785
                              3.029146     0.242812
                              1.474099    -0.285044
                              0.714391    -0.594819
                              0.348520    -0.017937
                              0.174166     0.348150
                              0.087891     0.455170
   15.1 Ag    1  3d0        160.444504    -0.000070
                             52.598830    -0.015269
                             27.491581    -0.078770
                             12.745988    -0.218556
                              6.184310    -0.479271
                              3.029146     0.173623
                              1.474099     0.954173
                              0.714391    -0.348490
                              0.348520    -0.737371
                              0.174166     0.071941
                              0.087891     0.644882
   16.1 Ag    1  3d2+       160.444504    -0.000070
                             52.598830    -0.015269
                             27.491581    -0.078770
                             12.745988    -0.218556
                              6.184310    -0.479271
                              3.029146     0.173623
                              1.474099     0.954173
                              0.714391    -0.348490
                              0.348520    -0.737371
                              0.174166     0.071941
                              0.087891     0.644882
   17.1 Ag    1  3d0        160.444504     0.000000
                             52.598830     0.000000
                             27.491581     0.000000
                             12.745988     0.000000
                              6.184310     0.000000
                              3.029146     0.000000
                              1.474099     0.000000
                              0.714391     0.000000
                              0.348520     0.000000
                              0.174166     0.000000
                              0.087891     1.000000
   18.1 Ag    1  3d2+       160.444504     0.000000
                             52.598830     0.000000
                             27.491581     0.000000
                             12.745988     0.000000
                              6.184310     0.000000
                              3.029146     0.000000
                              1.474099     0.000000
                              0.714391     0.000000
                              0.348520     0.000000
                              0.174166     0.000000
                              0.087891     1.000000
   19.1 Ag    1  3d0          4.048276     1.000000
   20.1 Ag    1  3d2+         4.048276     1.000000
   21.1 Ag    1  3d0          4.726625     1.000000
   22.1 Ag    1  3d2+         4.726625     1.000000
   23.1 Ag    1  5g0          1.312433     1.000000
   24.1 Ag    1  5g4+         1.312433     1.000000
   25.1 Ag    1  5g2+         1.312433     1.000000
   26.1 Ag    1  5g0          4.581075     1.000000
   27.1 Ag    1  5g4+         4.581075     1.000000
   28.1 Ag    1  5g2+         4.581075     1.000000
   29.1 Ag    1  5g0          6.901363     1.000000
   30.1 Ag    1  5g4+         6.901363     1.000000
   31.1 Ag    1  5g2+         6.901363     1.000000
    1.2 B3u   1  2px        139.038145     0.000075    0.000025   -0.000238   -0.000055    0.000052    0.000000
    2.2 B3u                  71.928971    -0.000627   -0.000084    0.001489   -0.000017    0.000144    0.000000
    3.2 B3u                  37.806311     0.005719   -0.000485   -0.008723    0.004320   -0.005065    0.000000
    4.2 B3u                  21.054252    -0.009310    0.000095    0.024538   -0.021339    0.051662    0.000000
    5.2 B3u                  12.973193    -0.083857    0.022402    0.060856   -0.127134    0.209306    0.000000
    6.2 B3u                   6.791461     0.012394   -0.011534   -0.020380    0.157208   -0.636052    0.000000
                              3.794018     0.281987   -0.056866   -0.430195    0.794927   -1.334761    0.000000
                              1.960649     0.434179   -0.126070   -0.407692    0.233574    2.337409    0.000000
                              1.006283     0.313409   -0.060889    0.085326   -1.666033    0.190624    0.000000
                              0.509539     0.089778   -0.035086    1.073326    0.282716   -2.657841    0.000000
                              0.233091     0.007405    0.351847    0.015067    1.335625    2.264444    0.000000
                              0.083890     0.000980    0.510449   -0.719631   -0.885469   -0.612584    0.000000
                              0.039802     0.000274    0.289707   -0.024603   -0.130340   -0.276620    1.000000
    7.2 B3u   1  2px          2.724786     1.000000
    8.2 B3u   1  2px          8.491665     1.000000
    9.2 B3u   1  4f1+         0.574342     1.000000
   10.2 B3u   1  4f3+         0.574342     1.000000
   11.2 B3u   1  4f1+         1.905783     1.000000
   12.2 B3u   1  4f3+         1.905783     1.000000
   13.2 B3u   1  4f1+         6.323772     1.000000
   14.2 B3u   1  4f3+         6.323772     1.000000
   15.2 B3u   1  4f1+         3.823826     1.000000
   16.2 B3u   1  4f3+         3.823826     1.000000
   17.2 B3u   1  6h1+         2.901601     1.000000
   18.2 B3u   1  6h3+         2.901601     1.000000
   19.2 B3u   1  6h5+         2.901601     1.000000
   20.2 B3u   1  6h1+         6.891833     1.000000
   21.2 B3u   1  6h3+         6.891833     1.000000
   22.2 B3u   1  6h5+         6.891833     1.000000
    1.3 B2u   1  2py        139.038145     0.000075    0.000025   -0.000238   -0.000055    0.000052    0.000000
    2.3 B2u                  71.928971    -0.000627   -0.000084    0.001489   -0.000017    0.000144    0.000000
    3.3 B2u                  37.806311     0.005719   -0.000485   -0.008723    0.004320   -0.005065    0.000000
    4.3 B2u                  21.054252    -0.009310    0.000095    0.024538   -0.021339    0.051662    0.000000
    5.3 B2u                  12.973193    -0.083857    0.022402    0.060856   -0.127134    0.209306    0.000000
    6.3 B2u                   6.791461     0.012394   -0.011534   -0.020380    0.157208   -0.636052    0.000000
                              3.794018     0.281987   -0.056866   -0.430195    0.794927   -1.334761    0.000000
                              1.960649     0.434179   -0.126070   -0.407692    0.233574    2.337409    0.000000
                              1.006283     0.313409   -0.060889    0.085326   -1.666033    0.190624    0.000000
                              0.509539     0.089778   -0.035086    1.073326    0.282716   -2.657841    0.000000
                              0.233091     0.007405    0.351847    0.015067    1.335625    2.264444    0.000000
                              0.083890     0.000980    0.510449   -0.719631   -0.885469   -0.612584    0.000000
                              0.039802     0.000274    0.289707   -0.024603   -0.130340   -0.276620    1.000000
    7.3 B2u   1  2py          2.724786     1.000000
    8.3 B2u   1  2py          8.491665     1.000000
    9.3 B2u   1  4f1-         0.574342     1.000000
   10.3 B2u   1  4f3-         0.574342     1.000000
   11.3 B2u   1  4f1-         1.905783     1.000000
   12.3 B2u   1  4f3-         1.905783     1.000000
   13.3 B2u   1  4f1-         6.323772     1.000000
   14.3 B2u   1  4f3-         6.323772     1.000000
   15.3 B2u   1  4f1-         3.823826     1.000000
   16.3 B2u   1  4f3-         3.823826     1.000000
   17.3 B2u   1  6h1-         2.901601     1.000000
   18.3 B2u   1  6h3-         2.901601     1.000000
   19.3 B2u   1  6h5-         2.901601     1.000000
   20.3 B2u   1  6h1-         6.891833     1.000000
   21.3 B2u   1  6h3-         6.891833     1.000000
   22.3 B2u   1  6h5-         6.891833     1.000000
    1.4 B1g   1  3d2-       160.444504     0.000034   -0.000031    0.000048   -0.000070    0.000000
    2.4 B1g                  52.598830     0.006553   -0.007869    0.010531   -0.015269    0.000000
    3.4 B1g                  27.491581     0.036185   -0.041992    0.055559   -0.078770    0.000000
    4.4 B1g                  12.745988     0.083026   -0.101388    0.140758   -0.218556    0.000000
    5.4 B1g                   6.184310     0.176960   -0.216996    0.305785   -0.479271    0.000000
                              3.029146     0.263990   -0.283962    0.242812    0.173623    0.000000
                              1.474099     0.292447   -0.127179   -0.285044    0.954173    0.000000
                              0.714391     0.249597    0.177125   -0.594819   -0.348490    0.000000
                              0.348520     0.171637    0.375596   -0.017937   -0.737371    0.000000
                              0.174166     0.080649    0.284631    0.348150    0.071941    0.000000
                              0.087891     0.041212    0.200277    0.455170    0.644882    1.000000
    6.4 B1g   1  3d2-         4.048276     1.000000
    7.4 B1g   1  3d2-         4.726625     1.000000
    8.4 B1g   1  5g2-         1.312433     1.000000
    9.4 B1g   1  5g4-         1.312433     1.000000
   10.4 B1g   1  5g2-         4.581075     1.000000
   11.4 B1g   1  5g4-         4.581075     1.000000
   12.4 B1g   1  5g2-         6.901363     1.000000
   13.4 B1g   1  5g4-         6.901363     1.000000
    1.5 B1u   1  2pz        139.038145     0.000075    0.000025   -0.000238   -0.000055    0.000052    0.000000
    2.5 B1u                  71.928971    -0.000627   -0.000084    0.001489   -0.000017    0.000144    0.000000
    3.5 B1u                  37.806311     0.005719   -0.000485   -0.008723    0.004320   -0.005065    0.000000
    4.5 B1u                  21.054252    -0.009310    0.000095    0.024538   -0.021339    0.051662    0.000000
    5.5 B1u                  12.973193    -0.083857    0.022402    0.060856   -0.127134    0.209306    0.000000
    6.5 B1u                   6.791461     0.012394   -0.011534   -0.020380    0.157208   -0.636052    0.000000
                              3.794018     0.281987   -0.056866   -0.430195    0.794927   -1.334761    0.000000
                              1.960649     0.434179   -0.126070   -0.407692    0.233574    2.337409    0.000000
                              1.006283     0.313409   -0.060889    0.085326   -1.666033    0.190624    0.000000
                              0.509539     0.089778   -0.035086    1.073326    0.282716   -2.657841    0.000000
                              0.233091     0.007405    0.351847    0.015067    1.335625    2.264444    0.000000
                              0.083890     0.000980    0.510449   -0.719631   -0.885469   -0.612584    0.000000
                              0.039802     0.000274    0.289707   -0.024603   -0.130340   -0.276620    1.000000
    7.5 B1u   1  2pz          2.724786     1.000000
    8.5 B1u   1  2pz          8.491665     1.000000
    9.5 B1u   1  4f0          0.574342     1.000000
   10.5 B1u   1  4f2+         0.574342     1.000000
   11.5 B1u   1  4f0          1.905783     1.000000
   12.5 B1u   1  4f2+         1.905783     1.000000
   13.5 B1u   1  4f0          6.323772     1.000000
   14.5 B1u   1  4f2+         6.323772     1.000000
   15.5 B1u   1  4f0          3.823826     1.000000
   16.5 B1u   1  4f2+         3.823826     1.000000
   17.5 B1u   1  6h2+         2.901601     1.000000
   18.5 B1u   1  6h4+         2.901601     1.000000
   19.5 B1u   1  6h0          2.901601     1.000000
   20.5 B1u   1  6h2+         6.891833     1.000000
   21.5 B1u   1  6h4+         6.891833     1.000000
   22.5 B1u   1  6h0          6.891833     1.000000
    1.6 B2g   1  3d1+       160.444504     0.000034   -0.000031    0.000048   -0.000070    0.000000
    2.6 B2g                  52.598830     0.006553   -0.007869    0.010531   -0.015269    0.000000
    3.6 B2g                  27.491581     0.036185   -0.041992    0.055559   -0.078770    0.000000
    4.6 B2g                  12.745988     0.083026   -0.101388    0.140758   -0.218556    0.000000
    5.6 B2g                   6.184310     0.176960   -0.216996    0.305785   -0.479271    0.000000
                              3.029146     0.263990   -0.283962    0.242812    0.173623    0.000000
                              1.474099     0.292447   -0.127179   -0.285044    0.954173    0.000000
                              0.714391     0.249597    0.177125   -0.594819   -0.348490    0.000000
                              0.348520     0.171637    0.375596   -0.017937   -0.737371    0.000000
                              0.174166     0.080649    0.284631    0.348150    0.071941    0.000000
                              0.087891     0.041212    0.200277    0.455170    0.644882    1.000000
    6.6 B2g   1  3d1+         4.048276     1.000000
    7.6 B2g   1  3d1+         4.726625     1.000000
    8.6 B2g   1  5g1+         1.312433     1.000000
    9.6 B2g   1  5g3+         1.312433     1.000000
   10.6 B2g   1  5g1+         4.581075     1.000000
   11.6 B2g   1  5g3+         4.581075     1.000000
   12.6 B2g   1  5g1+         6.901363     1.000000
   13.6 B2g   1  5g3+         6.901363     1.000000
    1.7 B3g   1  3d1-       160.444504     0.000034   -0.000031    0.000048   -0.000070    0.000000
    2.7 B3g                  52.598830     0.006553   -0.007869    0.010531   -0.015269    0.000000
    3.7 B3g                  27.491581     0.036185   -0.041992    0.055559   -0.078770    0.000000
    4.7 B3g                  12.745988     0.083026   -0.101388    0.140758   -0.218556    0.000000
    5.7 B3g                   6.184310     0.176960   -0.216996    0.305785   -0.479271    0.000000
                              3.029146     0.263990   -0.283962    0.242812    0.173623    0.000000
                              1.474099     0.292447   -0.127179   -0.285044    0.954173    0.000000
                              0.714391     0.249597    0.177125   -0.594819   -0.348490    0.000000
                              0.348520     0.171637    0.375596   -0.017937   -0.737371    0.000000
                              0.174166     0.080649    0.284631    0.348150    0.071941    0.000000
                              0.087891     0.041212    0.200277    0.455170    0.644882    1.000000
    6.7 B3g   1  3d1-         4.048276     1.000000
    7.7 B3g   1  3d1-         4.726625     1.000000
    8.7 B3g   1  5g1-         1.312433     1.000000
    9.7 B3g   1  5g3-         1.312433     1.000000
   10.7 B3g   1  5g1-         4.581075     1.000000
   11.7 B3g   1  5g3-         4.581075     1.000000
   12.7 B3g   1  5g1-         6.901363     1.000000
   13.7 B3g   1  5g3-         6.901363     1.000000
    1.8 Au    1  4f2-         0.574342     1.000000
    2.8 Au    1  4f2-         1.905783     1.000000
    3.8 Au    1  4f2-         6.323772     1.000000
    4.8 Au    1  4f2-         3.823826     1.000000
    5.8 Au    1  6h4-         2.901601     1.000000
    6.8 Au    1  6h2-         2.901601     1.000000
    7.8 Au    1  6h4-         6.891833     1.000000
    8.8 Au    1  6h2-         6.891833     1.000000

 NUCLEAR CHARGE:                   17
 NUMBER OF PRIMITIVE AOS:         265
 NUMBER OF SYMMETRY AOS:          202
 NUMBER OF CONTRACTIONS:          144   (  31Ag  +  22B3u +  22B2u +  13B1g +  22B1u +  13B2g +  13B3g +   8Au  )
 NUMBER OF CORE ORBITALS:           4   (   1Ag  +   1B3u +   1B2u +   0B1g +   1B1u +   0B2g +   0B3g +   0Au  )
 NUMBER OF VALENCE ORBITALS:        6   (   3Ag  +   0B3u +   0B2u +   1B1g +   0B1u +   1B2g +   1B3g +   0Au  )


 NUCLEAR REPULSION ENERGY    0.00000000

 EXTRA SYMMETRY OF AOS IN SYMMETRY 1:   1 1 1 1 1 1 1 1 2 3   2 3 2 3 2 3 2 3 2 3   2 3 4 5 6 4 5 6 4 5   6
 EXTRA SYMMETRY OF AOS IN SYMMETRY 2:   1 1 1 1 1 1 1 1 2 3   2 3 2 3 2 3 4 5 6 4   5 6
 EXTRA SYMMETRY OF AOS IN SYMMETRY 3:   1 1 1 1 1 1 1 1 2 3   2 3 2 3 2 3 4 5 6 4   5 6
 EXTRA SYMMETRY OF AOS IN SYMMETRY 4:   1 1 1 1 1 1 1 2 3 2   3 2 3
 EXTRA SYMMETRY OF AOS IN SYMMETRY 5:   1 1 1 1 1 1 1 1 2 3   2 3 2 3 2 3 4 5 6 4   5 6
 EXTRA SYMMETRY OF AOS IN SYMMETRY 6:   1 1 1 1 1 1 1 2 3 2   3 2 3
 EXTRA SYMMETRY OF AOS IN SYMMETRY 7:   1 1 1 1 1 1 1 2 3 2   3 2 3
 EXTRA SYMMETRY OF AOS IN SYMMETRY 8:   1 1 1 1 2 3 2 3

 Eigenvalues of metric

         1 0.152E-03 0.143E-02 0.143E-02 0.214E-02 0.208E-01 0.208E-01 0.460E-01 0.460E-01
         2 0.115E-02 0.398E-01 0.398E-01 0.482E-01 0.154E+00 0.379E+00 0.379E+00 0.446E+00
         3 0.115E-02 0.398E-01 0.398E-01 0.482E-01 0.154E+00 0.379E+00 0.379E+00 0.446E+00
         4 0.143E-02 0.208E-01 0.460E-01 0.881E-01 0.881E-01 0.876E+00 0.876E+00 0.100E+01
         5 0.115E-02 0.398E-01 0.398E-01 0.482E-01 0.154E+00 0.379E+00 0.379E+00 0.446E+00
         6 0.143E-02 0.208E-01 0.460E-01 0.881E-01 0.881E-01 0.876E+00 0.876E+00 0.100E+01
         7 0.143E-02 0.208E-01 0.460E-01 0.881E-01 0.881E-01 0.876E+00 0.876E+00 0.100E+01
         8 0.398E-01 0.379E+00 0.446E+00 0.446E+00 0.106E+01 0.155E+01 0.155E+01 0.252E+01


 Contracted 2-electron integrals neglected if value below      1.0D-12
 AO integral compression algorithm  1   Integral accuracy      1.0D-12

     53.477 MB (compressed) written to integral file ( 57.5%)


 NUMBER OF SORTED TWO-ELECTRON INTEGRALS:    7063297.     BUFFER LENGTH:  32768
 NUMBER OF SEGMENTS:   1  SEGMENT LENGTH:    7063297      RECORD LENGTH: 524288

 Memory used in sort:       7.62 MW

 SORT1 READ    11599838. AND WROTE     4948094. INTEGRALS IN     15 RECORDS. CPU TIME:     0.38 SEC, REAL TIME:     0.52 SEC
 SORT2 READ     4948094. AND WROTE     7063297. INTEGRALS IN    204 RECORDS. CPU TIME:     0.22 SEC, REAL TIME:     0.54 SEC

 FILE SIZES:   FILE 1:    73.1 MBYTE,  FILE 4:    62.9 MBYTE,   TOTAL:    136.0 MBYTE

 OPERATOR DM      FOR CENTER  0  COORDINATES:    0.000000    0.000000    0.000000
 OPERATOR EKIN    FOR CENTER  0  COORDINATES:    0.000000    0.000000    0.000000
 OPERATOR POT     FOR CENTER  0  COORDINATES:    0.000000    0.000000    0.000000


 **********************************************************************************************************************************
 DATASETS  * FILE   NREC   LENGTH (MB)   RECORD NAMES
              1      20       51.35       500      610      700      900      950      970     1000      129      960     1100   
                                          VAR    BASINP    GEOM    SYMINP    ZMAT    AOBASIS   BASIS     P2S    ABASIS      S 
                                         1400     1410     1420     1200     1210     1080     1600     1650     1300     1700   
                                         EKIN       V       ECP      H0       H01     AOSYM     SMH    MOLCAS    ERIS     OPER   

 PROGRAMS   *        TOTAL       INT
 CPU TIMES  *         4.47      4.25
 REAL TIME  *         6.76 SEC
 DISK USED  *       136.33 MB      
 **********************************************************************************************************************************


 PROGRAM * RHF-SCF (OPEN SHELL)       Authors: W. Meyer, H.-J. Werner


 NUMBER OF ELECTRONS:      10+    7-    SPACE SYMMETRY=6    SPIN SYMMETRY: Quartet 
 CONVERGENCE THRESHOLDS:    1.00E-05 (Density)    1.00E-07 (Energy)
 MAX. NUMBER OF ITERATIONS:       60
 INTERPOLATION TYPE:            DIIS
 INTERPOLATION STEPS:              2 (START)      1 (STEP)
 LEVEL SHIFTS:                 -0.60 (CLOSED) -0.30 (OPEN) 

 Number of closed-shell orbitals:    7 (   3   1   1   0   1   1   0   0 )
 Number of open-shell orbitals:      3 (   1   0   0   1   0   0   1   0 )


 
 Extra symmetries of mos in symmetry 1:   1   1   3   2

   Atom=CO basis=ECP10MDF_GUESS    lmin=0  lmax=2

 Orbital guess generated from atomic densities. Full valence occupancy:    4   1   1   1   1   1   1   0


 Molecular orbital dump at record        2100.2

 ITERATION    DDIFF          GRAD             ENERGY        2-EL.EN.            DIPOLE MOMENTS         DIIS   ORB.
    1      0.000D+00      0.000D+00      -144.23371073    216.779070    0.00000    0.00000    0.00000    0    start
    2      0.000D+00      0.269D-01      -144.29756475    225.622153    0.00000    0.00000    0.00000    1    diag,B
    3      0.716D-02      0.189D-01      -144.31623624    223.315637    0.00000    0.00000    0.00000    2    diag,B
    4      0.191D-02      0.330D-02      -144.31873942    223.195803    0.00000    0.00000    0.00000    3    diag,B
    5      0.107D-02      0.110D-02      -144.32036749    223.182986    0.00000    0.00000    0.00000    4    diag,B
    6      0.888D-03      0.855D-03      -144.32235613    223.145511    0.00000    0.00000    0.00000    5    diag,B
    7      0.125D-02      0.779D-03      -144.32725643    223.083409    0.00000    0.00000    0.00000    6    fixocc
    8      0.373D-02      0.613D-03      -144.32819247    223.101072    0.00000    0.00000    0.00000    7    diag,B
    9      0.124D-02      0.492D-03      -144.33102660    223.068549    0.00000    0.00000    0.00000    8    diag,B
   10      0.598D-02      0.695D-03      -144.33103277    223.080902    0.00000    0.00000    0.00000    9    orth
   11      0.199D-03      0.509D-03      -144.33120640    223.119588    0.00000    0.00000    0.00000    9    diag,B
   12      0.129D-02      0.126D-03      -144.33122410    223.135815    0.00000    0.00000    0.00000    9    diag,B
   13      0.896D-03      0.466D-04      -144.33122483    223.137411    0.00000    0.00000    0.00000    9    diag,B
   14      0.280D-03      0.268D-04      -144.33122502    223.137436    0.00000    0.00000    0.00000    9    diag,B
   15      0.889D-04      0.657D-05      -144.33122506    223.137932    0.00000    0.00000    0.00000    9    diag,B
   16      0.526D-04      0.532D-05      -144.33122507    223.137864    0.00000    0.00000    0.00000    9    diag,B
   17      0.156D-04      0.834D-06      -144.33122507    223.137824    0.00000    0.00000    0.00000    9    diag,B
   18      0.371D-05      0.498D-06      -144.33122507    223.137806    0.00000    0.00000    0.00000    0    orth

 Final alpha occupancy:   4   1   1   1   1   1   1   0
 Final beta  occupancy:   3   1   1   0   1   1   0   0

 !RHF STATE 1.6 Energy               -144.331225068722
 Nuclear energy                         0.00000000
 One-electron energy                 -255.90012819
 Two-electron energy                  111.56890312
 Virial quotient                       -1.63340314
 !RHF STATE 1.6 Dipole moment           0.00000000     0.00000000     0.00000000
 Dipole moment /Debye                   0.00000000     0.00000000     0.00000000
 

 !RHF expec          <1.6|EKIN|1.6>    88.362279730768
 
 !RHF expec           <1.6|POT|1.6>   -21.147253190422

 ELECTRON ORBITALS
 =================


   Orb  Occ    Energy  Couls-En    Coefficients

                                   1 1s      1 1s      1 1s      1 1s      1 1s      1 1s      1 1s      1 1s      1 3d0     1 3d2+ 
                                   1 3d0     1 3d2+    1 3d0     1 3d2+    1 3d0     1 3d2+    1 3d0     1 3d2+    1 3d0     1 3d2+ 
                                   1 3d0     1 3d2+    1 5g0     1 5g4+    1 5g2+    1 5g0     1 5g4+    1 5g2+    1 5g0     1 5g4+ 
                                   1 5g2+ 

   1.1   2    -4.6571  -23.9239  0.999944  0.000095  0.000100  0.000101 -0.000028 -0.000020  0.000325 -0.000278 -0.000000  0.000000
                                 0.000000 -0.000000 -0.000000 -0.000000 -0.000000  0.000000  0.000000 -0.000000  0.000000  0.000000
                                -0.000000  0.000000 -0.000230  0.000583  0.001028 -0.000041  0.000104  0.000183 -0.000048  0.000121
                                 0.000213

   2.1   2    -0.2713   -6.4621 -0.000133  0.999977 -0.000585  0.000002  0.000016  0.000040  0.000280 -0.000242  0.000056 -0.000031
                                -0.000002  0.000004 -0.000001  0.000003 -0.000000  0.000001  0.000003 -0.000011  0.000000 -0.000002
                                -0.000000  0.000001 -0.000001  0.000003  0.000005 -0.000046  0.000116  0.000205  0.000020 -0.000049
                                -0.000087

   3.1   2    -0.6223  -14.8052  0.000000  0.000001  0.000001 -0.000000  0.000000 -0.000000  0.000000 -0.000000  0.500444  0.866768
                                -0.027549 -0.047717 -0.009891 -0.017133 -0.001456 -0.002522 -0.003444 -0.005963  0.000087  0.000152
                                -0.000227 -0.000394 -0.000565 -0.000401  0.000101 -0.000104 -0.000074  0.000019 -0.000079 -0.000056
                                 0.000014

   4.1   +    -0.7200  -15.0883  0.000001 -0.000065 -0.000002 -0.000000 -0.000000 -0.000000 -0.000000  0.000000  0.863740 -0.498696
                                -0.075952  0.043853 -0.024105  0.013918 -0.001253  0.000723 -0.002119  0.001224  0.000028 -0.000016
                                 0.000336 -0.000194 -0.000587  0.000694 -0.000524 -0.000328  0.000388 -0.000293 -0.000014  0.000016
                                -0.000012

                                   1 2px     1 2px     1 2px     1 2px     1 2px     1 2px     1 2px     1 2px     1 4f1+    1 4f3+ 
                                   1 4f1+    1 4f3+    1 4f1+    1 4f3+    1 4f1+    1 4f3+    1 6h1+    1 6h3+    1 6h5+    1 6h1+ 
                                   1 6h3+    1 6h5+ 

   1.2   2    -3.0427  -20.5675  1.000442  0.015142  0.012685 -0.000829 -0.000932 -0.004815 -0.000044  0.000008  0.002877  0.001238
                                 0.004185  0.001801  0.001787  0.000769 -0.000036 -0.000016  0.000119 -0.000147 -0.000127  0.000066
                                -0.000084 -0.000068

                                   1 2py     1 2py     1 2py     1 2py     1 2py     1 2py     1 2py     1 2py     1 4f1-    1 4f3- 
                                   1 4f1-    1 4f3-    1 4f1-    1 4f3-    1 4f1-    1 4f3-    1 6h1-    1 6h3-    1 6h5-    1 6h1- 
                                   1 6h3-    1 6h5- 

   1.3   2    -3.0427  -20.5675  1.000442  0.015142  0.012685 -0.000829 -0.000932 -0.004815 -0.000045  0.000008 -0.001918 -0.002476
                                -0.002790 -0.003602 -0.001191 -0.001538  0.000024  0.000031 -0.000034 -0.000191 -0.000118 -0.000021
                                -0.000105 -0.000068

                                   1 3d2-    1 3d2-    1 3d2-    1 3d2-    1 3d2-    1 3d2-    1 3d2-    1 5g2-    1 5g4-    1 5g2- 
                                   1 5g4-    1 5g2-    1 5g4- 

   1.4   +    -0.7200  -15.0883  0.997369 -0.087703 -0.027835 -0.001447 -0.002446  0.000032  0.000388 -0.000787  0.000694 -0.000440
                                 0.000388 -0.000018  0.000016

                                   1 2pz     1 2pz     1 2pz     1 2pz     1 2pz     1 2pz     1 2pz     1 2pz     1 4f0     1 4f2+ 
                                   1 4f0     1 4f2+    1 4f0     1 4f2+    1 4f0     1 4f2+    1 6h2+    1 6h4+    1 6h0     1 6h2+ 
                                   1 6h4+    1 6h0  

   1.5   2    -3.0427  -20.5675  1.000442  0.015142  0.012685 -0.000829 -0.000932 -0.004815 -0.000045  0.000008 -0.000783  0.003033
                                -0.001139  0.004411 -0.000486  0.001884  0.000010 -0.000038 -0.000211 -0.000073  0.000045 -0.000116
                                -0.000043  0.000028

                                   1 3d1+    1 3d1+    1 3d1+    1 3d1+    1 3d1+    1 3d1+    1 3d1+    1 5g1+    1 5g3+    1 5g1+ 
                                   1 5g3+    1 5g1+    1 5g3+ 

   1.6   2    -0.6223  -14.8052  1.000865 -0.055098 -0.019783 -0.002912 -0.006885  0.000175 -0.000455  0.000247  0.000655  0.000045
                                 0.000120  0.000035  0.000091

                                   1 3d1-    1 3d1-    1 3d1-    1 3d1-    1 3d1-    1 3d1-    1 3d1-    1 5g1-    1 5g3-    1 5g1- 
                                   1 5g3-    1 5g1-    1 5g3- 

   1.7   +    -0.7200  -15.0883  0.997369 -0.087703 -0.027835 -0.001447 -0.002446  0.000032  0.000388  0.000927 -0.000490  0.000519
                                -0.000274  0.000022 -0.000012

 HOMO      1.6    -0.622304 =     -16.9337eV
 LUMO      2.2     0.041540 =       1.1304eV
 LUMO-HOMO         0.663843 =      18.0641eV


 **********************************************************************************************************************************
 DATASETS  * FILE   NREC   LENGTH (MB)   RECORD NAMES
              1      20       51.35       500      610      700      900      950      970     1000      129      960     1100   
                                          VAR    BASINP    GEOM    SYMINP    ZMAT    AOBASIS   BASIS     P2S    ABASIS      S 
                                         1400     1410     1420     1200     1210     1080     1600     1650     1300     1700   
                                         EKIN       V       ECP      H0       H01     AOSYM     SMH    MOLCAS    ERIS     OPER   

              2       4        2.86       700     1000      520     2100   
                                         GEOM     BASIS   MCVARS     RHF  

 PROGRAMS   *        TOTAL        HF       INT
 CPU TIMES  *         4.98      0.51      4.25
 REAL TIME  *         7.61 SEC
 DISK USED  *       136.33 MB      
 **********************************************************************************************************************************
 SETTING SCF(I)         =      -144.33122507  AU                              
 SETTING _CC_NORM_MAX   =         2.00000000                                  


 PROGRAM * CCSD (Unrestricted open-shell coupled cluster)     Authors: C. Hampel, H.-J. Werner, 1991, M. Deegan, P.J. Knowles, 1992


 Convergence thresholds:  THRVAR = 1.00D-08  THRDEN = 1.00D-06

 CCSD(T)     terms to be evaluated (factor= 1.000)


 Number of closed-shell orbitals:   7 (   3   1   1   0   1   1   0   0 )
 Number of active  orbitals:        3 (   1   0   0   1   0   0   1   0 )
 Number of external orbitals:     134 (  27  21  21  12  21  12  12   8 )

 Memory could be reduced to 6.59 Mwords without degradation in triples

 Number of N-1 electron functions:              17
 Number of N-2 electron functions:             136
 Number of singly external CSFs:               372
 Number of doubly external CSFs:            246358
 Total number of CSFs:                      246730

 Molecular orbitals read from record     2100.2  Type=RHF/CANONICAL (state 1.6)

 Integral transformation finished. Total CPU:   0.16 sec, npass=  1  Memory used:   1.37 MW

 Starting RMP2 calculation

 ITER.      SQ.NORM     CORR.ENERGY   TOTAL ENERGY   ENERGY CHANGE        DEN1      VAR(S)    VAR(P)  DIIS     TIME
   1      1.10580357    -0.76387666  -145.09510173    -0.76387666    -0.00115652  0.23D-04  0.74D-03  1  1     0.18
   2      1.10776806    -0.76509217  -145.09631724    -0.00121551    -0.00001898  0.93D-06  0.18D-04  2  2     0.18
   3      1.10810586    -0.76522023  -145.09644530    -0.00012805    -0.00000016  0.24D-07  0.14D-06  3  3     0.19
   4      1.10813027    -0.76522690  -145.09645197    -0.00000668    -0.00000000  0.77D-09  0.12D-08  4  4     0.20
   5      1.10813059    -0.76522679  -145.09645186     0.00000011    -0.00000000  0.19D-10  0.11D-10  5  5     0.22

 Norm of t1 vector:      0.04442678      S-energy:    -0.00764376      T1 diagnostic:  0.00017043
 Norm of t2 vector:      0.32581721      P-energy:    -0.75758303
                                         Alpha-Beta:  -0.53410770
                                         Alpha-Alpha: -0.15584904
                                         Beta-Beta:   -0.06762630

 Spin contamination <S**2-Sz**2-Sz>     0.00690875
  Reference energy                   -144.331225068722
  RHF-RMP2 correlation energy          -0.765226790470
 !RHF-RMP2 energy                    -145.096451859192

 Starting UCCSD calculation

 ITER.      SQ.NORM     CORR.ENERGY   TOTAL ENERGY   ENERGY CHANGE        DEN1      VAR(S)    VAR(P)  DIIS     TIME
   1      1.10402469    -0.72748370  -145.05870877    -0.72748370    -0.01884000  0.40D-02  0.36D-02  1  1     0.68
   2      1.11818901    -0.74291783  -145.07414290    -0.01543413    -0.00186357  0.57D-03  0.82D-03  2  2     1.13
   3      1.12787967    -0.74536099  -145.07658605    -0.00244315    -0.00035191  0.20D-03  0.13D-03  3  3     1.57
   4      1.13377139    -0.74699130  -145.07821637    -0.00163032    -0.00004904  0.25D-04  0.19D-04  4  4     2.03
   5      1.13667939    -0.74755870  -145.07878377    -0.00056740    -0.00000332  0.15D-05  0.11D-05  5  5     2.48
   6      1.13710718    -0.74761485  -145.07883992    -0.00005614    -0.00000051  0.65D-07  0.25D-06  6  6     2.92
   7      1.13718615    -0.74762710  -145.07885217    -0.00001225    -0.00000013  0.97D-08  0.69D-07  6  1     3.39
   8      1.13719782    -0.74762816  -145.07885323    -0.00000106    -0.00000003  0.89D-08  0.15D-07  6  5     3.85
   9      1.13717261    -0.74762522  -145.07885029     0.00000294    -0.00000001  0.10D-08  0.41D-08  6  2     4.30
  10      1.13716905    -0.74762535  -145.07885042    -0.00000013    -0.00000000  0.84D-10  0.67D-09  6  4     4.75

 Norm of t1 vector:      0.12584679      S-energy:    -0.00801912      T1 diagnostic:  0.01877544
                                                                       D1 diagnostic:  0.06517628
 Norm of t2 vector:      0.34832691      P-energy:    -0.73960624
                                         Alpha-Beta:  -0.53914308
                                         Alpha-Alpha: -0.13894030
                                         Beta-Beta:   -0.06152286

 Singles amplitudes (print threshold =  0.500E-01):

         I         SYM. A    A   T(IA) [Alpha-Alpha]

         2         1         2     -0.06958229
         2         1         5      0.05692919

 Doubles amplitudes (print threshold =  0.500E-01):

         I         J         SYM. A    SYM. B    A         B      T(IJ, AB) [Alpha-Beta]

         2         2         2         2         1         1     -0.07150081
         2         2         2         2         1         2     -0.05126435
         2         2         2         2         2         1     -0.05409059
         2         2         3         3         1         1     -0.07150225
         2         2         3         3         1         2     -0.05126559
         2         2         3         3         2         1     -0.05409180
         2         2         5         5         1         1     -0.07150337
         2         2         5         5         1         2     -0.05126680
         2         2         5         5         2         1     -0.05409298

 Spin contamination <S**2-Sz**2-Sz>     0.00664952

 Memory could be reduced to 7.08 Mwords without degradation in triples
 

  Correlated core orbitals:             1.1       1.2       1.3       1.5
  Orbital energies:                    -4.8041   -3.2200   -3.2200   -3.2200
 
  UCCSD core-core energy               -0.152482159359
  UCCSD core-valence energy            -0.327024225008
  UCCSD valence correlation energy     -0.268118968022
 

 RESULTS
 =======

  Reference energy                   -144.331225068722
  UCCSD singles energy                 -0.008019117309
  UCCSD pair energy                    -0.739606235080
  UCCSD correlation energy             -0.747625352389
  Triples (T) contribution             -0.021905159369
  Total correlation energy             -0.769530511758
 
  RHF-UCCSD energy                   -145.078850421110
  RHF-UCCSD[T] energy                -145.101858324040
  RHF-UCCSD-T energy                 -145.100483736725
 !RHF-UCCSD(T) energy                -145.100755580480

 Program statistics:

 Available memory in ccsd:               511999000
 Min. memory needed in ccsd:                764399
 Max. memory used in ccsd:                 1061978
 Max. memory used in cckext:                860587 (10 integral passes)
 Max. memory used in cckint:               1373681 ( 1 integral passes)



 **********************************************************************************************************************************
 DATASETS  * FILE   NREC   LENGTH (MB)   RECORD NAMES
              1      20       51.35       500      610      700      900      950      970     1000      129      960     1100   
                                          VAR    BASINP    GEOM    SYMINP    ZMAT    AOBASIS   BASIS     P2S    ABASIS      S 
                                         1400     1410     1420     1200     1210     1080     1600     1650     1300     1700   
                                         EKIN       V       ECP      H0       H01     AOSYM     SMH    MOLCAS    ERIS     OPER   

              2       4        2.86       700     1000      520     2100   
                                         GEOM     BASIS   MCVARS     RHF  

 PROGRAMS   *        TOTAL  UCCSD(T)        HF       INT
 CPU TIMES  *        18.68     13.69      0.51      4.25
 REAL TIME  *        28.00 SEC
 DISK USED  *       177.65 MB      
 **********************************************************************************************************************************
 SETTING POSTHF(I)      =      -145.10075558  AU                              
                                                                                                                                                                                                                                                                

         SCF            POSTHF       EKIN           POT
    -144.3312251   -145.1007556   88.36227973   -21.14725319
                                                  

 UCCSD(T)/USERDEF energy=   -145.100755580480

        UCCSD(T)        HF-SCF  
   -145.10075558   -144.33122507
 **********************************************************************************************************************************
 Variable memory released
