
 Primary working directories    : /global/cscratch1/sd/aannabe
 Secondary working directories  : /global/cscratch1/sd/aannabe
 Wavefunction directory         : /global/homes/a/aannabe/wfu/
 Main file repository           : /global/cscratch1/sd/aannabe/

 SHA1      : 2873118e99aab1bc19f5b6fc1784693c06d15c95
 NAME      : 2015.1.8
 ARCHNAME  : linux/x86_64
 FC        : /opt/cray/pe/craype/2.5.5/bin/ftn
 BLASLIB   : -Wl,-_start-group /opt/intel/compilers_and_libraries_2016.3.210/linux/mkl/lib/intel64/libmkl_intel_ilp64.a /opt/intel/compilers_and_libraries_2016.3.210/linux/mkl/lib/intel64/libmkl_intel_thread.a /opt/intel/compilers_and_libraries_2016.3.210/linux/mkl/lib/intel64/libmkl_core.a -Wl,-_end-group
 id        : lbl

 Nodes     nprocs
 nid01149     1

 Using customized tuning parameters: mindgm=8; mindgv=16; mindgc=4; mindgr=1; noblas=0; minvec=7
 default implementation of scratch files=df  

 ***,Co
 memory,512,m
 gthresh,twoint=1.e-12
 
 gprint,basis,orbitals
 gexpec,ekin,pot
 
 angstrom
 geometry={
 1                                                                               ! Number of atoms
 Co 0.0 0.0 0.0
 }
 
 basis={
 Including file /global/homes/a/aannabe/docs/accurate/ccECP_D2h/pps/Co.pp
 Including file /global/homes/a/aannabe/docs/accurate/ccECP_D2h/basis/aug-cc-pVnZ/Co_qz.basis
 }
 
 {hf
 wf,17,6,3
 occ,4,1,1,1,1,1,1,0
 closed,3,1,1,0,1,1,0,0
                                                                                 !open,4.1,1.7,1.4
 sym,1,1,1,3,2
 }
 scf(i)=energy
 
 _CC_NORM_MAX=2.0
 {uccsd(t)
 maxit,100
 core
 }
 posthf(i)=energy
 
 table,scf,posthf,ekin,pot
 save,4.csv,new
 
 

 Variables initialized (889), CPU time= 0.01 sec
 Commands  initialized (702), CPU time= 0.01 sec, 572 directives.
 Default parameters read. Elapsed time= 0.16 sec

 Checking input...
 Passed
1


                                         ***  PROGRAM SYSTEM MOLPRO  ***
                                       Copyright, TTI GmbH Stuttgart, 2015
                                    Version 2015.1 linked Sep  7 2016 23:09:38


 **********************************************************************************************************************************
 LABEL *   Co                                                                            
  64 bit serial version                                                                  DATE: 28-Oct-18          TIME: 14:36:53  
 **********************************************************************************************************************************

 SHA1:             2873118e99aab1bc19f5b6fc1784693c06d15c95
 **********************************************************************************************************************************

 THRESHOLDS:

 ZERO    =  1.00D-12  ONEINT  =  1.00D-12  TWOINT  =  1.00D-12  PREFAC  =  1.00D-14  LOCALI  =  1.00D-09  EORDER  =  1.00D-04
 ENERGY  =  0.00D+00  ETEST   =  0.00D+00  EDENS   =  0.00D+00  THRDEDEF=  1.00D-06  GRADIENT=  1.00D-02  STEP    =  1.00D-03
 ORBITAL =  1.00D-05  CIVEC   =  1.00D-05  COEFF   =  1.00D-04  PRINTCI =  5.00D-02  PUNCHCI =  9.90D+01  OPTGRAD =  3.00D-04
 OPTENERG=  1.00D-06  OPTSTEP =  3.00D-04  THRGRAD =  1.00D-10  COMPRESS=  1.00D-11  VARMIN  =  1.00D-07  VARMAX  =  1.00D-03
 THRDOUB =  0.00D+00  THRDIV  =  1.00D-05  THRRED  =  1.00D-07  THRPSP  =  1.00D+00  THRDC   =  1.00D-10  THRCS   =  1.00D-10
 THRNRM  =  1.00D-08  THREQ   =  0.00D+00  THRDE   =  1.00D+00  THRREF  =  1.00D-05  SPARFAC =  1.00D+00  THRDLP  =  1.00D-07
 THRDIA  =  1.00D-10  THRDLS  =  1.00D-07  THRGPS  =  0.00D+00  THRKEX  =  0.00D+00  THRDIS  =  2.00D-01  THRVAR  =  1.00D-10
 THRLOC  =  1.00D-06  THRGAP  =  1.00D-06  THRLOCT = -1.00D+00  THRGAPT = -1.00D+00  THRORB  =  1.00D-06  THRMLTP =  0.00D+00
 THRCPQCI=  1.00D-10  KEXTA   =  0.00D+00  THRCOARS=  0.00D+00  SYMTOL  =  1.00D-06  GRADTOL =  1.00D-06  THROVL  =  1.00D-08
 THRORTH =  1.00D-08  GRID    =  1.00D-06  GRIDMAX =  1.00D-03  DTMAX   =  0.00D+00  THROCCDE=  1.00D-01  THROCCDE=  1.00D-01



 ZUNIT=ANG
 

Geometry recognized as XYZ


 Variable memory set to  512000000 words,  buffer space   230000 words

 SETTING BASIS          =    USERDEF


 Recomputing integrals since basis changed


 Using spherical harmonics



 PROGRAM * SEWARD (Integral evaluation for generally contracted gaussian basis sets)     Author: Roland Lindh, 1990

 Geometry written to block  1 of record 700

 Orientation using atomic masses  
 Molecule type: Atom
 Symmetry elements: X,Y,Z
 Rotational constants:       0.0000000      0.0000000      0.0000000 GHz  (calculated with average atomic masses)

 Point group  D2h 



 ATOMIC COORDINATES

 NR  ATOM    CHARGE       X              Y              Z

   1  CO     17.00    0.000000000    0.000000000    0.000000000


          CO  CORE POTENTIAL

          d POTENTIAL

 POWERS             1              3              2              2
 EXPONENTIALS   25.00124       22.83490       23.47468       10.33795    
 COEFFICIENTS   17.00000       425.0211      -195.4821      -2.815729    

          s - d POTENTIAL

 POWERS             2              2
 EXPONENTIALS   23.41427       10.76932    
 COEFFICIENTS   271.7771       54.26461    

          p - d POTENTIAL

 POWERS             2              2
 EXPONENTIALS   25.47446       10.68405    
 COEFFICIENTS   201.5343       38.99232    


 BASIS DATA

   Nr Sym  Nuc  Type         Exponents   Contraction coefficients

    1.1 Ag    1  1s          90.663831     0.000774   -0.000154   -0.000047   -0.000231    0.002809    0.000000
    2.1 Ag                   46.961414    -0.011316    0.002525    0.003654    0.007536   -0.024459    0.000000
    3.1 Ag                   24.110274     0.101209   -0.024443   -0.046132   -0.097298    0.211717    0.000000
    4.1 Ag                   14.430881    -0.081642    0.022200    0.036483    0.111611   -0.387452    0.000000
    5.1 Ag                    8.757423    -0.354812    0.088416    0.217265    0.403621   -0.366909    0.000000
    6.1 Ag                    4.484459    -0.090362    0.016820   -0.011883   -0.048324    0.139143    0.000000
                              2.519739     0.498174   -0.134582   -0.324688   -1.157600    2.834527    0.000000
                              1.236850     0.604123   -0.231295   -0.680581   -0.756839   -2.906398    0.000000
                              0.601882     0.190775   -0.163986    0.256936    2.313683   -0.806896    0.000000
                              0.223338     0.006578    0.121337    1.224005    0.253074    4.336055    0.000000
                              0.123422    -0.000905    0.402414    0.236837   -1.991466   -2.913607    0.000000
                              0.059941     0.000171    0.506113   -0.604064    0.166942   -1.253307    0.000000
                              0.027978    -0.000025    0.145436   -0.574947    0.917221    1.509572    1.000000
    7.1 Ag    1  1s           0.013000     1.000000
    8.1 Ag    1  3d0        160.444504     0.000034
                             52.598830     0.006553
                             27.491581     0.036185
                             12.745988     0.083026
                              6.184310     0.176960
                              3.029146     0.263990
                              1.474099     0.292447
                              0.714391     0.249597
                              0.348520     0.171637
                              0.174166     0.080649
                              0.087891     0.041212
    9.1 Ag    1  3d2+       160.444504     0.000034
                             52.598830     0.006553
                             27.491581     0.036185
                             12.745988     0.083026
                              6.184310     0.176960
                              3.029146     0.263990
                              1.474099     0.292447
                              0.714391     0.249597
                              0.348520     0.171637
                              0.174166     0.080649
                              0.087891     0.041212
   10.1 Ag    1  3d0        160.444504    -0.000031
                             52.598830    -0.007869
                             27.491581    -0.041992
                             12.745988    -0.101388
                              6.184310    -0.216996
                              3.029146    -0.283962
                              1.474099    -0.127179
                              0.714391     0.177125
                              0.348520     0.375596
                              0.174166     0.284631
                              0.087891     0.200277
   11.1 Ag    1  3d2+       160.444504    -0.000031
                             52.598830    -0.007869
                             27.491581    -0.041992
                             12.745988    -0.101388
                              6.184310    -0.216996
                              3.029146    -0.283962
                              1.474099    -0.127179
                              0.714391     0.177125
                              0.348520     0.375596
                              0.174166     0.284631
                              0.087891     0.200277
   12.1 Ag    1  3d0        160.444504     0.000048
                             52.598830     0.010531
                             27.491581     0.055559
                             12.745988     0.140758
                              6.184310     0.305785
                              3.029146     0.242812
                              1.474099    -0.285044
                              0.714391    -0.594819
                              0.348520    -0.017937
                              0.174166     0.348150
                              0.087891     0.455170
   13.1 Ag    1  3d2+       160.444504     0.000048
                             52.598830     0.010531
                             27.491581     0.055559
                             12.745988     0.140758
                              6.184310     0.305785
                              3.029146     0.242812
                              1.474099    -0.285044
                              0.714391    -0.594819
                              0.348520    -0.017937
                              0.174166     0.348150
                              0.087891     0.455170
   14.1 Ag    1  3d0        160.444504    -0.000070
                             52.598830    -0.015269
                             27.491581    -0.078770
                             12.745988    -0.218556
                              6.184310    -0.479271
                              3.029146     0.173623
                              1.474099     0.954173
                              0.714391    -0.348490
                              0.348520    -0.737371
                              0.174166     0.071941
                              0.087891     0.644882
   15.1 Ag    1  3d2+       160.444504    -0.000070
                             52.598830    -0.015269
                             27.491581    -0.078770
                             12.745988    -0.218556
                              6.184310    -0.479271
                              3.029146     0.173623
                              1.474099     0.954173
                              0.714391    -0.348490
                              0.348520    -0.737371
                              0.174166     0.071941
                              0.087891     0.644882
   16.1 Ag    1  3d0        160.444504     0.000000
                             52.598830     0.000000
                             27.491581     0.000000
                             12.745988     0.000000
                              6.184310     0.000000
                              3.029146     0.000000
                              1.474099     0.000000
                              0.714391     0.000000
                              0.348520     0.000000
                              0.174166     0.000000
                              0.087891     1.000000
   17.1 Ag    1  3d2+       160.444504     0.000000
                             52.598830     0.000000
                             27.491581     0.000000
                             12.745988     0.000000
                              6.184310     0.000000
                              3.029146     0.000000
                              1.474099     0.000000
                              0.714391     0.000000
                              0.348520     0.000000
                              0.174166     0.000000
                              0.087891     1.000000
   18.1 Ag    1  3d0          0.043000     1.000000
   19.1 Ag    1  3d2+         0.043000     1.000000
   20.1 Ag    1  5g0          0.375999     1.000000
   21.1 Ag    1  5g4+         0.375999     1.000000
   22.1 Ag    1  5g2+         0.375999     1.000000
   23.1 Ag    1  5g0          1.312433     1.000000
   24.1 Ag    1  5g4+         1.312433     1.000000
   25.1 Ag    1  5g2+         1.312433     1.000000
   26.1 Ag    1  5g0          4.581075     1.000000
   27.1 Ag    1  5g4+         4.581075     1.000000
   28.1 Ag    1  5g2+         4.581075     1.000000
    1.2 B3u   1  2px        139.038145     0.000075    0.000025   -0.000238   -0.000055    0.000052    0.000000
    2.2 B3u                  71.928971    -0.000627   -0.000084    0.001489   -0.000017    0.000144    0.000000
    3.2 B3u                  37.806311     0.005719   -0.000485   -0.008723    0.004320   -0.005065    0.000000
    4.2 B3u                  21.054252    -0.009310    0.000095    0.024538   -0.021339    0.051662    0.000000
    5.2 B3u                  12.973193    -0.083857    0.022402    0.060856   -0.127134    0.209306    0.000000
    6.2 B3u                   6.791461     0.012394   -0.011534   -0.020380    0.157208   -0.636052    0.000000
                              3.794018     0.281987   -0.056866   -0.430195    0.794927   -1.334761    0.000000
                              1.960649     0.434179   -0.126070   -0.407692    0.233574    2.337409    0.000000
                              1.006283     0.313409   -0.060889    0.085326   -1.666033    0.190624    0.000000
                              0.509539     0.089778   -0.035086    1.073326    0.282716   -2.657841    0.000000
                              0.233091     0.007405    0.351847    0.015067    1.335625    2.264444    0.000000
                              0.083890     0.000980    0.510449   -0.719631   -0.885469   -0.612584    0.000000
                              0.039802     0.000274    0.289707   -0.024603   -0.130340   -0.276620    1.000000
    7.2 B3u   1  2px          0.019000     1.000000
    8.2 B3u   1  4f1+         0.173088     1.000000
    9.2 B3u   1  4f3+         0.173088     1.000000
   10.2 B3u   1  4f1+         0.574342     1.000000
   11.2 B3u   1  4f3+         0.574342     1.000000
   12.2 B3u   1  4f1+         1.905783     1.000000
   13.2 B3u   1  4f3+         1.905783     1.000000
   14.2 B3u   1  4f1+         6.323772     1.000000
   15.2 B3u   1  4f3+         6.323772     1.000000
   16.2 B3u   1  6h1+         1.061794     1.000000
   17.2 B3u   1  6h3+         1.061794     1.000000
   18.2 B3u   1  6h5+         1.061794     1.000000
   19.2 B3u   1  6h1+         2.901601     1.000000
   20.2 B3u   1  6h3+         2.901601     1.000000
   21.2 B3u   1  6h5+         2.901601     1.000000
    1.3 B2u   1  2py        139.038145     0.000075    0.000025   -0.000238   -0.000055    0.000052    0.000000
    2.3 B2u                  71.928971    -0.000627   -0.000084    0.001489   -0.000017    0.000144    0.000000
    3.3 B2u                  37.806311     0.005719   -0.000485   -0.008723    0.004320   -0.005065    0.000000
    4.3 B2u                  21.054252    -0.009310    0.000095    0.024538   -0.021339    0.051662    0.000000
    5.3 B2u                  12.973193    -0.083857    0.022402    0.060856   -0.127134    0.209306    0.000000
    6.3 B2u                   6.791461     0.012394   -0.011534   -0.020380    0.157208   -0.636052    0.000000
                              3.794018     0.281987   -0.056866   -0.430195    0.794927   -1.334761    0.000000
                              1.960649     0.434179   -0.126070   -0.407692    0.233574    2.337409    0.000000
                              1.006283     0.313409   -0.060889    0.085326   -1.666033    0.190624    0.000000
                              0.509539     0.089778   -0.035086    1.073326    0.282716   -2.657841    0.000000
                              0.233091     0.007405    0.351847    0.015067    1.335625    2.264444    0.000000
                              0.083890     0.000980    0.510449   -0.719631   -0.885469   -0.612584    0.000000
                              0.039802     0.000274    0.289707   -0.024603   -0.130340   -0.276620    1.000000
    7.3 B2u   1  2py          0.019000     1.000000
    8.3 B2u   1  4f1-         0.173088     1.000000
    9.3 B2u   1  4f3-         0.173088     1.000000
   10.3 B2u   1  4f1-         0.574342     1.000000
   11.3 B2u   1  4f3-         0.574342     1.000000
   12.3 B2u   1  4f1-         1.905783     1.000000
   13.3 B2u   1  4f3-         1.905783     1.000000
   14.3 B2u   1  4f1-         6.323772     1.000000
   15.3 B2u   1  4f3-         6.323772     1.000000
   16.3 B2u   1  6h1-         1.061794     1.000000
   17.3 B2u   1  6h3-         1.061794     1.000000
   18.3 B2u   1  6h5-         1.061794     1.000000
   19.3 B2u   1  6h1-         2.901601     1.000000
   20.3 B2u   1  6h3-         2.901601     1.000000
   21.3 B2u   1  6h5-         2.901601     1.000000
    1.4 B1g   1  3d2-       160.444504     0.000034   -0.000031    0.000048   -0.000070    0.000000
    2.4 B1g                  52.598830     0.006553   -0.007869    0.010531   -0.015269    0.000000
    3.4 B1g                  27.491581     0.036185   -0.041992    0.055559   -0.078770    0.000000
    4.4 B1g                  12.745988     0.083026   -0.101388    0.140758   -0.218556    0.000000
    5.4 B1g                   6.184310     0.176960   -0.216996    0.305785   -0.479271    0.000000
                              3.029146     0.263990   -0.283962    0.242812    0.173623    0.000000
                              1.474099     0.292447   -0.127179   -0.285044    0.954173    0.000000
                              0.714391     0.249597    0.177125   -0.594819   -0.348490    0.000000
                              0.348520     0.171637    0.375596   -0.017937   -0.737371    0.000000
                              0.174166     0.080649    0.284631    0.348150    0.071941    0.000000
                              0.087891     0.041212    0.200277    0.455170    0.644882    1.000000
    6.4 B1g   1  3d2-         0.043000     1.000000
    7.4 B1g   1  5g2-         0.375999     1.000000
    8.4 B1g   1  5g4-         0.375999     1.000000
    9.4 B1g   1  5g2-         1.312433     1.000000
   10.4 B1g   1  5g4-         1.312433     1.000000
   11.4 B1g   1  5g2-         4.581075     1.000000
   12.4 B1g   1  5g4-         4.581075     1.000000
    1.5 B1u   1  2pz        139.038145     0.000075    0.000025   -0.000238   -0.000055    0.000052    0.000000
    2.5 B1u                  71.928971    -0.000627   -0.000084    0.001489   -0.000017    0.000144    0.000000
    3.5 B1u                  37.806311     0.005719   -0.000485   -0.008723    0.004320   -0.005065    0.000000
    4.5 B1u                  21.054252    -0.009310    0.000095    0.024538   -0.021339    0.051662    0.000000
    5.5 B1u                  12.973193    -0.083857    0.022402    0.060856   -0.127134    0.209306    0.000000
    6.5 B1u                   6.791461     0.012394   -0.011534   -0.020380    0.157208   -0.636052    0.000000
                              3.794018     0.281987   -0.056866   -0.430195    0.794927   -1.334761    0.000000
                              1.960649     0.434179   -0.126070   -0.407692    0.233574    2.337409    0.000000
                              1.006283     0.313409   -0.060889    0.085326   -1.666033    0.190624    0.000000
                              0.509539     0.089778   -0.035086    1.073326    0.282716   -2.657841    0.000000
                              0.233091     0.007405    0.351847    0.015067    1.335625    2.264444    0.000000
                              0.083890     0.000980    0.510449   -0.719631   -0.885469   -0.612584    0.000000
                              0.039802     0.000274    0.289707   -0.024603   -0.130340   -0.276620    1.000000
    7.5 B1u   1  2pz          0.019000     1.000000
    8.5 B1u   1  4f0          0.173088     1.000000
    9.5 B1u   1  4f2+         0.173088     1.000000
   10.5 B1u   1  4f0          0.574342     1.000000
   11.5 B1u   1  4f2+         0.574342     1.000000
   12.5 B1u   1  4f0          1.905783     1.000000
   13.5 B1u   1  4f2+         1.905783     1.000000
   14.5 B1u   1  4f0          6.323772     1.000000
   15.5 B1u   1  4f2+         6.323772     1.000000
   16.5 B1u   1  6h2+         1.061794     1.000000
   17.5 B1u   1  6h4+         1.061794     1.000000
   18.5 B1u   1  6h0          1.061794     1.000000
   19.5 B1u   1  6h2+         2.901601     1.000000
   20.5 B1u   1  6h4+         2.901601     1.000000
   21.5 B1u   1  6h0          2.901601     1.000000
    1.6 B2g   1  3d1+       160.444504     0.000034   -0.000031    0.000048   -0.000070    0.000000
    2.6 B2g                  52.598830     0.006553   -0.007869    0.010531   -0.015269    0.000000
    3.6 B2g                  27.491581     0.036185   -0.041992    0.055559   -0.078770    0.000000
    4.6 B2g                  12.745988     0.083026   -0.101388    0.140758   -0.218556    0.000000
    5.6 B2g                   6.184310     0.176960   -0.216996    0.305785   -0.479271    0.000000
                              3.029146     0.263990   -0.283962    0.242812    0.173623    0.000000
                              1.474099     0.292447   -0.127179   -0.285044    0.954173    0.000000
                              0.714391     0.249597    0.177125   -0.594819   -0.348490    0.000000
                              0.348520     0.171637    0.375596   -0.017937   -0.737371    0.000000
                              0.174166     0.080649    0.284631    0.348150    0.071941    0.000000
                              0.087891     0.041212    0.200277    0.455170    0.644882    1.000000
    6.6 B2g   1  3d1+         0.043000     1.000000
    7.6 B2g   1  5g1+         0.375999     1.000000
    8.6 B2g   1  5g3+         0.375999     1.000000
    9.6 B2g   1  5g1+         1.312433     1.000000
   10.6 B2g   1  5g3+         1.312433     1.000000
   11.6 B2g   1  5g1+         4.581075     1.000000
   12.6 B2g   1  5g3+         4.581075     1.000000
    1.7 B3g   1  3d1-       160.444504     0.000034   -0.000031    0.000048   -0.000070    0.000000
    2.7 B3g                  52.598830     0.006553   -0.007869    0.010531   -0.015269    0.000000
    3.7 B3g                  27.491581     0.036185   -0.041992    0.055559   -0.078770    0.000000
    4.7 B3g                  12.745988     0.083026   -0.101388    0.140758   -0.218556    0.000000
    5.7 B3g                   6.184310     0.176960   -0.216996    0.305785   -0.479271    0.000000
                              3.029146     0.263990   -0.283962    0.242812    0.173623    0.000000
                              1.474099     0.292447   -0.127179   -0.285044    0.954173    0.000000
                              0.714391     0.249597    0.177125   -0.594819   -0.348490    0.000000
                              0.348520     0.171637    0.375596   -0.017937   -0.737371    0.000000
                              0.174166     0.080649    0.284631    0.348150    0.071941    0.000000
                              0.087891     0.041212    0.200277    0.455170    0.644882    1.000000
    6.7 B3g   1  3d1-         0.043000     1.000000
    7.7 B3g   1  5g1-         0.375999     1.000000
    8.7 B3g   1  5g3-         0.375999     1.000000
    9.7 B3g   1  5g1-         1.312433     1.000000
   10.7 B3g   1  5g3-         1.312433     1.000000
   11.7 B3g   1  5g1-         4.581075     1.000000
   12.7 B3g   1  5g3-         4.581075     1.000000
    1.8 Au    1  4f2-         0.173088     1.000000
    2.8 Au    1  4f2-         0.574342     1.000000
    3.8 Au    1  4f2-         1.905783     1.000000
    4.8 Au    1  4f2-         6.323772     1.000000
    5.8 Au    1  6h4-         1.061794     1.000000
    6.8 Au    1  6h2-         1.061794     1.000000
    7.8 Au    1  6h4-         2.901601     1.000000
    8.8 Au    1  6h2-         2.901601     1.000000

 NUCLEAR CHARGE:                   17
 NUMBER OF PRIMITIVE AOS:         255
 NUMBER OF SYMMETRY AOS:          193
 NUMBER OF CONTRACTIONS:          135   (  28Ag  +  21B3u +  21B2u +  12B1g +  21B1u +  12B2g +  12B3g +   8Au  )
 NUMBER OF CORE ORBITALS:           4   (   1Ag  +   1B3u +   1B2u +   0B1g +   1B1u +   0B2g +   0B3g +   0Au  )
 NUMBER OF VALENCE ORBITALS:        6   (   3Ag  +   0B3u +   0B2u +   1B1g +   0B1u +   1B2g +   1B3g +   0Au  )


 NUCLEAR REPULSION ENERGY    0.00000000

 EXTRA SYMMETRY OF AOS IN SYMMETRY 1:   1 1 1 1 1 1 1 2 3 2   3 2 3 2 3 2 3 2 3 4   5 6 4 5 6 4 5 6
 EXTRA SYMMETRY OF AOS IN SYMMETRY 2:   1 1 1 1 1 1 1 2 3 2   3 2 3 2 3 4 5 6 4 5   6
 EXTRA SYMMETRY OF AOS IN SYMMETRY 3:   1 1 1 1 1 1 1 2 3 2   3 2 3 2 3 4 5 6 4 5   6
 EXTRA SYMMETRY OF AOS IN SYMMETRY 4:   1 1 1 1 1 1 2 3 2 3   2 3
 EXTRA SYMMETRY OF AOS IN SYMMETRY 5:   1 1 1 1 1 1 1 2 3 2   3 2 3 2 3 4 5 6 4 5   6
 EXTRA SYMMETRY OF AOS IN SYMMETRY 6:   1 1 1 1 1 1 2 3 2 3   2 3
 EXTRA SYMMETRY OF AOS IN SYMMETRY 7:   1 1 1 1 1 1 2 3 2 3   2 3
 EXTRA SYMMETRY OF AOS IN SYMMETRY 8:   1 1 1 1 2 3 2 3

 Eigenvalues of metric

         1 0.103E-02 0.149E-01 0.149E-01 0.845E-01 0.288E+00 0.288E+00 0.500E+00 0.500E+00
         2 0.166E-01 0.306E+00 0.306E+00 0.326E+00 0.546E+00 0.546E+00 0.546E+00 0.654E+00
         3 0.166E-01 0.306E+00 0.306E+00 0.326E+00 0.546E+00 0.546E+00 0.546E+00 0.654E+00
         4 0.149E-01 0.288E+00 0.500E+00 0.500E+00 0.970E+00 0.970E+00 0.985E+00 0.100E+01
         5 0.166E-01 0.306E+00 0.306E+00 0.326E+00 0.546E+00 0.546E+00 0.546E+00 0.654E+00
         6 0.149E-01 0.288E+00 0.500E+00 0.500E+00 0.970E+00 0.970E+00 0.985E+00 0.100E+01
         7 0.149E-01 0.288E+00 0.500E+00 0.500E+00 0.970E+00 0.970E+00 0.985E+00 0.100E+01
         8 0.306E+00 0.546E+00 0.546E+00 0.654E+00 0.122E+01 0.145E+01 0.145E+01 0.182E+01


 Contracted 2-electron integrals neglected if value below      1.0D-12
 AO integral compression algorithm  1   Integral accuracy      1.0D-12

     34.865 MB (compressed) written to integral file ( 48.0%)


 NUMBER OF SORTED TWO-ELECTRON INTEGRALS:    5465755.     BUFFER LENGTH:  32768
 NUMBER OF SEGMENTS:   1  SEGMENT LENGTH:    5465755      RECORD LENGTH: 524288

 Memory used in sort:       6.02 MW

 SORT1 READ     9044109. AND WROTE     3825599. INTEGRALS IN     11 RECORDS. CPU TIME:     0.22 SEC, REAL TIME:     0.32 SEC
 SORT2 READ     3825599. AND WROTE     5465755. INTEGRALS IN    133 RECORDS. CPU TIME:     0.19 SEC, REAL TIME:     0.33 SEC

 FILE SIZES:   FILE 1:    54.4 MBYTE,  FILE 4:    46.2 MBYTE,   TOTAL:    100.6 MBYTE

 OPERATOR DM      FOR CENTER  0  COORDINATES:    0.000000    0.000000    0.000000
 OPERATOR EKIN    FOR CENTER  0  COORDINATES:    0.000000    0.000000    0.000000
 OPERATOR POT     FOR CENTER  0  COORDINATES:    0.000000    0.000000    0.000000


 **********************************************************************************************************************************
 DATASETS  * FILE   NREC   LENGTH (MB)   RECORD NAMES
              1      20       40.43       500      610      700      900      950      970     1000      129      960     1100   
                                          VAR    BASINP    GEOM    SYMINP    ZMAT    AOBASIS   BASIS     P2S    ABASIS      S 
                                         1400     1410     1420     1200     1210     1080     1600     1650     1300     1700   
                                         EKIN       V       ECP      H0       H01     AOSYM     SMH    MOLCAS    ERIS     OPER   

 PROGRAMS   *        TOTAL       INT
 CPU TIMES  *         2.49      2.39
 REAL TIME  *         4.45 SEC
 DISK USED  *       100.88 MB      
 **********************************************************************************************************************************


 PROGRAM * RHF-SCF (OPEN SHELL)       Authors: W. Meyer, H.-J. Werner


 NUMBER OF ELECTRONS:      10+    7-    SPACE SYMMETRY=6    SPIN SYMMETRY: Quartet 
 CONVERGENCE THRESHOLDS:    1.00E-05 (Density)    1.00E-07 (Energy)
 MAX. NUMBER OF ITERATIONS:       60
 INTERPOLATION TYPE:            DIIS
 INTERPOLATION STEPS:              2 (START)      1 (STEP)
 LEVEL SHIFTS:                 -0.60 (CLOSED) -0.30 (OPEN) 

 Number of closed-shell orbitals:    7 (   3   1   1   0   1   1   0   0 )
 Number of open-shell orbitals:      3 (   1   0   0   1   0   0   1   0 )


 
 Extra symmetries of mos in symmetry 1:   1   1   3   2

   Atom=CO basis=ECP10MDF_GUESS    lmin=0  lmax=2

 Orbital guess generated from atomic densities. Full valence occupancy:    4   1   1   1   1   1   1   0


 Molecular orbital dump at record        2100.2

 ITERATION    DDIFF          GRAD             ENERGY        2-EL.EN.            DIPOLE MOMENTS         DIIS   ORB.
    1      0.000D+00      0.000D+00      -144.23464636    216.800170    0.00000    0.00000    0.00000    0    start
    2      0.000D+00      0.280D-01      -144.29812967    225.611417    0.00000    0.00000    0.00000    1    diag,B
    3      0.761D-02      0.195D-01      -144.31664952    223.311743    0.00000    0.00000    0.00000    2    diag,B
    4      0.188D-02      0.342D-02      -144.31913656    223.195675    0.00000    0.00000    0.00000    3    diag,B
    5      0.106D-02      0.112D-02      -144.32074465    223.181454    0.00000    0.00000    0.00000    4    diag,B
    6      0.933D-03      0.879D-03      -144.32277745    223.141612    0.00000    0.00000    0.00000    5    diag,B
    7      0.132D-02      0.797D-03      -144.32784124    223.078951    0.00000    0.00000    0.00000    6    fixocc
    8      0.432D-02      0.621D-03      -144.32840537    223.097591    0.00000    0.00000    0.00000    7    diag,B
    9      0.670D-03      0.500D-03      -144.33103887    223.072764    0.00000    0.00000    0.00000    8    diag,B
   10      0.577D-02      0.622D-03      -144.33105532    223.089960    0.00000    0.00000    0.00000    9    orth
   11      0.156D-03      0.396D-03      -144.33121222    223.125233    0.00000    0.00000    0.00000    9    diag,B
   12      0.135D-02      0.105D-03      -144.33122328    223.135753    0.00000    0.00000    0.00000    9    diag,B
   13      0.357D-03      0.262D-04      -144.33122413    223.137420    0.00000    0.00000    0.00000    9    diag,B
   14      0.846D-04      0.162D-04      -144.33122432    223.137303    0.00000    0.00000    0.00000    9    diag,B
   15      0.438D-04      0.609D-05      -144.33122438    223.137766    0.00000    0.00000    0.00000    9    diag,B
   16      0.267D-04      0.560D-05      -144.33122439    223.137713    0.00000    0.00000    0.00000    9    diag,B
   17      0.809D-05      0.126D-05      -144.33122439    223.137636    0.00000    0.00000    0.00000    0    orth

 Final alpha occupancy:   4   1   1   1   1   1   1   0
 Final beta  occupancy:   3   1   1   0   1   1   0   0

 !RHF STATE 1.6 Energy               -144.331224389056
 Nuclear energy                         0.00000000
 One-electron energy                 -255.90004256
 Two-electron energy                  111.56881817
 Virial quotient                       -1.63340450
 !RHF STATE 1.6 Dipole moment           0.00000000     0.00000000     0.00000000
 Dipole moment /Debye                   0.00000000     0.00000000     0.00000000
 

 !RHF expec          <1.6|EKIN|1.6>    88.362205728855
 
 !RHF expec           <1.6|POT|1.6>   -21.147246387121

 ELECTRON ORBITALS
 =================


   Orb  Occ    Energy  Couls-En    Coefficients

                                   1 1s      1 1s      1 1s      1 1s      1 1s      1 1s      1 1s      1 3d0     1 3d2+    1 3d0  
                                   1 3d2+    1 3d0     1 3d2+    1 3d0     1 3d2+    1 3d0     1 3d2+    1 3d0     1 3d2+    1 5g0  
                                   1 5g4+    1 5g2+    1 5g0     1 5g4+    1 5g2+    1 5g0     1 5g4+    1 5g2+ 

   1.1   2    -4.6571  -23.9239  0.999994  0.000044  0.000117  0.000084 -0.000041  0.000028  0.000008 -0.000000  0.000000  0.000000
                                -0.000000 -0.000000  0.000000 -0.000000  0.000000  0.000000 -0.000000 -0.000000  0.000000 -0.000054
                                 0.000136  0.000241 -0.000204  0.000517  0.000912 -0.000094  0.000238  0.000419

   2.1   2    -0.2713   -6.4621 -0.000083  0.999960 -0.000577 -0.000014  0.000001  0.000005  0.000066  0.000055 -0.000032 -0.000001
                                 0.000002 -0.000000  0.000001  0.000000  0.000000 -0.000002 -0.000011  0.000007  0.000002  0.000080
                                -0.000202 -0.000357 -0.000020  0.000050  0.000089 -0.000023  0.000058  0.000102

   3.1   2    -0.6223  -14.8051 -0.000000  0.000002  0.000002 -0.000000 -0.000000  0.000000 -0.000000  0.500315  0.866543 -0.027545
                                -0.047708 -0.010019 -0.017354 -0.001481 -0.002565 -0.003324 -0.005755 -0.000002 -0.000001 -0.000430
                                -0.000305  0.000077 -0.000470 -0.000333  0.000084 -0.000199 -0.000141  0.000036

   4.1   +    -0.7200  -15.0884  0.000001 -0.000065 -0.000003 -0.000000 -0.000000 -0.000000 -0.000000  0.864123 -0.498917 -0.075878
                                 0.043809 -0.023718  0.013694 -0.001126  0.000650 -0.002613  0.001509  0.000079 -0.000046 -0.000107
                                 0.000126 -0.000095 -0.000565  0.000668 -0.000505 -0.000345  0.000409 -0.000309

                                   1 2px     1 2px     1 2px     1 2px     1 2px     1 2px     1 2px     1 4f1+    1 4f3+    1 4f1+ 
                                   1 4f3+    1 4f1+    1 4f3+    1 4f1+    1 4f3+    1 6h1+    1 6h3+    1 6h5+    1 6h1+    1 6h3+ 
                                   1 6h5+ 

   1.2   2    -3.0427  -20.5675  1.000415  0.015246  0.012662 -0.000860 -0.000946 -0.005016  0.000104  0.000091  0.000039  0.002851
                                 0.001227  0.004168  0.001794  0.001766  0.000760 -0.000059  0.000085  0.000058  0.000181 -0.000228
                                -0.000190

                                   1 2py     1 2py     1 2py     1 2py     1 2py     1 2py     1 2py     1 4f1-    1 4f3-    1 4f1- 
                                   1 4f3-    1 4f1-    1 4f3-    1 4f1-    1 4f3-    1 6h1-    1 6h3-    1 6h5-    1 6h1-    1 6h3- 
                                   1 6h5- 

   1.3   2    -3.0427  -20.5675  1.000415  0.015246  0.012662 -0.000860 -0.000946 -0.005016  0.000104 -0.000061 -0.000078 -0.001901
                                -0.002453 -0.002779 -0.003588 -0.001178 -0.001520  0.000027  0.000094  0.000068 -0.000056 -0.000290
                                -0.000184

                                   1 3d2-    1 3d2-    1 3d2-    1 3d2-    1 3d2-    1 3d2-    1 5g2-    1 5g4-    1 5g2-    1 5g4- 
                                   1 5g2-    1 5g4- 

   1.4   +    -0.7200  -15.0884  0.997811 -0.087615 -0.027387 -0.001300 -0.003016  0.000091 -0.000144  0.000127 -0.000757  0.000668
                                -0.000463  0.000409

                                   1 2pz     1 2pz     1 2pz     1 2pz     1 2pz     1 2pz     1 2pz     1 4f0     1 4f2+    1 4f0  
                                   1 4f2+    1 4f0     1 4f2+    1 4f0     1 4f2+    1 6h2+    1 6h4+    1 6h0     1 6h2+    1 6h4+ 
                                   1 6h0  

   1.5   2    -3.0427  -20.5675  1.000415  0.015247  0.012662 -0.000860 -0.000946 -0.005016  0.000104 -0.000025  0.000096 -0.000776
                                 0.003005 -0.001135  0.004394 -0.000481  0.001862  0.000105  0.000045 -0.000033 -0.000320 -0.000115
                                 0.000074

                                   1 3d1+    1 3d1+    1 3d1+    1 3d1+    1 3d1+    1 3d1+    1 5g1+    1 5g3+    1 5g1+    1 5g3+ 
                                   1 5g1+    1 5g3+ 

   1.6   2    -0.6223  -14.8051  1.000606 -0.055084 -0.020037 -0.002961 -0.006645  0.000001  0.000188  0.000499  0.000206  0.000545
                                 0.000087  0.000231

                                   1 3d1-    1 3d1-    1 3d1-    1 3d1-    1 3d1-    1 3d1-    1 5g1-    1 5g3-    1 5g1-    1 5g3- 
                                   1 5g1-    1 5g3- 

   1.7   +    -0.7200  -15.0884  0.997811 -0.087616 -0.027386 -0.001300 -0.003016  0.000091  0.000169 -0.000089  0.000892 -0.000472
                                 0.000546 -0.000289

 HOMO      1.6    -0.622303 =     -16.9337eV
 LUMO      2.2     0.025079 =       0.6824eV
 LUMO-HOMO         0.647382 =      17.6162eV


 **********************************************************************************************************************************
 DATASETS  * FILE   NREC   LENGTH (MB)   RECORD NAMES
              1      20       40.43       500      610      700      900      950      970     1000      129      960     1100   
                                          VAR    BASINP    GEOM    SYMINP    ZMAT    AOBASIS   BASIS     P2S    ABASIS      S 
                                         1400     1410     1420     1200     1210     1080     1600     1650     1300     1700   
                                         EKIN       V       ECP      H0       H01     AOSYM     SMH    MOLCAS    ERIS     OPER   

              2       4        2.85       700     1000      520     2100   
                                         GEOM     BASIS   MCVARS     RHF  

 PROGRAMS   *        TOTAL        HF       INT
 CPU TIMES  *         2.78      0.29      2.39
 REAL TIME  *         4.95 SEC
 DISK USED  *       100.88 MB      
 **********************************************************************************************************************************
 SETTING SCF(I)         =      -144.33122439  AU                              
 SETTING _CC_NORM_MAX   =         2.00000000                                  


 PROGRAM * CCSD (Unrestricted open-shell coupled cluster)     Authors: C. Hampel, H.-J. Werner, 1991, M. Deegan, P.J. Knowles, 1992


 Convergence thresholds:  THRVAR = 1.00D-08  THRDEN = 1.00D-06

 CCSD(T)     terms to be evaluated (factor= 1.000)


 Number of closed-shell orbitals:   7 (   3   1   1   0   1   1   0   0 )
 Number of active  orbitals:        3 (   1   0   0   1   0   0   1   0 )
 Number of external orbitals:     125 (  24  20  20  11  20  11  11   8 )

 Memory could be reduced to 5.46 Mwords without degradation in triples

 Number of N-1 electron functions:              17
 Number of N-2 electron functions:             136
 Number of singly external CSFs:               341
 Number of doubly external CSFs:            214637
 Total number of CSFs:                      214978

 Molecular orbitals read from record     2100.2  Type=RHF/CANONICAL (state 1.6)

 Integral transformation finished. Total CPU:   0.09 sec, npass=  1  Memory used:   1.16 MW

 Starting RMP2 calculation

 ITER.      SQ.NORM     CORR.ENERGY   TOTAL ENERGY   ENERGY CHANGE        DEN1      VAR(S)    VAR(P)  DIIS     TIME
   1      1.10724659    -0.72978053  -145.06100492    -0.72978053    -0.00118118  0.22D-04  0.75D-03  1  1     0.11
   2      1.10923351    -0.73102355  -145.06224794    -0.00124302    -0.00001843  0.88D-06  0.18D-04  2  2     0.11
   3      1.10956457    -0.73114992  -145.06237431    -0.00012636    -0.00000016  0.24D-07  0.14D-06  3  3     0.12
   4      1.10958840    -0.73115640  -145.06238079    -0.00000648    -0.00000000  0.10D-08  0.12D-08  4  4     0.13
   5      1.10958874    -0.73115629  -145.06238068     0.00000011    -0.00000000  0.41D-10  0.14D-10  5  5     0.15

 Norm of t1 vector:      0.04451771      S-energy:    -0.00762934      T1 diagnostic:  0.00017117
 Norm of t2 vector:      0.32803493      P-energy:    -0.72352695
                                         Alpha-Beta:  -0.50447110
                                         Alpha-Alpha: -0.15274559
                                         Beta-Beta:   -0.06631026

 Spin contamination <S**2-Sz**2-Sz>     0.00680134
  Reference energy                   -144.331224389056
  RHF-RMP2 correlation energy          -0.731156289356
 !RHF-RMP2 energy                    -145.062380678411

 Starting UCCSD calculation

 ITER.      SQ.NORM     CORR.ENERGY   TOTAL ENERGY   ENERGY CHANGE        DEN1      VAR(S)    VAR(P)  DIIS     TIME
   1      1.10493399    -0.69464663  -145.02587102    -0.69464663    -0.01925196  0.46D-02  0.34D-02  1  1     0.43
   2      1.11922044    -0.71034387  -145.04156826    -0.01569724    -0.00197041  0.59D-03  0.82D-03  2  2     0.71
   3      1.12903120    -0.71274707  -145.04397145    -0.00240319    -0.00038096  0.22D-03  0.13D-03  3  3     0.98
   4      1.13528938    -0.71450719  -145.04573158    -0.00176013    -0.00004996  0.24D-04  0.18D-04  4  4     1.25
   5      1.13824706    -0.71510001  -145.04632440    -0.00059282    -0.00000344  0.16D-05  0.10D-05  5  5     1.53
   6      1.13865160    -0.71515134  -145.04637573    -0.00005133    -0.00000057  0.69D-07  0.27D-06  6  6     1.81
   7      1.13871951    -0.71516249  -145.04638688    -0.00001115    -0.00000016  0.24D-07  0.79D-07  6  1     2.10
   8      1.13871541    -0.71515980  -145.04638419     0.00000269    -0.00000004  0.43D-08  0.18D-07  6  3     2.37
   9      1.13870894    -0.71516089  -145.04638528    -0.00000109    -0.00000001  0.17D-08  0.41D-08  6  2     2.65
  10      1.13870592    -0.71516167  -145.04638606    -0.00000077    -0.00000000  0.32D-09  0.89D-09  6  4     2.92

 Norm of t1 vector:      0.13026565      S-energy:    -0.00806514      T1 diagnostic:  0.01956486
                                                                       D1 diagnostic:  0.06571040
 Norm of t2 vector:      0.34890799      P-energy:    -0.70709653
                                         Alpha-Beta:  -0.51047042
                                         Alpha-Alpha: -0.13618407
                                         Beta-Beta:   -0.06044204

 Singles amplitudes (print threshold =  0.500E-01):

         I         SYM. A    A   T(IA) [Alpha-Alpha]

         2         1         5      0.07436148

 Doubles amplitudes (print threshold =  0.500E-01):

         I         J         SYM. A    SYM. B    A         B      T(IJ, AB) [Alpha-Beta]

         2         2         2         2         2         2     -0.05101593
         2         2         3         3         2         2     -0.05101696
         2         2         5         5         2         2     -0.05101798

 Spin contamination <S**2-Sz**2-Sz>     0.00676038

 Memory could be reduced to 5.91 Mwords without degradation in triples
 

  Correlated core orbitals:             1.1       1.2       1.3       1.5
  Orbital energies:                    -4.8041   -3.2200   -3.2200   -3.2200
 
  UCCSD core-core energy               -0.139043522040
  UCCSD core-valence energy            -0.309251797416
  UCCSD valence correlation energy     -0.266866347568
 

 RESULTS
 =======

  Reference energy                   -144.331224389056
  UCCSD singles energy                 -0.008065139686
  UCCSD pair energy                    -0.707096527338
  UCCSD correlation energy             -0.715161667024
  Triples (T) contribution             -0.021672315201
  Total correlation energy             -0.736833982224
 
  RHF-UCCSD energy                   -145.046386056079
  RHF-UCCSD[T] energy                -145.069404502418
  RHF-UCCSD-T energy                 -145.067685305421
 !RHF-UCCSD(T) energy                -145.068058371280

 Program statistics:

 Available memory in ccsd:               511999000
 Min. memory needed in ccsd:                667356
 Max. memory used in ccsd:                  926444
 Max. memory used in cckext:                763887 (10 integral passes)
 Max. memory used in cckint:               1158917 ( 1 integral passes)



 **********************************************************************************************************************************
 DATASETS  * FILE   NREC   LENGTH (MB)   RECORD NAMES
              1      20       40.43       500      610      700      900      950      970     1000      129      960     1100   
                                          VAR    BASINP    GEOM    SYMINP    ZMAT    AOBASIS   BASIS     P2S    ABASIS      S 
                                         1400     1410     1420     1200     1210     1080     1600     1650     1300     1700   
                                         EKIN       V       ECP      H0       H01     AOSYM     SMH    MOLCAS    ERIS     OPER   

              2       4        2.85       700     1000      520     2100   
                                         GEOM     BASIS   MCVARS     RHF  

 PROGRAMS   *        TOTAL  UCCSD(T)        HF       INT
 CPU TIMES  *         9.85      7.07      0.29      2.39
 REAL TIME  *        15.73 SEC
 DISK USED  *       147.32 MB      
 **********************************************************************************************************************************
 SETTING POSTHF(I)      =      -145.06805837  AU                              
                                                                                                                                                                                                                                                                

         SCF            POSTHF       EKIN           POT
    -144.3312244   -145.0680584   88.36220573   -21.14724639
                                                  

 UCCSD(T)/USERDEF energy=   -145.068058371280

        UCCSD(T)        HF-SCF  
   -145.06805837   -144.33122439
 **********************************************************************************************************************************
 Variable memory released
