
 Primary working directories    : /global/cscratch1/sd/aannabe
 Secondary working directories  : /global/cscratch1/sd/aannabe
 Wavefunction directory         : /global/homes/a/aannabe/wfu/
 Main file repository           : /global/cscratch1/sd/aannabe/

 SHA1      : 2873118e99aab1bc19f5b6fc1784693c06d15c95
 NAME      : 2015.1.8
 ARCHNAME  : linux/x86_64
 FC        : /opt/cray/pe/craype/2.5.5/bin/ftn
 BLASLIB   : -Wl,-_start-group /opt/intel/compilers_and_libraries_2016.3.210/linux/mkl/lib/intel64/libmkl_intel_ilp64.a /opt/intel/compilers_and_libraries_2016.3.210/linux/mkl/lib/intel64/libmkl_intel_thread.a /opt/intel/compilers_and_libraries_2016.3.210/linux/mkl/lib/intel64/libmkl_core.a -Wl,-_end-group
 id        : lbl

 Nodes     nprocs
 nid00521     1

 Using customized tuning parameters: mindgm=8; mindgv=16; mindgc=4; mindgr=1; noblas=0; minvec=7
 default implementation of scratch files=df  

 ***,O
 memory,512,m
 gthresh,twoint=1.e-12
 
 gprint,basis,orbitals
 gexpec,ekin,pot
 
 angstrom
 geometry={
 1                                                                               ! Number of atoms
 O 0.0 0.0 0.0
 }
 
 basis={
 Including file /global/homes/a/aannabe/docs/totals_bfd/pps/O.pp
 Including file /global/homes/a/aannabe/docs/totals_bfd/basis/aug-cc-pVnZ/O_5z.basis
 }
 
 {hf
 wf,6,7,2
 occ,1,1,1,0,1,0,0,0
                                                                                 !open,1.3
 closed,1,1,0,0,0,0,0,0
                                                                                 !sym,
 }
 scf(i)=energy
 
 _CC_NORM_MAX=2.0
 {ci
 maxit,100
 core
 }
 posthf(i)=energy
 
 table,scf,posthf,ekin,pot
 save,5.csv,new
 
 

 Variables initialized (889), CPU time= 0.00 sec
 Commands  initialized (702), CPU time= 0.01 sec, 572 directives.
 Default parameters read. Elapsed time= 0.12 sec

 Checking input...
 Passed
1


                                         ***  PROGRAM SYSTEM MOLPRO  ***
                                       Copyright, TTI GmbH Stuttgart, 2015
                                    Version 2015.1 linked Sep  7 2016 23:09:38


 **********************************************************************************************************************************
 LABEL *   O                                                                             
  64 bit serial version                                                                  DATE: 20-Jun-18          TIME: 04:08:22  
 **********************************************************************************************************************************

 SHA1:             2873118e99aab1bc19f5b6fc1784693c06d15c95
 **********************************************************************************************************************************

 THRESHOLDS:

 ZERO    =  1.00D-12  ONEINT  =  1.00D-12  TWOINT  =  1.00D-12  PREFAC  =  1.00D-14  LOCALI  =  1.00D-09  EORDER  =  1.00D-04
 ENERGY  =  0.00D+00  ETEST   =  0.00D+00  EDENS   =  0.00D+00  THRDEDEF=  1.00D-06  GRADIENT=  1.00D-02  STEP    =  1.00D-03
 ORBITAL =  1.00D-05  CIVEC   =  1.00D-05  COEFF   =  1.00D-04  PRINTCI =  5.00D-02  PUNCHCI =  9.90D+01  OPTGRAD =  3.00D-04
 OPTENERG=  1.00D-06  OPTSTEP =  3.00D-04  THRGRAD =  1.00D-10  COMPRESS=  1.00D-11  VARMIN  =  1.00D-07  VARMAX  =  1.00D-03
 THRDOUB =  0.00D+00  THRDIV  =  1.00D-05  THRRED  =  1.00D-07  THRPSP  =  1.00D+00  THRDC   =  1.00D-10  THRCS   =  1.00D-10
 THRNRM  =  1.00D-08  THREQ   =  0.00D+00  THRDE   =  1.00D+00  THRREF  =  1.00D-05  SPARFAC =  1.00D+00  THRDLP  =  1.00D-07
 THRDIA  =  1.00D-10  THRDLS  =  1.00D-07  THRGPS  =  0.00D+00  THRKEX  =  0.00D+00  THRDIS  =  2.00D-01  THRVAR  =  1.00D-10
 THRLOC  =  1.00D-06  THRGAP  =  1.00D-06  THRLOCT = -1.00D+00  THRGAPT = -1.00D+00  THRORB  =  1.00D-06  THRMLTP =  0.00D+00
 THRCPQCI=  1.00D-10  KEXTA   =  0.00D+00  THRCOARS=  0.00D+00  SYMTOL  =  1.00D-06  GRADTOL =  1.00D-06  THROVL  =  1.00D-08
 THRORTH =  1.00D-08  GRID    =  1.00D-06  GRIDMAX =  1.00D-03  DTMAX   =  0.00D+00  THROCCDE=  1.00D-01  THROCCDE=  1.00D-01



 ZUNIT=ANG
 

Geometry recognized as XYZ


 Variable memory set to  512000000 words,  buffer space   230000 words

 SETTING BASIS          =    USERDEF


 Recomputing integrals since basis changed


 Using spherical harmonics



 PROGRAM * SEWARD (Integral evaluation for generally contracted gaussian basis sets)     Author: Roland Lindh, 1990

 Geometry written to block  1 of record 700

 Orientation using atomic masses  
 Molecule type: Atom
 Symmetry elements: X,Y,Z
 Rotational constants:       0.0000000      0.0000000      0.0000000 GHz  (calculated with average atomic masses)

 Point group  D2h 



 ATOMIC COORDINATES

 NR  ATOM    CHARGE       X              Y              Z

   1  O       6.00    0.000000000    0.000000000    0.000000000


          O   CORE POTENTIAL

          p POTENTIAL

 POWERS             1              3              2
 EXPONENTIALS   9.297939       8.864922       8.629257    
 COEFFICIENTS   6.000000       55.78763      -38.81978    

          s - p POTENTIAL

 POWERS             2
 EXPONENTIALS   8.719245    
 COEFFICIENTS   38.41914    


 BASIS DATA

   Nr Sym  Nuc  Type         Exponents   Contraction coefficients

    1.1 Ag    1  1s           0.125346     0.055741
                              0.268022     0.304848
                              0.573098     0.453752
                              1.225429     0.295926
                              2.620277     0.019567
                              5.602818    -0.128627
                             11.980245     0.012024
                             25.616801     0.000407
                             54.775216    -0.000076
    2.1 Ag    1  1s           0.064266     1.000000
    3.1 Ag    1  1s           0.160664     1.000000
    4.1 Ag    1  1s           0.384526     1.000000
    5.1 Ag    1  1s           0.935157     1.000000
    6.1 Ag    1  1s           1.937532     1.000000
    7.1 Ag    1  3d0          0.160461     1.000000
    8.1 Ag    1  3d2+         0.160461     1.000000
    9.1 Ag    1  3d0          0.401152     1.000000
   10.1 Ag    1  3d2+         0.401152     1.000000
   11.1 Ag    1  3d0          1.174596     1.000000
   12.1 Ag    1  3d2+         1.174596     1.000000
   13.1 Ag    1  3d0          2.823972     1.000000
   14.1 Ag    1  3d2+         2.823972     1.000000
   15.1 Ag    1  3d0          4.292433     1.000000
   16.1 Ag    1  3d2+         4.292433     1.000000
   17.1 Ag    1  5g0          0.483063     1.000000
   18.1 Ag    1  5g4+         0.483063     1.000000
   19.1 Ag    1  5g2+         0.483063     1.000000
   20.1 Ag    1  5g0          1.207657     1.000000
   21.1 Ag    1  5g4+         1.207657     1.000000
   22.1 Ag    1  5g2+         1.207657     1.000000
   23.1 Ag    1  5g0          3.584495     1.000000
   24.1 Ag    1  5g4+         3.584495     1.000000
   25.1 Ag    1  5g2+         3.584495     1.000000
    1.2 B3u   1  2px          0.083598     0.044958
                              0.167017     0.150175
                              0.333673     0.255999
                              0.666627     0.281879
                              1.331816     0.242835
                              2.660761     0.161134
                              5.315785     0.082308
                             10.620108     0.039899
                             21.217318     0.004679
    2.2 B3u   1  2px          0.052232     1.000000
    3.2 B3u   1  2px          0.130580     1.000000
    4.2 B3u   1  2px          0.372674     1.000000
    5.2 B3u   1  2px          1.178227     1.000000
    6.2 B3u   1  2px          1.589967     1.000000
    7.2 B3u   1  4f1+         0.283466     1.000000
    8.2 B3u   1  4f3+         0.283466     1.000000
    9.2 B3u   1  4f1+         0.708666     1.000000
   10.2 B3u   1  4f3+         0.708666     1.000000
   11.2 B3u   1  4f1+         2.006788     1.000000
   12.2 B3u   1  4f3+         2.006788     1.000000
   13.2 B3u   1  4f1+         3.223721     1.000000
   14.2 B3u   1  4f3+         3.223721     1.000000
   15.2 B3u   1  6h1+         1.046327     1.000000
   16.2 B3u   1  6h3+         1.046327     1.000000
   17.2 B3u   1  6h5+         1.046327     1.000000
   18.2 B3u   1  6h1+         2.615818     1.000000
   19.2 B3u   1  6h3+         2.615818     1.000000
   20.2 B3u   1  6h5+         2.615818     1.000000
    1.3 B2u   1  2py          0.083598     0.044958
                              0.167017     0.150175
                              0.333673     0.255999
                              0.666627     0.281879
                              1.331816     0.242835
                              2.660761     0.161134
                              5.315785     0.082308
                             10.620108     0.039899
                             21.217318     0.004679
    2.3 B2u   1  2py          0.052232     1.000000
    3.3 B2u   1  2py          0.130580     1.000000
    4.3 B2u   1  2py          0.372674     1.000000
    5.3 B2u   1  2py          1.178227     1.000000
    6.3 B2u   1  2py          1.589967     1.000000
    7.3 B2u   1  4f1-         0.283466     1.000000
    8.3 B2u   1  4f3-         0.283466     1.000000
    9.3 B2u   1  4f1-         0.708666     1.000000
   10.3 B2u   1  4f3-         0.708666     1.000000
   11.3 B2u   1  4f1-         2.006788     1.000000
   12.3 B2u   1  4f3-         2.006788     1.000000
   13.3 B2u   1  4f1-         3.223721     1.000000
   14.3 B2u   1  4f3-         3.223721     1.000000
   15.3 B2u   1  6h1-         1.046327     1.000000
   16.3 B2u   1  6h3-         1.046327     1.000000
   17.3 B2u   1  6h5-         1.046327     1.000000
   18.3 B2u   1  6h1-         2.615818     1.000000
   19.3 B2u   1  6h3-         2.615818     1.000000
   20.3 B2u   1  6h5-         2.615818     1.000000
    1.4 B1g   1  3d2-         0.160461     1.000000
    2.4 B1g   1  3d2-         0.401152     1.000000
    3.4 B1g   1  3d2-         1.174596     1.000000
    4.4 B1g   1  3d2-         2.823972     1.000000
    5.4 B1g   1  3d2-         4.292433     1.000000
    6.4 B1g   1  5g2-         0.483063     1.000000
    7.4 B1g   1  5g4-         0.483063     1.000000
    8.4 B1g   1  5g2-         1.207657     1.000000
    9.4 B1g   1  5g4-         1.207657     1.000000
   10.4 B1g   1  5g2-         3.584495     1.000000
   11.4 B1g   1  5g4-         3.584495     1.000000
    1.5 B1u   1  2pz          0.083598     0.044958
                              0.167017     0.150175
                              0.333673     0.255999
                              0.666627     0.281879
                              1.331816     0.242835
                              2.660761     0.161134
                              5.315785     0.082308
                             10.620108     0.039899
                             21.217318     0.004679
    2.5 B1u   1  2pz          0.052232     1.000000
    3.5 B1u   1  2pz          0.130580     1.000000
    4.5 B1u   1  2pz          0.372674     1.000000
    5.5 B1u   1  2pz          1.178227     1.000000
    6.5 B1u   1  2pz          1.589967     1.000000
    7.5 B1u   1  4f0          0.283466     1.000000
    8.5 B1u   1  4f2+         0.283466     1.000000
    9.5 B1u   1  4f0          0.708666     1.000000
   10.5 B1u   1  4f2+         0.708666     1.000000
   11.5 B1u   1  4f0          2.006788     1.000000
   12.5 B1u   1  4f2+         2.006788     1.000000
   13.5 B1u   1  4f0          3.223721     1.000000
   14.5 B1u   1  4f2+         3.223721     1.000000
   15.5 B1u   1  6h2+         1.046327     1.000000
   16.5 B1u   1  6h4+         1.046327     1.000000
   17.5 B1u   1  6h0          1.046327     1.000000
   18.5 B1u   1  6h2+         2.615818     1.000000
   19.5 B1u   1  6h4+         2.615818     1.000000
   20.5 B1u   1  6h0          2.615818     1.000000
    1.6 B2g   1  3d1+         0.160461     1.000000
    2.6 B2g   1  3d1+         0.401152     1.000000
    3.6 B2g   1  3d1+         1.174596     1.000000
    4.6 B2g   1  3d1+         2.823972     1.000000
    5.6 B2g   1  3d1+         4.292433     1.000000
    6.6 B2g   1  5g1+         0.483063     1.000000
    7.6 B2g   1  5g3+         0.483063     1.000000
    8.6 B2g   1  5g1+         1.207657     1.000000
    9.6 B2g   1  5g3+         1.207657     1.000000
   10.6 B2g   1  5g1+         3.584495     1.000000
   11.6 B2g   1  5g3+         3.584495     1.000000
    1.7 B3g   1  3d1-         0.160461     1.000000
    2.7 B3g   1  3d1-         0.401152     1.000000
    3.7 B3g   1  3d1-         1.174596     1.000000
    4.7 B3g   1  3d1-         2.823972     1.000000
    5.7 B3g   1  3d1-         4.292433     1.000000
    6.7 B3g   1  5g1-         0.483063     1.000000
    7.7 B3g   1  5g3-         0.483063     1.000000
    8.7 B3g   1  5g1-         1.207657     1.000000
    9.7 B3g   1  5g3-         1.207657     1.000000
   10.7 B3g   1  5g1-         3.584495     1.000000
   11.7 B3g   1  5g3-         3.584495     1.000000
    1.8 Au    1  4f2-         0.283466     1.000000
    2.8 Au    1  4f2-         0.708666     1.000000
    3.8 Au    1  4f2-         2.006788     1.000000
    4.8 Au    1  4f2-         3.223721     1.000000
    5.8 Au    1  6h4-         1.046327     1.000000
    6.8 Au    1  6h2-         1.046327     1.000000
    7.8 Au    1  6h4-         2.615818     1.000000
    8.8 Au    1  6h2-         2.615818     1.000000

 NUCLEAR CHARGE:                    6
 NUMBER OF PRIMITIVE AOS:         213
 NUMBER OF SYMMETRY AOS:          158
 NUMBER OF CONTRACTIONS:          126   (  25Ag  +  20B3u +  20B2u +  11B1g +  20B1u +  11B2g +  11B3g +   8Au  )
 NUMBER OF CORE ORBITALS:           0   (   0Ag  +   0B3u +   0B2u +   0B1g +   0B1u +   0B2g +   0B3g +   0Au  )
 NUMBER OF VALENCE ORBITALS:        4   (   1Ag  +   1B3u +   1B2u +   0B1g +   1B1u +   0B2g +   0B3g +   0Au  )


 NUCLEAR REPULSION ENERGY    0.00000000

 EXTRA SYMMETRY OF AOS IN SYMMETRY 1:   1 1 1 1 1 1 2 3 2 3   2 3 2 3 2 3 4 5 6 4   5 6 4 5 6
 EXTRA SYMMETRY OF AOS IN SYMMETRY 2:   1 1 1 1 1 1 2 3 2 3   2 3 2 3 4 5 6 4 5 6
 EXTRA SYMMETRY OF AOS IN SYMMETRY 3:   1 1 1 1 1 1 2 3 2 3   2 3 2 3 4 5 6 4 5 6
 EXTRA SYMMETRY OF AOS IN SYMMETRY 4:   1 1 1 1 1 2 3 2 3 2   3
 EXTRA SYMMETRY OF AOS IN SYMMETRY 5:   1 1 1 1 1 1 2 3 2 3   2 3 2 3 4 5 6 4 5 6
 EXTRA SYMMETRY OF AOS IN SYMMETRY 6:   1 1 1 1 1 2 3 2 3 2   3
 EXTRA SYMMETRY OF AOS IN SYMMETRY 7:   1 1 1 1 1 2 3 2 3 2   3
 EXTRA SYMMETRY OF AOS IN SYMMETRY 8:   1 1 1 1 2 3 2 3

 Eigenvalues of metric

         1 0.958E-03 0.693E-02 0.225E-01 0.225E-01 0.480E-01 0.148E+00 0.148E+00 0.282E+00
         2 0.412E-02 0.193E-01 0.611E-01 0.611E-01 0.841E-01 0.329E+00 0.329E+00 0.441E+00
         3 0.412E-02 0.193E-01 0.611E-01 0.611E-01 0.841E-01 0.329E+00 0.329E+00 0.441E+00
         4 0.225E-01 0.148E+00 0.309E+00 0.309E+00 0.522E+00 0.911E+00 0.911E+00 0.157E+01
         5 0.412E-02 0.193E-01 0.611E-01 0.611E-01 0.841E-01 0.329E+00 0.329E+00 0.441E+00
         6 0.225E-01 0.148E+00 0.309E+00 0.309E+00 0.522E+00 0.911E+00 0.911E+00 0.157E+01
         7 0.225E-01 0.148E+00 0.309E+00 0.309E+00 0.522E+00 0.911E+00 0.911E+00 0.157E+01
         8 0.611E-01 0.329E+00 0.483E+00 0.483E+00 0.126E+01 0.152E+01 0.152E+01 0.235E+01


 Contracted 2-electron integrals neglected if value below      1.0D-12
 AO integral compression algorithm  1   Integral accuracy      1.0D-12

     31.982 MB (compressed) written to integral file ( 57.5%)


 NUMBER OF SORTED TWO-ELECTRON INTEGRALS:    4156552.     BUFFER LENGTH:  32768
 NUMBER OF SEGMENTS:   1  SEGMENT LENGTH:    4156552      RECORD LENGTH: 524288

 Memory used in sort:       4.71 MW

 SORT1 READ     6989366. AND WROTE     2907704. INTEGRALS IN      9 RECORDS. CPU TIME:     0.24 SEC, REAL TIME:     0.32 SEC
 SORT2 READ     2907704. AND WROTE     4156552. INTEGRALS IN    122 RECORDS. CPU TIME:     0.21 SEC, REAL TIME:     0.41 SEC

 FILE SIZES:   FILE 1:    51.4 MBYTE,  FILE 4:    37.8 MBYTE,   TOTAL:     89.2 MBYTE

 OPERATOR DM      FOR CENTER  0  COORDINATES:    0.000000    0.000000    0.000000
 OPERATOR EKIN    FOR CENTER  0  COORDINATES:    0.000000    0.000000    0.000000
 OPERATOR POT     FOR CENTER  0  COORDINATES:    0.000000    0.000000    0.000000


 **********************************************************************************************************************************
 DATASETS  * FILE   NREC   LENGTH (MB)   RECORD NAMES
              1      20       38.64       500      610      700      900      950      970     1000      129      960     1100   
                                          VAR    BASINP    GEOM    SYMINP    ZMAT    AOBASIS   BASIS     P2S    ABASIS      S 
                                         1400     1410     1420     1200     1210     1080     1600     1650     1300     1700   
                                         EKIN       V       ECP      H0       H01     AOSYM     SMH    MOLCAS    ERIS     OPER   

 PROGRAMS   *        TOTAL       INT
 CPU TIMES  *         2.06      1.91
 REAL TIME  *       260.65 SEC
 DISK USED  *        89.53 MB      
 **********************************************************************************************************************************


 PROGRAM * RHF-SCF (OPEN SHELL)       Authors: W. Meyer, H.-J. Werner


 NUMBER OF ELECTRONS:       4+    2-    SPACE SYMMETRY=7    SPIN SYMMETRY: Triplet 
 CONVERGENCE THRESHOLDS:    1.00E-05 (Density)    1.00E-07 (Energy)
 MAX. NUMBER OF ITERATIONS:       60
 INTERPOLATION TYPE:            DIIS
 INTERPOLATION STEPS:              2 (START)      1 (STEP)
 LEVEL SHIFTS:                 -0.60 (CLOSED) -0.30 (OPEN) 

 Number of closed-shell orbitals:    2 (   1   1   0   0   0   0   0   0 )
 Number of open-shell orbitals:      2 (   0   0   1   0   1   0   0   0 )



   Atom=O  basis=ECP2MWB_GUESS     lmin=0  lmax=1

 Orbital guess generated from atomic densities. Full valence occupancy:    1   1   1   0   1   0   0   0


 Molecular orbital dump at record        2100.2

 ITERATION    DDIFF          GRAD             ENERGY        2-EL.EN.            DIPOLE MOMENTS         DIIS   ORB.
    1      0.000D+00      0.000D+00       -15.68685103     20.550665    0.00000    0.00000    0.00000    0    start
    2      0.000D+00      0.139D-01       -15.70695306     21.317195    0.00000    0.00000    0.00000    1    diag,B
    3      0.880D-02      0.341D-02       -15.70808097     21.338899    0.00000    0.00000    0.00000    2    diag,B
    4      0.173D-02      0.136D-02       -15.70845031     21.366950    0.00000    0.00000    0.00000    3    diag,B
    5      0.110D-02      0.347D-03       -15.70847880     21.370795    0.00000    0.00000    0.00000    4    diag,B
    6      0.370D-03      0.710D-04       -15.70847984     21.369619    0.00000    0.00000    0.00000    5    diag,B
    7      0.977D-04      0.174D-04       -15.70847991     21.369390    0.00000    0.00000    0.00000    6    fixocc
    8      0.251D-04      0.442D-05       -15.70847991     21.369313    0.00000    0.00000    0.00000    7    diag,B
    9      0.624D-05      0.113D-05       -15.70847991     21.369313    0.00000    0.00000    0.00000    0    orth

 Final alpha occupancy:   1   1   1   0   1   0   0   0
 Final beta  occupancy:   1   1   0   0   0   0   0   0

 !RHF STATE 1.7 Energy                -15.708479914772
 Nuclear energy                         0.00000000
 One-electron energy                  -26.39313650
 Two-electron energy                   10.68465658
 Virial quotient                       -1.35319736
 !RHF STATE 1.7 Dipole moment           0.00000000     0.00000000     0.00000000
 Dipole moment /Debye                   0.00000000     0.00000000     0.00000000
 

 !RHF expec          <1.7|EKIN|1.7>    11.608417485069
 
 !RHF expec           <1.7|POT|1.7>    -6.640620342163

 ELECTRON ORBITALS
 =================


   Orb  Occ    Energy  Couls-En    Coefficients

                                   1 1s      1 1s      1 1s      1 1s      1 1s      1 1s      1 3d0     1 3d2+    1 3d0     1 3d2+ 
                                   1 3d0     1 3d2+    1 3d0     1 3d2+    1 3d0     1 3d2+    1 5g0     1 5g4+    1 5g2+    1 5g0  
                                   1 5g4+    1 5g2+    1 5g0     1 5g4+    1 5g2+ 

   1.1   2    -1.2427   -6.0706  1.000175  0.000271 -0.000539  0.000357 -0.000351  0.000111 -0.001013  0.001755 -0.001377  0.002385
                                -0.000326  0.000564  0.000167 -0.000289 -0.000490  0.000849 -0.000009 -0.000018  0.000014 -0.000001
                                -0.000002  0.000001 -0.000000 -0.000001  0.000000

                                   1 2px     1 2px     1 2px     1 2px     1 2px     1 2px     1 4f1+    1 4f3+    1 4f1+    1 4f3+ 
                                   1 4f1+    1 4f3+    1 4f1+    1 4f3+    1 6h1+    1 6h3+    1 6h5+    1 6h1+    1 6h3+    1 6h5+ 


   1.2   2    -0.5664   -4.7060  1.000028  0.000348 -0.000784  0.000284  0.000080 -0.000010  0.001023 -0.001320  0.002076 -0.002680
                                 0.000890 -0.001149  0.000388 -0.000500  0.000009 -0.000010  0.000014  0.000003 -0.000003  0.000004

                                   1 2py     1 2py     1 2py     1 2py     1 2py     1 2py     1 4f1-    1 4f3-    1 4f1-    1 4f3- 
                                   1 4f1-    1 4f3-    1 4f1-    1 4f3-    1 6h1-    1 6h3-    1 6h5-    1 6h1-    1 6h3-    1 6h5- 


   1.3   +    -0.7029   -4.9319  1.037415 -0.005352 -0.053883 -0.016972  0.011638 -0.000417  0.000495 -0.001918  0.001440 -0.005577
                                 0.000666 -0.002578  0.000300 -0.001161  0.000007 -0.000024  0.000053  0.000003 -0.000009  0.000021

                                   1 2pz     1 2pz     1 2pz     1 2pz     1 2pz     1 2pz     1 4f0     1 4f2+    1 4f0     1 4f2+ 
                                   1 4f0     1 4f2+    1 4f0     1 4f2+    1 6h2+    1 6h4+    1 6h0     1 6h2+    1 6h4+    1 6h0  


   1.5   +    -0.7029   -4.9319  1.037415 -0.005352 -0.053883 -0.016972  0.011638 -0.000417  0.001213 -0.001566  0.003527 -0.004553
                                 0.001631 -0.002105  0.000734 -0.000948 -0.000039  0.000034  0.000028 -0.000015  0.000013  0.000011

 HOMO      1.2    -0.566359 =     -15.4114eV
 LUMO      2.1     0.110728 =       3.0131eV
 LUMO-HOMO         0.677087 =      18.4245eV


 **********************************************************************************************************************************
 DATASETS  * FILE   NREC   LENGTH (MB)   RECORD NAMES
              1      20       38.64       500      610      700      900      950      970     1000      129      960     1100   
                                          VAR    BASINP    GEOM    SYMINP    ZMAT    AOBASIS   BASIS     P2S    ABASIS      S 
                                         1400     1410     1420     1200     1210     1080     1600     1650     1300     1700   
                                         EKIN       V       ECP      H0       H01     AOSYM     SMH    MOLCAS    ERIS     OPER   

              2       4        2.83       700     1000      520     2100   
                                         GEOM     BASIS   MCVARS     RHF  

 PROGRAMS   *        TOTAL        HF       INT
 CPU TIMES  *         2.27      0.21      1.91
 REAL TIME  *       261.02 SEC
 DISK USED  *        89.53 MB      
 **********************************************************************************************************************************
 SETTING SCF(I)         =       -15.70847991  AU                              
 SETTING _CC_NORM_MAX   =         2.00000000                                  


 PROGRAM * CI (Multireference internally contracted CI)     Authors: H.-J. Werner, P.J. Knowles, 1987


 Convergence thresholds:  THRVAR = 1.00D-08  THRDEN = 1.00D-06

 Number of optimized states:  1  Roots:   1
 Number of reference states:  1  Roots:   1

 Reference symmetry:                   7   Triplet 
 Number of electrons:                  6
 Maximum number of shells:             3
 Maximum number of spin couplings:     9

 Reference space:        1 conf        1 CSFs
 N elec internal:        6 conf        6 CSFs
 N-1 el internal:       14 conf       22 CSFs
 N-2 el internal:        8 conf       28 CSFs

 Number of electrons in valence space:                      6
 Maximum number of open shell orbitals in reference space:  2
 Maximum number of open shell orbitals in internal spaces:  6


 Number of closed-shell orbitals:   2 (   1   1   0   0   0   0   0   0 )
 Number of active  orbitals:        2 (   0   0   1   0   1   0   0   0 )
 Number of external orbitals:     122 (  24  19  19  11  19  11  11   8 )

 Molecular orbitals read from record     2100.2  Type=RHF/CANONICAL (state 1.7)

 Integral transformation finished. Total CPU:   0.03 sec, npass=  1  Memory used:   0.10 MW

 Number of p-space configurations:   1

 Reference wavefunction optimized for reference space (refopt=1)

 State     Reference Energy 
   1         -15.70847991

 Number of blocks in overlap matrix:    13   Smallest eigenvalue:  0.10D+01
 Number of N-2 electron functions:      13
 Number of N-1 electron functions:      22

 Number of internal configurations:                    1
 Number of singly external configurations:           347
 Number of doubly external configurations:         12470
 Total number of contracted configurations:        12818
 Total number of uncontracted configurations:      27200

 Diagonal Coupling coefficients finished.               Storage:    1620 words, CPU-Time:      0.00 seconds.
 Energy denominators for pairs finished in 1 passes.    Storage:   15731 words, CPU-time:      0.00 seconds.

  ITER. STATE  ROOT     SQ.NORM     CORR.ENERGY   TOTAL ENERGY   ENERGY CHANGE       DEN1      VAR(S)    VAR(P)      TIME
    1     1     1     1.00000000     0.00000000   -15.70847991    -0.00000000    -0.19795825  0.16D-01  0.28D-01     0.04
    2     1     1     1.03797330    -0.18390794   -15.89238785    -0.18390794    -0.00175830  0.24D-03  0.19D-03     0.10
    3     1     1     1.04003968    -0.18584847   -15.89432838    -0.00194053    -0.00008030  0.28D-04  0.90D-05     0.16
    4     1     1     1.04080486    -0.18594728   -15.89442719    -0.00009881    -0.00000471  0.98D-06  0.69D-06     0.22
    5     1     1     1.04097219    -0.18595275   -15.89443267    -0.00000547    -0.00000026  0.99D-07  0.33D-07     0.27
    6     1     1     1.04096488    -0.18595306   -15.89443297    -0.00000031    -0.00000002  0.56D-08  0.21D-08     0.33


 =====================================
 Analysis of CPU times by interactions
 =====================================

       I      S      P

 I   0.0%
 S   0.0%   3.0%
 P   0.0%   0.0%   3.0%

 Initialization:  12.1%
 Other:           81.8%

 Total CPU:        0.3 seconds
 =====================================



 Reference coefficients greater than 0.0500000
 =============================================
 22//           0.9801261



 RESULTS FOR STATE 1.7
 =====================

 Coefficient of reference function:   C(0) = 0.98012612 (fixed)   0.98012612 (relaxed)

 Energy contributions of configuration classes

 CLASS          SQ.NORM        ECORR1        ECORR2
 +++++++++++++++++++++++++++++++++++++++++++++++++++
 Internals    0.00000000    0.00000000   -0.00000000
 Singles      0.01473640   -0.04303458   -0.04397432
 Pairs        0.02622848   -0.14291848   -0.14197874
 Total        1.04096488   -0.18595306   -0.18595306
 +++++++++++++++++++++++++++++++++++++++++++++++++++


 Reference energy                     -15.70847991
 Nuclear energy                         0.00000000
 Kinetic energy                        11.78124454
 One electron energy                  -26.22479288
 Two electron energy                   10.33035991
 Virial quotient                       -1.34913021
 Correlation energy                    -0.18595306
 !CI(SD) STATE 1.7 Energy             -15.894432971427

 Properties without orbital relaxation:

 !CI(SD) STATE 1.7 Dipole moment        0.00000000     0.00000000     0.00000000
 Dipole moment /Debye                   0.00000000     0.00000000     0.00000000

 Cluster corrected energies           -15.90205052 (Davidson, fixed reference)
 Cluster corrected energies           -15.90205052 (Davidson, relaxed reference)

 Cluster corrected energies           -15.89824015 (Pople, fixed reference)
 Cluster corrected energies           -15.89824015 (Pople, relaxed reference)

 

 !CI(SD) expec       <1.7|EKIN|1.7>    11.781244540583
 
 !CI(SD) expec        <1.7|POT|1.7>    -6.642512996463


 **********************************************************************************************************************************
 DATASETS  * FILE   NREC   LENGTH (MB)   RECORD NAMES
              1      21       38.94       500      610      700      900      950      970     1000      129      960     1100   
                                          VAR    BASINP    GEOM    SYMINP    ZMAT    AOBASIS   BASIS     P2S    ABASIS      S 
                                         1400     1410     1420     1200     1210     1080     1600     1650     1300     1700   
                                         EKIN       V       ECP      H0       H01     AOSYM     SMH    MOLCAS    ERIS     OPER   
                                         1380   
                                         JKOP   

              2       4        2.83       700     1000      520     2100   
                                         GEOM     BASIS   MCVARS     RHF  

 PROGRAMS   *        TOTAL        CI        HF       INT
 CPU TIMES  *         2.63      0.36      0.21      1.91
 REAL TIME  *       261.87 SEC
 DISK USED  *        89.53 MB      
 **********************************************************************************************************************************
 SETTING POSTHF(I)      =       -15.89443297  AU                              
                                                                                                                                                                                                                                                                

        SCF            POSTHF        EKIN          POT
    -15.70847991   -15.89443297   11.78124454   -6.64251300
                                                  

 CI/USERDEF energy=    -15.894432971427

        CI              HF-SCF  
    -15.89443297    -15.70847991
 **********************************************************************************************************************************
 Variable memory released
