 Entering Gaussian System, Link 0=g16
 Initial command:
 /home1/apps/gaussian/16rA.03/g16/l1.exe "/tmp/Gau-353632.inp" -scrdir="/tmp/"
 Entering Link 1 = /home1/apps/gaussian/16rA.03/g16/l1.exe PID=    353633.
  
 Copyright (c) 1988,1990,1992,1993,1995,1998,2003,2009,2016,
            Gaussian, Inc.  All Rights Reserved.
  
 This is part of the Gaussian(R) 16 program.  It is based on
 the Gaussian(R) 09 system (copyright 2009, Gaussian, Inc.),
 the Gaussian(R) 03 system (copyright 2003, Gaussian, Inc.),
 the Gaussian(R) 98 system (copyright 1998, Gaussian, Inc.),
 the Gaussian(R) 94 system (copyright 1995, Gaussian, Inc.),
 the Gaussian 92(TM) system (copyright 1992, Gaussian, Inc.),
 the Gaussian 90(TM) system (copyright 1990, Gaussian, Inc.),
 the Gaussian 88(TM) system (copyright 1988, Gaussian, Inc.),
 the Gaussian 86(TM) system (copyright 1986, Carnegie Mellon
 University), and the Gaussian 82(TM) system (copyright 1983,
 Carnegie Mellon University). Gaussian is a federally registered
 trademark of Gaussian, Inc.
  
 This software contains proprietary and confidential information,
 including trade secrets, belonging to Gaussian, Inc.
  
 This software is provided under written license and may be
 used, copied, transmitted, or stored only in accord with that
 written license.
  
 The following legend is applicable only to US Government
 contracts under FAR:
  
                    RESTRICTED RIGHTS LEGEND
  
 Use, reproduction and disclosure by the US Government is
 subject to restrictions as set forth in subparagraphs (a)
 and (c) of the Commercial Computer Software - Restricted
 Rights clause in FAR 52.227-19.
  
 Gaussian, Inc.
 340 Quinnipiac St., Bldg. 40, Wallingford CT 06492
  
  
 ---------------------------------------------------------------
 Warning -- This program may not be used in any manner that
 competes with the business of Gaussian, Inc. or will provide
 assistance to any competitor of Gaussian, Inc.  The licensee
 of this program is prohibited from giving any competitor of
 Gaussian, Inc. access to this program.  By using this program,
 the user acknowledges that Gaussian, Inc. is engaged in the
 business of creating and licensing software in the field of
 computational chemistry and represents and warrants to the
 licensee that it is not a competitor of Gaussian, Inc. and that
 it will not use this program in any manner prohibited above.
 ---------------------------------------------------------------
  

 Cite this work as:
 Gaussian 16, Revision A.03,
 M. J. Frisch, G. W. Trucks, H. B. Schlegel, G. E. Scuseria, 
 M. A. Robb, J. R. Cheeseman, G. Scalmani, V. Barone, 
 G. A. Petersson, H. Nakatsuji, X. Li, M. Caricato, A. V. Marenich, 
 J. Bloino, B. G. Janesko, R. Gomperts, B. Mennucci, H. P. Hratchian, 
 J. V. Ortiz, A. F. Izmaylov, J. L. Sonnenberg, D. Williams-Young, 
 F. Ding, F. Lipparini, F. Egidi, J. Goings, B. Peng, A. Petrone, 
 T. Henderson, D. Ranasinghe, V. G. Zakrzewski, J. Gao, N. Rega, 
 G. Zheng, W. Liang, M. Hada, M. Ehara, K. Toyota, R. Fukuda, 
 J. Hasegawa, M. Ishida, T. Nakajima, Y. Honda, O. Kitao, H. Nakai, 
 T. Vreven, K. Throssell, J. A. Montgomery, Jr., J. E. Peralta, 
 F. Ogliaro, M. J. Bearpark, J. J. Heyd, E. N. Brothers, K. N. Kudin, 
 V. N. Staroverov, T. A. Keith, R. Kobayashi, J. Normand, 
 K. Raghavachari, A. P. Rendell, J. C. Burant, S. S. Iyengar, 
 J. Tomasi, M. Cossi, J. M. Millam, M. Klene, C. Adamo, R. Cammi, 
 J. W. Ochterski, R. L. Martin, K. Morokuma, O. Farkas, 
 J. B. Foresman, and D. J. Fox, Gaussian, Inc., Wallingford CT, 2016.
 
 ******************************************
 Gaussian 16:  ES64L-G16RevA.03 25-Dec-2016
                21-Nov-2018 
 ******************************************
 %MEM=160GB
 %CPU=0-15
 SetSPE:  set environment variable "MP_BIND" = "yes"
 SetSPE:  set environment variable "MP_BLIST" = "0,1,2,3,4,5,6,7,8,9,10,11,12,13,14,15"
 Will use up to   16 processors via shared memory.
 %RWF=/scratch/04843/aannabe/gaussian/
 %Int=/scratch/04843/aannabe/gaussian/
 %D2E=/scratch/04843/aannabe/gaussian/
 %NoSave
 %CHK=Fe
 ----------------------------------------------------------------------
 #P ROHF/Gen 5d 7f SCF=(maxcycles=300, VShift=100) MaxDisk=500GB Integr
 al=NoBasisTransform GFPRINT Pop=Full Pseudo=Read Guess=Read IOp(5/15=2
 )
 ----------------------------------------------------------------------
 1/38=1,172=1/1;
 2/12=2,17=6,18=5,40=1/2;
 3/5=7,8=11,11=2,16=1,17=8,24=100,25=1,30=1,60=-1,116=101/1,2,3;
 4/5=1/1;
 5/5=2,7=300,10=100,15=2,38=6/2;
 6/7=3,28=1/1;
 99/5=1,9=1/99;
 Leave Link    1 at Wed Nov 21 10:33:01 2018, MaxMem= 21474836480 cpu:               2.5 elap:               0.2
 (Enter /home1/apps/gaussian/16rA.03/g16/l101.exe)
 --
 Fe
 --
 Symbolic Z-matrix:
 Charge =  0 Multiplicity = 5
 Fe                    0.        0.        0. 
 
 ITRead=  0
 MicOpt= -1
 NAtoms=      1 NQM=        1 NQMF=       0 NMMI=      0 NMMIF=      0
                NMic=       0 NMicF=      0.
                    Isotopes and Nuclear Properties:
 (Nuclear quadrupole moments (NQMom) in fm**2, nuclear magnetic moments (NMagM)
  in nuclear magnetons)

  Atom         1
 IAtWgt=          56
 AtmWgt=  55.9349393
 NucSpn=           0
 AtZEff=  -0.0000000
 NQMom=    0.0000000
 NMagM=    0.0000000
 AtZNuc=  26.0000000
 Leave Link  101 at Wed Nov 21 10:33:01 2018, MaxMem= 21474836480 cpu:               1.4 elap:               0.1
 (Enter /home1/apps/gaussian/16rA.03/g16/l202.exe)
                          Input orientation:                          
 ---------------------------------------------------------------------
 Center     Atomic      Atomic             Coordinates (Angstroms)
 Number     Number       Type             X           Y           Z
 ---------------------------------------------------------------------
      1         26           0        0.000000    0.000000    0.000000
 ---------------------------------------------------------------------
 Stoichiometry    Fe(5)
 Framework group  OH[O(Fe)]
 Deg. of freedom     0
 Full point group                 OH      NOp  48
 Largest Abelian subgroup         D2H     NOp   8
 Largest concise Abelian subgroup C1      NOp   1
                         Standard orientation:                         
 ---------------------------------------------------------------------
 Center     Atomic      Atomic             Coordinates (Angstroms)
 Number     Number       Type             X           Y           Z
 ---------------------------------------------------------------------
      1         26           0        0.000000    0.000000    0.000000
 ---------------------------------------------------------------------
 Leave Link  202 at Wed Nov 21 10:33:01 2018, MaxMem= 21474836480 cpu:               0.7 elap:               0.1
 (Enter /home1/apps/gaussian/16rA.03/g16/l301.exe)
 General basis read from cards:  (5D, 7F)
 Centers:       1
 S 13 1.0
     Exponent=  8.4322332000D+01 Coefficients=  7.8500000000D-04
     Exponent=  4.4203528000D+01 Coefficients= -1.2781000000D-02
     Exponent=  2.3288963000D+01 Coefficients=  1.0463500000D-01
     Exponent=  1.3385163000D+01 Coefficients= -1.1938500000D-01
     Exponent=  7.5180520000D+00 Coefficients= -3.3980400000D-01
     Exponent=  4.1018350000D+00 Coefficients= -4.9994000000D-02
     Exponent=  2.2535710000D+00 Coefficients=  4.7695500000D-01
     Exponent=  1.1349240000D+00 Coefficients=  5.9322200000D-01
     Exponent=  5.6155000000D-01 Coefficients=  2.0015100000D-01
     Exponent=  2.0196100000D-01 Coefficients=  8.5910000000D-03
     Exponent=  1.0869800000D-01 Coefficients= -2.1880000000D-03
     Exponent=  5.3619000000D-02 Coefficients=  6.7700000000D-04
     Exponent=  2.5823000000D-02 Coefficients= -1.4400000000D-04
 S 13 1.0
     Exponent=  8.4322332000D+01 Coefficients= -1.6200000000D-04
     Exponent=  4.4203528000D+01 Coefficients=  2.9210000000D-03
     Exponent=  2.3288963000D+01 Coefficients= -2.5466000000D-02
     Exponent=  1.3385163000D+01 Coefficients=  3.1182000000D-02
     Exponent=  7.5180520000D+00 Coefficients=  8.6849000000D-02
     Exponent=  4.1018350000D+00 Coefficients=  6.8460000000D-03
     Exponent=  2.2535710000D+00 Coefficients= -1.3185600000D-01
     Exponent=  1.1349240000D+00 Coefficients= -2.2774600000D-01
     Exponent=  5.6155000000D-01 Coefficients= -1.7307900000D-01
     Exponent=  2.0196100000D-01 Coefficients=  1.3614200000D-01
     Exponent=  1.0869800000D-01 Coefficients=  4.3401300000D-01
     Exponent=  5.3619000000D-02 Coefficients=  4.7755500000D-01
     Exponent=  2.5823000000D-02 Coefficients=  1.2880400000D-01
 S 13 1.0
     Exponent=  8.4322332000D+01 Coefficients=  2.0000000000D-06
     Exponent=  4.4203528000D+01 Coefficients=  4.1030000000D-03
     Exponent=  2.3288963000D+01 Coefficients= -4.6840000000D-02
     Exponent=  1.3385163000D+01 Coefficients=  5.2833000000D-02
     Exponent=  7.5180520000D+00 Coefficients=  2.1809400000D-01
     Exponent=  4.1018350000D+00 Coefficients= -4.4999000000D-02
     Exponent=  2.2535710000D+00 Coefficients= -2.8738600000D-01
     Exponent=  1.1349240000D+00 Coefficients= -7.1322000000D-01
     Exponent=  5.6155000000D-01 Coefficients=  2.4917400000D-01
     Exponent=  2.0196100000D-01 Coefficients=  1.2998720000D+00
     Exponent=  1.0869800000D-01 Coefficients=  1.9211900000D-01
     Exponent=  5.3619000000D-02 Coefficients= -6.5861600000D-01
     Exponent=  2.5823000000D-02 Coefficients= -5.2104700000D-01
 S 13 1.0
     Exponent=  8.4322332000D+01 Coefficients=  1.2000000000D-05
     Exponent=  4.4203528000D+01 Coefficients=  7.5980000000D-03
     Exponent=  2.3288963000D+01 Coefficients= -9.4133000000D-02
     Exponent=  1.3385163000D+01 Coefficients=  1.2765500000D-01
     Exponent=  7.5180520000D+00 Coefficients=  4.3559800000D-01
     Exponent=  4.1018350000D+00 Coefficients= -1.4791100000D-01
     Exponent=  2.2535710000D+00 Coefficients= -1.0844770000D+00
     Exponent=  1.1349240000D+00 Coefficients= -8.8700300000D-01
     Exponent=  5.6155000000D-01 Coefficients=  2.4499460000D+00
     Exponent=  2.0196100000D-01 Coefficients=  1.6797600000D-01
     Exponent=  1.0869800000D-01 Coefficients= -2.1146680000D+00
     Exponent=  5.3619000000D-02 Coefficients=  4.5257900000D-01
     Exponent=  2.5823000000D-02 Coefficients=  8.0144400000D-01
 S 13 1.0
     Exponent=  8.4322332000D+01 Coefficients=  3.3010000000D-03
     Exponent=  4.4203528000D+01 Coefficients= -2.9197000000D-02
     Exponent=  2.3288963000D+01 Coefficients=  2.1322700000D-01
     Exponent=  1.3385163000D+01 Coefficients= -4.0810900000D-01
     Exponent=  7.5180520000D+00 Coefficients= -3.8565100000D-01
     Exponent=  4.1018350000D+00 Coefficients=  1.6809300000D-01
     Exponent=  2.2535710000D+00 Coefficients=  3.1025290000D+00
     Exponent=  1.1349240000D+00 Coefficients= -3.3604460000D+00
     Exponent=  5.6155000000D-01 Coefficients= -5.3161900000D-01
     Exponent=  2.0196100000D-01 Coefficients=  4.4939810000D+00
     Exponent=  1.0869800000D-01 Coefficients= -3.6897500000D+00
     Exponent=  5.3619000000D-02 Coefficients= -5.1060400000D-01
     Exponent=  2.5823000000D-02 Coefficients=  1.3010210000D+00
 S 13 1.0
     Exponent=  8.4322332000D+01 Coefficients= -1.2980000000D-03
     Exponent=  4.4203528000D+01 Coefficients= -5.5380000000D-03
     Exponent=  2.3288963000D+01 Coefficients=  1.8408000000D-01
     Exponent=  1.3385163000D+01 Coefficients= -3.3916500000D-01
     Exponent=  7.5180520000D+00 Coefficients= -1.4608390000D+00
     Exponent=  4.1018350000D+00 Coefficients=  3.3823030000D+00
     Exponent=  2.2535710000D+00 Coefficients=  8.4327700000D-01
     Exponent=  1.1349240000D+00 Coefficients= -7.0173710000D+00
     Exponent=  5.6155000000D-01 Coefficients=  7.2913720000D+00
     Exponent=  2.0196100000D-01 Coefficients= -4.2466800000D+00
     Exponent=  1.0869800000D-01 Coefficients=  8.9576000000D-02
     Exponent=  5.3619000000D-02 Coefficients=  3.2269240000D+00
     Exponent=  2.5823000000D-02 Coefficients= -1.9297190000D+00
 S 1 1.0
     Exponent=  2.5823000000D-02 Coefficients=  1.0000000000D+00
 S 1 1.0
     Exponent=  1.2000000000D-02 Coefficients=  1.0000000000D+00
 P 13 1.0
     Exponent=  1.2509277500D+02 Coefficients=  5.6000000000D-05
     Exponent=  6.5211589000D+01 Coefficients= -5.7200000000D-04
     Exponent=  3.4437599000D+01 Coefficients=  7.3880000000D-03
     Exponent=  1.8930704000D+01 Coefficients= -2.8481000000D-02
     Exponent=  1.0873415000D+01 Coefficients= -6.3005000000D-02
     Exponent=  6.0121720000D+00 Coefficients=  2.4855000000D-02
     Exponent=  3.3722050000D+00 Coefficients=  2.7747400000D-01
     Exponent=  1.7686410000D+00 Coefficients=  4.2538600000D-01
     Exponent=  9.1451600000D-01 Coefficients=  3.1414500000D-01
     Exponent=  4.6089500000D-01 Coefficients=  9.0422000000D-02
     Exponent=  2.0449000000D-01 Coefficients=  6.9770000000D-03
     Exponent=  7.4741000000D-02 Coefficients=  1.1540000000D-03
     Exponent=  3.5671000000D-02 Coefficients=  3.0300000000D-04
 P 13 1.0
     Exponent=  1.2509277500D+02 Coefficients=  2.5000000000D-05
     Exponent=  6.5211589000D+01 Coefficients= -7.0000000000D-05
     Exponent=  3.4437599000D+01 Coefficients= -1.0420000000D-03
     Exponent=  1.8930704000D+01 Coefficients=  5.1270000000D-03
     Exponent=  1.0873415000D+01 Coefficients=  1.8404000000D-02
     Exponent=  6.0121720000D+00 Coefficients= -1.4692000000D-02
     Exponent=  3.3722050000D+00 Coefficients= -6.1307000000D-02
     Exponent=  1.7686410000D+00 Coefficients= -1.2863800000D-01
     Exponent=  9.1451600000D-01 Coefficients= -7.0637000000D-02
     Exponent=  4.6089500000D-01 Coefficients= -1.6314000000D-02
     Exponent=  2.0449000000D-01 Coefficients=  3.8070200000D-01
     Exponent=  7.4741000000D-02 Coefficients=  5.2307100000D-01
     Exponent=  3.5671000000D-02 Coefficients=  2.3576500000D-01
 P 13 1.0
     Exponent=  1.2509277500D+02 Coefficients= -1.9700000000D-04
     Exponent=  6.5211589000D+01 Coefficients=  1.2510000000D-03
     Exponent=  3.4437599000D+01 Coefficients= -9.1540000000D-03
     Exponent=  1.8930704000D+01 Coefficients=  3.8201000000D-02
     Exponent=  1.0873415000D+01 Coefficients=  4.3097000000D-02
     Exponent=  6.0121720000D+00 Coefficients= -2.9475000000D-02
     Exponent=  3.3722050000D+00 Coefficients= -4.2699600000D-01
     Exponent=  1.7686410000D+00 Coefficients= -3.9484000000D-01
     Exponent=  9.1451600000D-01 Coefficients=  7.7230000000D-02
     Exponent=  4.6089500000D-01 Coefficients=  1.1198810000D+00
     Exponent=  2.0449000000D-01 Coefficients= -6.6494000000D-02
     Exponent=  7.4741000000D-02 Coefficients= -7.2158300000D-01
     Exponent=  3.5671000000D-02 Coefficients= -5.6950000000D-03
 P 13 1.0
     Exponent=  1.2509277500D+02 Coefficients=  2.6400000000D-04
     Exponent=  6.5211589000D+01 Coefficients= -1.0760000000D-03
     Exponent=  3.4437599000D+01 Coefficients= -2.5910000000D-03
     Exponent=  1.8930704000D+01 Coefficients=  3.5519000000D-02
     Exponent=  1.0873415000D+01 Coefficients=  1.1955400000D-01
     Exponent=  6.0121720000D+00 Coefficients= -2.0471400000D-01
     Exponent=  3.3722050000D+00 Coefficients= -7.6062700000D-01
     Exponent=  1.7686410000D+00 Coefficients= -2.6274000000D-01
     Exponent=  9.1451600000D-01 Coefficients=  1.7790300000D+00
     Exponent=  4.6089500000D-01 Coefficients= -4.6274200000D-01
     Exponent=  2.0449000000D-01 Coefficients= -1.2410300000D+00
     Exponent=  7.4741000000D-02 Coefficients=  9.4098700000D-01
     Exponent=  3.5671000000D-02 Coefficients=  8.3496000000D-02
 P 13 1.0
     Exponent=  1.2509277500D+02 Coefficients= -8.4000000000D-05
     Exponent=  6.5211589000D+01 Coefficients=  7.6800000000D-04
     Exponent=  3.4437599000D+01 Coefficients= -9.4850000000D-03
     Exponent=  1.8930704000D+01 Coefficients=  8.8062000000D-02
     Exponent=  1.0873415000D+01 Coefficients=  1.5619100000D-01
     Exponent=  6.0121720000D+00 Coefficients= -6.1916600000D-01
     Exponent=  3.3722050000D+00 Coefficients= -1.3855340000D+00
     Exponent=  1.7686410000D+00 Coefficients=  2.4921250000D+00
     Exponent=  9.1451600000D-01 Coefficients=  8.0760000000D-03
     Exponent=  4.6089500000D-01 Coefficients= -2.4995150000D+00
     Exponent=  2.0449000000D-01 Coefficients=  2.2655760000D+00
     Exponent=  7.4741000000D-02 Coefficients= -7.4834200000D-01
     Exponent=  3.5671000000D-02 Coefficients= -2.1159800000D-01
 P 13 1.0
     Exponent=  1.2509277500D+02 Coefficients= -2.5440000000D-03
     Exponent=  6.5211589000D+01 Coefficients=  1.3040000000D-02
     Exponent=  3.4437599000D+01 Coefficients= -3.9444000000D-02
     Exponent=  1.8930704000D+01 Coefficients= -2.4594000000D-02
     Exponent=  1.0873415000D+01 Coefficients= -5.2157100000D-01
     Exponent=  6.0121720000D+00 Coefficients=  2.7399930000D+00
     Exponent=  3.3722050000D+00 Coefficients= -1.7426490000D+00
     Exponent=  1.7686410000D+00 Coefficients= -2.8440060000D+00
     Exponent=  9.1451600000D-01 Coefficients=  5.8708260000D+00
     Exponent=  4.6089500000D-01 Coefficients= -4.9023060000D+00
     Exponent=  2.0449000000D-01 Coefficients=  2.1361760000D+00
     Exponent=  7.4741000000D-02 Coefficients= -1.2162600000D-01
     Exponent=  3.5671000000D-02 Coefficients= -4.8621900000D-01
 P 1 1.0
     Exponent=  3.5671000000D-02 Coefficients=  1.0000000000D+00
 P 1 1.0
     Exponent=  1.7000000000D-02 Coefficients=  1.0000000000D+00
 D 11 1.0
     Exponent=  1.5273674200D+02 Coefficients=  2.9000000000D-05
     Exponent=  5.0772485000D+01 Coefficients=  5.2380000000D-03
     Exponent=  2.6253589000D+01 Coefficients=  2.9325000000D-02
     Exponent=  1.2137022000D+01 Coefficients=  7.4901000000D-02
     Exponent=  5.8537190000D+00 Coefficients=  1.6341100000D-01
     Exponent=  2.8562240000D+00 Coefficients=  2.5105700000D-01
     Exponent=  1.3861320000D+00 Coefficients=  2.8760300000D-01
     Exponent=  6.7080200000D-01 Coefficients=  2.5186200000D-01
     Exponent=  3.3028000000D-01 Coefficients=  1.8673600000D-01
     Exponent=  1.7090700000D-01 Coefficients=  9.3570000000D-02
     Exponent=  8.6794000000D-02 Coefficients=  7.3811000000D-02
 D 11 1.0
     Exponent=  1.5273674200D+02 Coefficients= -2.6000000000D-05
     Exponent=  5.0772485000D+01 Coefficients= -6.3290000000D-03
     Exponent=  2.6253589000D+01 Coefficients= -3.4398000000D-02
     Exponent=  1.2137022000D+01 Coefficients= -9.1765000000D-02
     Exponent=  5.8537190000D+00 Coefficients= -2.0159200000D-01
     Exponent=  2.8562240000D+00 Coefficients= -2.8393000000D-01
     Exponent=  1.3861320000D+00 Coefficients= -1.6198100000D-01
     Exponent=  6.7080200000D-01 Coefficients=  1.2882200000D-01
     Exponent=  3.3028000000D-01 Coefficients=  3.6016000000D-01
     Exponent=  1.7090700000D-01 Coefficients=  2.7759200000D-01
     Exponent=  8.6794000000D-02 Coefficients=  2.6140300000D-01
 D 11 1.0
     Exponent=  1.5273674200D+02 Coefficients=  5.1000000000D-05
     Exponent=  5.0772485000D+01 Coefficients=  8.7690000000D-03
     Exponent=  2.6253589000D+01 Coefficients=  4.7921000000D-02
     Exponent=  1.2137022000D+01 Coefficients=  1.3247500000D-01
     Exponent=  5.8537190000D+00 Coefficients=  2.9727900000D-01
     Exponent=  2.8562240000D+00 Coefficients=  2.7501800000D-01
     Exponent=  1.3861320000D+00 Coefficients= -2.2284200000D-01
     Exponent=  6.7080200000D-01 Coefficients= -6.1906700000D-01
     Exponent=  3.3028000000D-01 Coefficients= -7.6290000000D-02
     Exponent=  1.7090700000D-01 Coefficients=  2.5605600000D-01
     Exponent=  8.6794000000D-02 Coefficients=  5.4148200000D-01
 D 11 1.0
     Exponent=  1.5273674200D+02 Coefficients= -9.6000000000D-05
     Exponent=  5.0772485000D+01 Coefficients= -1.2144000000D-02
     Exponent=  2.6253589000D+01 Coefficients= -6.6971000000D-02
     Exponent=  1.2137022000D+01 Coefficients= -1.9602500000D-01
     Exponent=  5.8537190000D+00 Coefficients= -4.6900300000D-01
     Exponent=  2.8562240000D+00 Coefficients=  4.6560000000D-02
     Exponent=  1.3861320000D+00 Coefficients=  9.8594000000D-01
     Exponent=  6.7080200000D-01 Coefficients= -2.2043500000D-01
     Exponent=  3.3028000000D-01 Coefficients= -7.5248200000D-01
     Exponent=  1.7090700000D-01 Coefficients= -1.1112300000D-01
     Exponent=  8.6794000000D-02 Coefficients=  7.5310000000D-01
 D 11 1.0
     Exponent=  1.5273674200D+02 Coefficients= -3.2000000000D-05
     Exponent=  5.0772485000D+01 Coefficients= -1.6411000000D-02
     Exponent=  2.6253589000D+01 Coefficients= -8.1036000000D-02
     Exponent=  1.2137022000D+01 Coefficients= -2.9264100000D-01
     Exponent=  5.8537190000D+00 Coefficients= -5.7581900000D-01
     Exponent=  2.8562240000D+00 Coefficients=  1.1511560000D+00
     Exponent=  1.3861320000D+00 Coefficients=  1.6896300000D-01
     Exponent=  6.7080200000D-01 Coefficients= -1.4895450000D+00
     Exponent=  3.3028000000D-01 Coefficients=  7.4153600000D-01
     Exponent=  1.7090700000D-01 Coefficients=  9.7927900000D-01
     Exponent=  8.6794000000D-02 Coefficients= -1.0449050000D+00
 D 1 1.0
     Exponent=  8.6794000000D-02 Coefficients=  1.0000000000D+00
 D 1 1.0
     Exponent=  4.0000000000D-02 Coefficients=  1.0000000000D+00
 F 1 1.0
     Exponent=  1.1577800000D-01 Coefficients=  1.0000000000D+00
 F 1 1.0
     Exponent=  3.3436700000D-01 Coefficients=  1.0000000000D+00
 F 1 1.0
     Exponent=  9.6565000000D-01 Coefficients=  1.0000000000D+00
 F 1 1.0
     Exponent=  2.7887930000D+00 Coefficients=  1.0000000000D+00
 F 1 1.0
     Exponent=  8.0540200000D+00 Coefficients=  1.0000000000D+00
 G 1 1.0
     Exponent=  2.2772600000D-01 Coefficients=  1.0000000000D+00
 G 1 1.0
     Exponent=  6.7344400000D-01 Coefficients=  1.0000000000D+00
 G 1 1.0
     Exponent=  1.9915500000D+00 Coefficients=  1.0000000000D+00
 G 1 1.0
     Exponent=  5.8895320000D+00 Coefficients=  1.0000000000D+00
 H 1 1.0
     Exponent=  4.1485500000D-01 Coefficients=  1.0000000000D+00
 H 1 1.0
     Exponent=  1.3448070000D+00 Coefficients=  1.0000000000D+00
 H 1 1.0
     Exponent=  4.3593710000D+00 Coefficients=  1.0000000000D+00
 I 1 1.0
     Exponent=  1.2160550000D+00 Coefficients=  1.0000000000D+00
 I 1 1.0
     Exponent=  3.1822220000D+00 Coefficients=  1.0000000000D+00
 S 1 1.0
     Exponent=  3.4368920000D+00 Coefficients=  1.0000000000D+00
 P 1 1.0
     Exponent=  3.5241600000D+00 Coefficients=  1.0000000000D+00
 P 1 1.0
     Exponent=  8.8385020000D+00 Coefficients=  1.0000000000D+00
 D 1 1.0
     Exponent=  5.5819350000D+00 Coefficients=  1.0000000000D+00
 F 1 1.0
     Exponent=  4.2529840000D+00 Coefficients=  1.0000000000D+00
 G 1 1.0
     Exponent=  4.7264580000D+00 Coefficients=  1.0000000000D+00
 H 1 1.0
     Exponent=  7.0085430000D+00 Coefficients=  1.0000000000D+00
 I 1 1.0
     Exponent=  7.1108530000D+00 Coefficients=  1.0000000000D+00
 ****
 ======================================================================================================
                                       Pseudopotential Parameters
 ======================================================================================================
  Center     Atomic      Valence      Angular      Power
  Number     Number     Electrons     Momentum     of R      Exponent        Coefficient   SO-Coeffient
 ======================================================================================================
    1         26           16
                                      D and up 
                                                     1       23.2209171       16.00000000    0.00000000
                                                     3       23.5471468      371.53467418    0.00000000
                                                     2       23.4725634     -181.22603445    0.00000000
                                                     2        9.8523882       -2.37305236    0.00000000
                                      S - D
                                                     2       22.2106270      277.50032547    0.00000000
                                                     2        9.5151580       46.20495585    0.00000000
                                      P - D
                                                     2       24.5700087      194.99875057    0.00000000
                                                     2        8.8664878       31.67945133    0.00000000
 ======================================================================================================
 AO basis set (Overlap normalization):
 Atom Fe1      Shell     1 S  13     bf    1 -     1          0.000000000000          0.000000000000          0.000000000000
      0.8432233200D+02  0.7850009940D-03
      0.4420352800D+02 -0.1278101618D-01
      0.2328896300D+02  0.1046351325D+00
      0.1338516300D+02 -0.1193851512D+00
      0.7518052000D+01 -0.3398044303D+00
      0.4101835000D+01 -0.4999406331D-01
      0.2253571000D+01  0.4769556040D+00
      0.1134924000D+01  0.5932227512D+00
      0.5615500000D+00  0.2001512534D+00
      0.2019610000D+00  0.8591010879D-02
      0.1086980000D+00 -0.2188002771D-02
      0.5361900000D-01  0.6770008573D-03
      0.2582300000D-01 -0.1440001823D-03
 Atom Fe1      Shell     2 S  13     bf    2 -     2          0.000000000000          0.000000000000          0.000000000000
      0.8432233200D+02 -0.1619999940D-03
      0.4420352800D+02  0.2920999892D-02
      0.2328896300D+02 -0.2546599906D-01
      0.1338516300D+02  0.3118199884D-01
      0.7518052000D+01  0.8684899678D-01
      0.4101835000D+01  0.6845999746D-02
      0.2253571000D+01 -0.1318559951D+00
      0.1134924000D+01 -0.2277459916D+00
      0.5615500000D+00 -0.1730789936D+00
      0.2019610000D+00  0.1361419950D+00
      0.1086980000D+00  0.4340129839D+00
      0.5361900000D-01  0.4775549823D+00
      0.2582300000D-01  0.1288039952D+00
 Atom Fe1      Shell     3 S  13     bf    3 -     3          0.000000000000          0.000000000000          0.000000000000
      0.8432233200D+02  0.2000010727D-05
      0.4420352800D+02  0.4103022006D-02
      0.2328896300D+02 -0.4684025123D-01
      0.1338516300D+02  0.5283328337D-01
      0.7518052000D+01  0.2180951697D+00
      0.4101835000D+01 -0.4499924135D-01
      0.2253571000D+01 -0.2873875414D+00
      0.1134924000D+01 -0.7132238253D+00
      0.5615500000D+00  0.2491753364D+00
      0.2019610000D+00  0.1299878972D+01
      0.1086980000D+00  0.1921200304D+00
      0.5361900000D-01 -0.6586195325D+00
      0.2582300000D-01 -0.5210497946D+00
 Atom Fe1      Shell     4 S  13     bf    4 -     4          0.000000000000          0.000000000000          0.000000000000
      0.8432233200D+02  0.1200000626D-04
      0.4420352800D+02  0.7598003966D-02
      0.2328896300D+02 -0.9413304913D-01
      0.1338516300D+02  0.1276550666D+00
      0.7518052000D+01  0.4355982274D+00
      0.4101835000D+01 -0.1479110772D+00
      0.2253571000D+01 -0.1084477566D+01
      0.1134924000D+01 -0.8870034630D+00
      0.5615500000D+00  0.2449947279D+01
      0.2019610000D+00  0.1679760877D+00
      0.1086980000D+00 -0.2114669104D+01
      0.5361900000D-01  0.4525792362D+00
      0.2582300000D-01  0.8014444183D+00
 Atom Fe1      Shell     5 S  13     bf    5 -     5          0.000000000000          0.000000000000          0.000000000000
      0.8432233200D+02  0.3301000752D-02
      0.4420352800D+02 -0.2919700665D-01
      0.2328896300D+02  0.2132270486D+00
      0.1338516300D+02 -0.4081090930D+00
      0.7518052000D+01 -0.3856510879D+00
      0.4101835000D+01  0.1680930383D+00
      0.2253571000D+01  0.3102529707D+01
      0.1134924000D+01 -0.3360446766D+01
      0.5615500000D+00 -0.5316191211D+00
      0.2019610000D+00  0.4493982024D+01
      0.1086980000D+00 -0.3689750841D+01
      0.5361900000D-01 -0.5106041163D+00
      0.2582300000D-01  0.1301021296D+01
 Atom Fe1      Shell     6 S  13     bf    6 -     6          0.000000000000          0.000000000000          0.000000000000
      0.8432233200D+02 -0.1298001491D-02
      0.4420352800D+02 -0.5538006360D-02
      0.2328896300D+02  0.1840802114D+00
      0.1338516300D+02 -0.3391653895D+00
      0.7518052000D+01 -0.1460840678D+01
      0.4101835000D+01  0.3382306885D+01
      0.2253571000D+01  0.8432779685D+00
      0.1134924000D+01 -0.7017379059D+01
      0.5615500000D+00  0.7291380374D+01
      0.2019610000D+00 -0.4246684877D+01
      0.1086980000D+00  0.8957610288D-01
      0.5361900000D-01  0.3226927706D+01
      0.2582300000D-01 -0.1929721216D+01
 Atom Fe1      Shell     7 S   1     bf    7 -     7          0.000000000000          0.000000000000          0.000000000000
      0.2582300000D-01  0.1000000000D+01
 Atom Fe1      Shell     8 S   1     bf    8 -     8          0.000000000000          0.000000000000          0.000000000000
      0.1200000000D-01  0.1000000000D+01
 Atom Fe1      Shell     9 P  13     bf    9 -    11          0.000000000000          0.000000000000          0.000000000000
      0.1250927750D+03  0.5599997399D-04
      0.6521158900D+02 -0.5719997343D-03
      0.3443759900D+02  0.7387996568D-02
      0.1893070400D+02 -0.2848098677D-01
      0.1087341500D+02 -0.6300497073D-01
      0.6012172000D+01  0.2485498845D-01
      0.3372205000D+01  0.2774738711D+00
      0.1768641000D+01  0.4253858024D+00
      0.9145160000D+00  0.3141448541D+00
      0.4608950000D+00  0.9042195800D-01
      0.2044900000D+00  0.6976996759D-02
      0.7474100000D-01  0.1153999464D-02
      0.3567100000D-01  0.3029998592D-03
 Atom Fe1      Shell    10 P  13     bf   12 -    14          0.000000000000          0.000000000000          0.000000000000
      0.1250927750D+03  0.2499998273D-04
      0.6521158900D+02 -0.6999995165D-04
      0.3443759900D+02 -0.1041999280D-02
      0.1893070400D+02  0.5126996459D-02
      0.1087341500D+02  0.1840398729D-01
      0.6012172000D+01 -0.1469198985D-01
      0.3372205000D+01 -0.6130695766D-01
      0.1768641000D+01 -0.1286379112D+00
      0.9145160000D+00 -0.7063695121D-01
      0.4608950000D+00 -0.1631398873D-01
      0.2044900000D+00  0.3807017371D+00
      0.7474100000D-01  0.5230706387D+00
      0.3567100000D-01  0.2357648372D+00
 Atom Fe1      Shell    11 P  13     bf   15 -    17          0.000000000000          0.000000000000          0.000000000000
      0.1250927750D+03 -0.1969999191D-03
      0.6521158900D+02  0.1250999486D-02
      0.3443759900D+02 -0.9153996241D-02
      0.1893070400D+02  0.3820098431D-01
      0.1087341500D+02  0.4309698230D-01
      0.6012172000D+01 -0.2947498790D-01
      0.3372205000D+01 -0.4269958246D+00
      0.1768641000D+01 -0.3948398379D+00
      0.9145160000D+00  0.7722996828D-01
      0.4608950000D+00  0.1119880540D+01
      0.2044900000D+00 -0.6649397269D-01
      0.7474100000D-01 -0.7215827037D+00
      0.3567100000D-01 -0.5694997661D-02
 Atom Fe1      Shell    12 P  13     bf   18 -    20          0.000000000000          0.000000000000          0.000000000000
      0.1250927750D+03  0.2639998458D-03
      0.6521158900D+02 -0.1075999372D-02
      0.3443759900D+02 -0.2590998487D-02
      0.1893070400D+02  0.3551897925D-01
      0.1087341500D+02  0.1195539302D+00
      0.6012172000D+01 -0.2047138804D+00
      0.3372205000D+01 -0.7606265557D+00
      0.1768641000D+01 -0.2627398465D+00
      0.9145160000D+00  0.1779028961D+01
      0.4608950000D+00 -0.4627417297D+00
      0.2044900000D+00 -0.1241029275D+01
      0.7474100000D-01  0.9409864504D+00
      0.3567100000D-01  0.8349595123D-01
 Atom Fe1      Shell    13 P  13     bf   21 -    23          0.000000000000          0.000000000000          0.000000000000
      0.1250927750D+03 -0.8399999363D-04
      0.6521158900D+02  0.7679999418D-03
      0.3443759900D+02 -0.9484999281D-02
      0.1893070400D+02  0.8806199332D-01
      0.1087341500D+02  0.1561909882D+00
      0.6012172000D+01 -0.6191659530D+00
      0.3372205000D+01 -0.1385533895D+01
      0.1768641000D+01  0.2492124811D+01
      0.9145160000D+00  0.8075999388D-02
      0.4608950000D+00 -0.2499514810D+01
      0.2044900000D+00  0.2265575828D+01
      0.7474100000D-01 -0.7483419433D+00
      0.3567100000D-01 -0.2115979840D+00
 Atom Fe1      Shell    14 P  13     bf   24 -    26          0.000000000000          0.000000000000          0.000000000000
      0.1250927750D+03 -0.2544000178D-02
      0.6521158900D+02  0.1304000091D-01
      0.3443759900D+02 -0.3944400277D-01
      0.1893070400D+02 -0.2459400172D-01
      0.1087341500D+02 -0.5215710366D+00
      0.6012172000D+01  0.2739993192D+01
      0.3372205000D+01 -0.1742649122D+01
      0.1768641000D+01 -0.2844006199D+01
      0.9145160000D+00  0.5870826412D+01
      0.4608950000D+00 -0.4902306344D+01
      0.2044900000D+00  0.2136176150D+01
      0.7474100000D-01 -0.1216260085D+00
      0.3567100000D-01 -0.4862190341D+00
 Atom Fe1      Shell    15 P   1     bf   27 -    29          0.000000000000          0.000000000000          0.000000000000
      0.3567100000D-01  0.1000000000D+01
 Atom Fe1      Shell    16 P   1     bf   30 -    32          0.000000000000          0.000000000000          0.000000000000
      0.1700000000D-01  0.1000000000D+01
 Atom Fe1      Shell    17 D  11     bf   33 -    37          0.000000000000          0.000000000000          0.000000000000
      0.1527367420D+03  0.2900001701D-04
      0.5077248500D+02  0.5238003073D-02
      0.2625358900D+02  0.2932501720D-01
      0.1213702200D+02  0.7490104394D-01
      0.5853719000D+01  0.1634110959D+00
      0.2856224000D+01  0.2510571473D+00
      0.1386132000D+01  0.2876031687D+00
      0.6708020000D+00  0.2518621477D+00
      0.3302800000D+00  0.1867361095D+00
      0.1709070000D+00  0.9357005489D-01
      0.8679400000D-01  0.7381104330D-01
 Atom Fe1      Shell    18 D  11     bf   38 -    42          0.000000000000          0.000000000000          0.000000000000
      0.1527367420D+03 -0.2600000658D-04
      0.5077248500D+02 -0.6329001603D-02
      0.2625358900D+02 -0.3439800871D-01
      0.1213702200D+02 -0.9176502324D-01
      0.5853719000D+01 -0.2015920511D+00
      0.2856224000D+01 -0.2839300719D+00
      0.1386132000D+01 -0.1619810410D+00
      0.6708020000D+00  0.1288220326D+00
      0.3302800000D+00  0.3601600912D+00
      0.1709070000D+00  0.2775920703D+00
      0.8679400000D-01  0.2614030662D+00
 Atom Fe1      Shell    19 D  11     bf   43 -    47          0.000000000000          0.000000000000          0.000000000000
      0.1527367420D+03  0.5099999013D-04
      0.5077248500D+02  0.8768998302D-02
      0.2625358900D+02  0.4792099072D-01
      0.1213702200D+02  0.1324749744D+00
      0.5853719000D+01  0.2972789424D+00
      0.2856224000D+01  0.2750179468D+00
      0.1386132000D+01 -0.2228419569D+00
      0.6708020000D+00 -0.6190668801D+00
      0.3302800000D+00 -0.7628998523D-01
      0.1709070000D+00  0.2560559504D+00
      0.8679400000D-01  0.5414818952D+00
 Atom Fe1      Shell    20 D  11     bf   48 -    52          0.000000000000          0.000000000000          0.000000000000
      0.1527367420D+03 -0.9599998552D-04
      0.5077248500D+02 -0.1214399817D-01
      0.2625358900D+02 -0.6697098990D-01
      0.1213702200D+02 -0.1960249704D+00
      0.5853719000D+01 -0.4690029293D+00
      0.2856224000D+01  0.4655999298D-01
      0.1386132000D+01  0.9859398513D+00
      0.6708020000D+00 -0.2204349667D+00
      0.3302800000D+00 -0.7524818865D+00
      0.1709070000D+00 -0.1111229832D+00
      0.8679400000D-01  0.7530998864D+00
 Atom Fe1      Shell    21 D  11     bf   53 -    57          0.000000000000          0.000000000000          0.000000000000
      0.1527367420D+03 -0.3200000481D-04
      0.5077248500D+02 -0.1641100247D-01
      0.2625358900D+02 -0.8103601219D-01
      0.1213702200D+02 -0.2926410440D+00
      0.5853719000D+01 -0.5758190866D+00
      0.2856224000D+01  0.1151156173D+01
      0.1386132000D+01  0.1689630254D+00
      0.6708020000D+00 -0.1489545224D+01
      0.3302800000D+00  0.7415361115D+00
      0.1709070000D+00  0.9792791473D+00
      0.8679400000D-01 -0.1044905157D+01
 Atom Fe1      Shell    22 D   1     bf   58 -    62          0.000000000000          0.000000000000          0.000000000000
      0.8679400000D-01  0.1000000000D+01
 Atom Fe1      Shell    23 D   1     bf   63 -    67          0.000000000000          0.000000000000          0.000000000000
      0.4000000000D-01  0.1000000000D+01
 Atom Fe1      Shell    24 F   1     bf   68 -    74          0.000000000000          0.000000000000          0.000000000000
      0.1157780000D+00  0.1000000000D+01
 Atom Fe1      Shell    25 F   1     bf   75 -    81          0.000000000000          0.000000000000          0.000000000000
      0.3343670000D+00  0.1000000000D+01
 Atom Fe1      Shell    26 F   1     bf   82 -    88          0.000000000000          0.000000000000          0.000000000000
      0.9656500000D+00  0.1000000000D+01
 Atom Fe1      Shell    27 F   1     bf   89 -    95          0.000000000000          0.000000000000          0.000000000000
      0.2788793000D+01  0.1000000000D+01
 Atom Fe1      Shell    28 F   1     bf   96 -   102          0.000000000000          0.000000000000          0.000000000000
      0.8054020000D+01  0.1000000000D+01
 Atom Fe1      Shell    29 G   1     bf  103 -   111          0.000000000000          0.000000000000          0.000000000000
      0.2277260000D+00  0.1000000000D+01
 Atom Fe1      Shell    30 G   1     bf  112 -   120          0.000000000000          0.000000000000          0.000000000000
      0.6734440000D+00  0.1000000000D+01
 Atom Fe1      Shell    31 G   1     bf  121 -   129          0.000000000000          0.000000000000          0.000000000000
      0.1991550000D+01  0.1000000000D+01
 Atom Fe1      Shell    32 G   1     bf  130 -   138          0.000000000000          0.000000000000          0.000000000000
      0.5889532000D+01  0.1000000000D+01
 Atom Fe1      Shell    33 H   1     bf  139 -   149          0.000000000000          0.000000000000          0.000000000000
      0.4148550000D+00  0.1000000000D+01
 Atom Fe1      Shell    34 H   1     bf  150 -   160          0.000000000000          0.000000000000          0.000000000000
      0.1344807000D+01  0.1000000000D+01
 Atom Fe1      Shell    35 H   1     bf  161 -   171          0.000000000000          0.000000000000          0.000000000000
      0.4359371000D+01  0.1000000000D+01
 Atom Fe1      Shell    36 I   1     bf  172 -   184          0.000000000000          0.000000000000          0.000000000000
      0.1216055000D+01  0.1000000000D+01
 Atom Fe1      Shell    37 I   1     bf  185 -   197          0.000000000000          0.000000000000          0.000000000000
      0.3182222000D+01  0.1000000000D+01
 Atom Fe1      Shell    38 S   1     bf  198 -   198          0.000000000000          0.000000000000          0.000000000000
      0.3436892000D+01  0.1000000000D+01
 Atom Fe1      Shell    39 P   1     bf  199 -   201          0.000000000000          0.000000000000          0.000000000000
      0.3524160000D+01  0.1000000000D+01
 Atom Fe1      Shell    40 P   1     bf  202 -   204          0.000000000000          0.000000000000          0.000000000000
      0.8838502000D+01  0.1000000000D+01
 Atom Fe1      Shell    41 D   1     bf  205 -   209          0.000000000000          0.000000000000          0.000000000000
      0.5581935000D+01  0.1000000000D+01
 Atom Fe1      Shell    42 F   1     bf  210 -   216          0.000000000000          0.000000000000          0.000000000000
      0.4252984000D+01  0.1000000000D+01
 Atom Fe1      Shell    43 G   1     bf  217 -   225          0.000000000000          0.000000000000          0.000000000000
      0.4726458000D+01  0.1000000000D+01
 Atom Fe1      Shell    44 H   1     bf  226 -   236          0.000000000000          0.000000000000          0.000000000000
      0.7008543000D+01  0.1000000000D+01
 Atom Fe1      Shell    45 I   1     bf  237 -   249          0.000000000000          0.000000000000          0.000000000000
      0.7110853000D+01  0.1000000000D+01
 There are    93 symmetry adapted cartesian basis functions of AG  symmetry.
 There are    41 symmetry adapted cartesian basis functions of B1G symmetry.
 There are    41 symmetry adapted cartesian basis functions of B2G symmetry.
 There are    41 symmetry adapted cartesian basis functions of B3G symmetry.
 There are    18 symmetry adapted cartesian basis functions of AU  symmetry.
 There are    52 symmetry adapted cartesian basis functions of B1U symmetry.
 There are    52 symmetry adapted cartesian basis functions of B2U symmetry.
 There are    52 symmetry adapted cartesian basis functions of B3U symmetry.
 There are    52 symmetry adapted basis functions of AG  symmetry.
 There are    27 symmetry adapted basis functions of B1G symmetry.
 There are    27 symmetry adapted basis functions of B2G symmetry.
 There are    27 symmetry adapted basis functions of B3G symmetry.
 There are    14 symmetry adapted basis functions of AU  symmetry.
 There are    34 symmetry adapted basis functions of B1U symmetry.
 There are    34 symmetry adapted basis functions of B2U symmetry.
 There are    34 symmetry adapted basis functions of B3U symmetry.
   249 basis functions,   978 primitive gaussians,   390 cartesian basis functions
    10 alpha electrons        6 beta electrons
       nuclear repulsion energy         0.0000000000 Hartrees.
 IExCor=    0 DFT=F Ex=HF Corr=None ExCW=0 ScaHFX=  1.000000
 ScaDFX=  1.000000  1.000000  1.000000  1.000000 ScalE2=  1.000000  1.000000
 IRadAn=      5 IRanWt=     -1 IRanGd=            0 ICorTp=0 IEmpDi=  4
 NAtoms=    1 NActive=    1 NUniq=    1 SFac= 1.00D+00 NAtFMM=   60 NAOKFM=F Big=F
 Integral buffers will be    131072 words long.
 Raffenetti 2 integral format.
 Two-electron integral symmetry is turned on.
 Leave Link  301 at Wed Nov 21 10:33:02 2018, MaxMem= 21474836480 cpu:               2.2 elap:               0.5
 (Enter /home1/apps/gaussian/16rA.03/g16/l302.exe)
 NPDir=0 NMtPBC=     1 NCelOv=     1 NCel=       1 NClECP=     1 NCelD=      1
         NCelK=      1 NCelE2=     1 NClLst=     1 CellRange=     0.0.
 One-electron integrals computed using PRISM.
 One-electron integral symmetry used in STVInt
  48 Symmetry operations used in ECPInt.
 ECPInt:  NShTT=    1035 NPrTT=   29891 LenC2=    1036 LenP2D=   29891.
 LDataN:  DoStor=T MaxTD1=12 Len= 1566
 NBasis=   249 RedAO= T EigKep=  3.94D-04  NBF=    52    27    27    27    14    34    34    34
 NBsUse=   249 1.00D-06 EigRej= -1.00D+00 NBFU=    52    27    27    27    14    34    34    34
 Leave Link  302 at Wed Nov 21 10:33:06 2018, MaxMem= 21474836480 cpu:              58.3 elap:               3.7
 (Enter /home1/apps/gaussian/16rA.03/g16/l303.exe)
 DipDrv:  MaxL=1.
 Leave Link  303 at Wed Nov 21 10:33:06 2018, MaxMem= 21474836480 cpu:               1.1 elap:               0.1
 (Enter /home1/apps/gaussian/16rA.03/g16/l401.exe)
 Initial guess from the checkpoint file:  "Fe.chk"
 B after Tr=     0.000000    0.000000    0.000000
         Rot=    1.000000    0.000000    0.000000    0.000000 Ang=   0.00 deg.
 Guess basis will be translated and rotated to current coordinates.
 JPrj=2 DoOrth=T DoCkMO=T.
 Initial guess orbital symmetries:
       Occupied  (A1G) (T1U) (T1U) (T1U) (?A) (?A) (?A) (T2G) (T2G)
                 (T2G)
       Virtual   (T1U) (T1U) (T1U) (?A) (T2G) (?A) (?A) (T2G) (T2G)
                 (A1G) (EG) (EG) (T2G) (T2G) (T2G) (EG) (EG) (A1G)
                 (?B) (?B) (?B) (?B) (T2G) (T2G) (T2G) (EG) (EG)
                 (A1G) (A1G) (EG) (EG) (A1G) (EG) (EG) (?B) (?B)
                 (?B) (?B) (T2G) (T2G) (T2G) (?B) (?B) (?B) (?B)
                 (T2G) (T2G) (T2G) (EG) (EG) (A1G) (T2G) (T2G)
                 (T2G) (T2G) (?C) (?C) (T2G) (?D) (?D) (?D) (?C)
                 (?C) (T2G) (T2G) (T2G) (?E) (?E) (?E) (?C) (?C)
                 (?F) (?F) (?F) (?C) (?C) (T2G) (?C) (?C) (T2G)
                 (?C) (?C) (T2G) (?D) (?D) (?D) (?C) (?C) (T2G)
                 (T2G) (T2G) (?E) (?E) (?E) (?C) (?C) (?F) (?F)
                 (?F) (?C) (?C) (T2G) (?C) (?C) (T2G) (?C) (?C)
                 (T2G) (?D) (?D) (?D) (?C) (?C) (T2G) (T2G) (T2G)
                 (?E) (?E) (?E) (?C) (?C) (?F) (?F) (?F) (?C) (?C)
                 (T2G) (?C) (?C) (A2U) (EU) (EU) (A2U) (EU) (EU)
                 (A2U) (EU) (EU) (A2U) (A2U) (EU) (EU) (A2U) (T1U)
                 (?F) (?F) (T1U) (?F) (?F) (?F) (?F) (?F) (?F)
                 (?F) (?F) (T1U) (T1U) (T1U) (?F) (?F) (T1U) (?F)
                 (?F) (?F) (?F) (?F) (T1U) (?F) (?F) (?F) (?F)
                 (?F) (T1U) (?F) (?F) (T1U) (?F) (?F) (T1U) (?F)
                 (?F) (?F) (?F) (?F) (?F) (?F) (?F) (T1U) (T1U)
                 (T1U) (?F) (?F) (T1U) (?F) (?F) (?F) (?F) (?F)
                 (T1U) (?F) (?F) (?F) (?F) (?F) (T1U) (?F) (?F)
                 (T1U) (?F) (?F) (T1U) (?F) (?F) (?F) (?F) (?F)
                 (?F) (?F) (?F) (T1U) (T1U) (T1U) (?F) (?F) (T1U)
                 (?F) (?F) (?F) (?F) (?F) (T1U) (?F) (?F) (?F)
                 (?F) (?F) (T1U) (?F) (?F)
 Leave Link  401 at Wed Nov 21 10:33:06 2018, MaxMem= 21474836480 cpu:               3.8 elap:               0.3
 (Enter /home1/apps/gaussian/16rA.03/g16/l502.exe)
 Keep R1 and R2 ints in memory in symmetry-blocked form, NReq=674857443.
 FoFCou: FMM=F IPFlag=           0 FMFlag=           0 FMFlg1=           0
         NFxFlg=           0 DoJE=F BraDBF=F KetDBF=F FulRan=T
         wScrn=  0.000000 ICntrl=       600 IOpCl=  0 I1Cent=           0 NGrid=           0
         NMat0=    1 NMatS0=  31125 NMatT0=    0 NMatD0=    1 NMtDS0=    0 NMtDT0=    0
 Petite list used in FoFCou.
 Restricted open shell SCF:
 Using DIIS extrapolation, IDIIS=  1040.
 NGot= 21474836480 LenX= 21352800996 LenY= 21352648455
 Requested convergence on RMS density matrix=1.00D-08 within 300 cycles.
 Requested convergence on MAX density matrix=1.00D-06.
 Requested convergence on             energy=1.00D-06.
 Virtual orbitals will be shifted by   0.100 hartree.
 No special actions if energy rises.

 Cycle   1  Pass 1  IDiag  1:
 Density matrix breaks symmetry, PCut= 1.00D-07
 Density has only Abelian symmetry.
 E= -122.624206871488    
 DIIS: error= 4.28D-02 at cycle   1 NSaved=   1.
 NSaved= 1 IEnMin= 1 EnMin= -122.624206871488     IErMin= 1 ErrMin= 4.28D-02
 ErrMax= 4.28D-02  0.00D+00 EMaxC= 1.00D-01 BMatC= 6.98D-02 BMatP= 6.98D-02
 IDIUse=3 WtCom= 5.72D-01 WtEn= 4.28D-01
 Coeff-Com:  0.100D+01
 Coeff-En:   0.100D+01
 Coeff:      0.100D+01
 Gap=     0.182 Goal=   None    Shift=    0.100
 GapD=    0.182 DampG=1.000 DampE=0.250 DampFc=0.2500 IDamp=-1.
 Damping current iteration by 2.50D-01
 RMSDP=4.60D-04 MaxDP=3.60D-02              OVMax= 7.25D-02

 Cycle   2  Pass 1  IDiag  1:
 Density matrix breaks symmetry, PCut= 1.00D-07
 Density has only Abelian symmetry.
 E= -122.628412725439     Delta-E=       -0.004205853951 Rises=F Damp=T
 DIIS: error= 2.83D-02 at cycle   2 NSaved=   2.
 NSaved= 2 IEnMin= 2 EnMin= -122.628412725439     IErMin= 2 ErrMin= 2.83D-02
 ErrMax= 2.83D-02  0.00D+00 EMaxC= 1.00D-01 BMatC= 3.15D-02 BMatP= 6.98D-02
 IDIUse=3 WtCom= 7.17D-01 WtEn= 2.83D-01
 Coeff-Com: -0.921D+00 0.192D+01
 Coeff-En:   0.104D+00 0.896D+00
 Coeff:     -0.631D+00 0.163D+01
 Gap=     0.122 Goal=   None    Shift=    0.100
 RMSDP=6.12D-04 MaxDP=5.99D-02 DE=-4.21D-03 OVMax= 1.23D-01

 Cycle   3  Pass 1  IDiag  1:
 Density matrix breaks symmetry, PCut= 1.00D-07
 Density has only Abelian symmetry.
 E= -122.618406471054     Delta-E=        0.010006254385 Rises=F Damp=F
 DIIS: error= 2.72D-02 at cycle   3 NSaved=   3.
 NSaved= 3 IEnMin= 2 EnMin= -122.628412725439     IErMin= 3 ErrMin= 2.72D-02
 ErrMax= 2.72D-02  0.00D+00 EMaxC= 1.00D-01 BMatC= 2.73D-02 BMatP= 3.15D-02
 IDIUse=3 WtCom= 7.28D-01 WtEn= 2.72D-01
 Coeff-Com: -0.825D+00 0.133D+01 0.500D+00
 Coeff-En:   0.000D+00 0.638D+00 0.362D+00
 Coeff:     -0.600D+00 0.114D+01 0.462D+00
 Gap=     0.147 Goal=   None    Shift=    0.000
 RMSDP=4.81D-04 MaxDP=5.74D-02 DE= 1.00D-02 OVMax= 6.67D-02

 Cycle   4  Pass 1  IDiag  1:
 Density matrix breaks symmetry, PCut= 1.00D-07
 Density has only Abelian symmetry.
 E= -122.642673060068     Delta-E=       -0.024266589014 Rises=F Damp=F
 DIIS: error= 7.31D-03 at cycle   4 NSaved=   4.
 NSaved= 4 IEnMin= 4 EnMin= -122.642673060068     IErMin= 4 ErrMin= 7.31D-03
 ErrMax= 7.31D-03  0.00D+00 EMaxC= 1.00D-01 BMatC= 4.67D-03 BMatP= 2.73D-02
 IDIUse=3 WtCom= 9.27D-01 WtEn= 7.31D-02
 Coeff-Com: -0.648D+00 0.840D+00 0.175D+00 0.632D+00
 Coeff-En:   0.000D+00 0.000D+00 0.000D+00 0.100D+01
 Coeff:     -0.601D+00 0.779D+00 0.162D+00 0.659D+00
 Gap=     0.131 Goal=   None    Shift=    0.100
 RMSDP=2.61D-04 MaxDP=2.80D-02 DE=-2.43D-02 OVMax= 7.88D-03

 Cycle   5  Pass 1  IDiag  1:
 Density matrix breaks symmetry, PCut= 1.00D-07
 Density has only Abelian symmetry.
 E= -122.644248622617     Delta-E=       -0.001575562549 Rises=F Damp=F
 DIIS: error= 7.27D-03 at cycle   5 NSaved=   5.
 NSaved= 5 IEnMin= 5 EnMin= -122.644248622617     IErMin= 5 ErrMin= 7.27D-03
 ErrMax= 7.27D-03  0.00D+00 EMaxC= 1.00D-01 BMatC= 2.23D-03 BMatP= 4.67D-03
 IDIUse=3 WtCom= 9.27D-01 WtEn= 7.27D-02
 Coeff-Com: -0.349D+00 0.458D+00-0.760D-01-0.203D+00 0.117D+01
 Coeff-En:   0.000D+00 0.000D+00 0.000D+00 0.000D+00 0.100D+01
 Coeff:     -0.324D+00 0.425D+00-0.705D-01-0.188D+00 0.116D+01
 Gap=     0.126 Goal=   None    Shift=    0.100
 RMSDP=7.38D-05 MaxDP=5.54D-03 DE=-1.58D-03 OVMax= 1.30D-02

 Cycle   6  Pass 1  IDiag  1:
 Density matrix breaks symmetry, PCut= 1.00D-07
 Density has only Abelian symmetry.
 E= -122.646129613790     Delta-E=       -0.001880991173 Rises=F Damp=F
 DIIS: error= 4.52D-03 at cycle   6 NSaved=   6.
 NSaved= 6 IEnMin= 6 EnMin= -122.646129613790     IErMin= 6 ErrMin= 4.52D-03
 ErrMax= 4.52D-03  0.00D+00 EMaxC= 1.00D-01 BMatC= 7.94D-04 BMatP= 2.23D-03
 IDIUse=3 WtCom= 9.55D-01 WtEn= 4.52D-02
 Coeff-Com: -0.170D+00 0.229D+00-0.268D-01-0.550D-01-0.317D+00 0.134D+01
 Coeff-En:   0.000D+00 0.000D+00 0.000D+00 0.000D+00 0.000D+00 0.100D+01
 Coeff:     -0.163D+00 0.219D+00-0.256D-01-0.526D-01-0.303D+00 0.133D+01
 Gap=     0.125 Goal=   None    Shift=    0.100
 RMSDP=5.58D-05 MaxDP=5.18D-03 DE=-1.88D-03 OVMax= 9.57D-03

 Cycle   7  Pass 1  IDiag  1:
 Density matrix breaks symmetry, PCut= 1.00D-07
 Density has only Abelian symmetry.
 E= -122.646909858189     Delta-E=       -0.000780244399 Rises=F Damp=F
 DIIS: error= 2.52D-03 at cycle   7 NSaved=   7.
 NSaved= 7 IEnMin= 7 EnMin= -122.646909858189     IErMin= 7 ErrMin= 2.52D-03
 ErrMax= 2.52D-03  0.00D+00 EMaxC= 1.00D-01 BMatC= 2.32D-04 BMatP= 7.94D-04
 IDIUse=3 WtCom= 9.75D-01 WtEn= 2.52D-02
 Coeff-Com: -0.809D-01 0.111D+00-0.654D-02 0.314D-01-0.432D+00 0.467D+00
 Coeff-Com:  0.910D+00
 Coeff-En:   0.000D+00 0.000D+00 0.000D+00 0.000D+00 0.000D+00 0.000D+00
 Coeff-En:   0.100D+01
 Coeff:     -0.788D-01 0.108D+00-0.637D-02 0.306D-01-0.421D+00 0.455D+00
 Coeff:      0.913D+00
 Gap=     0.124 Goal=   None    Shift=    0.100
 RMSDP=4.34D-05 MaxDP=5.47D-03 DE=-7.80D-04 OVMax= 5.39D-03

 Cycle   8  Pass 1  IDiag  1:
 Density matrix breaks symmetry, PCut= 1.00D-07
 Density has only Abelian symmetry.
 E= -122.647140490387     Delta-E=       -0.000230632198 Rises=F Damp=F
 DIIS: error= 1.35D-03 at cycle   8 NSaved=   8.
 NSaved= 8 IEnMin= 8 EnMin= -122.647140490387     IErMin= 8 ErrMin= 1.35D-03
 ErrMax= 1.35D-03  0.00D+00 EMaxC= 1.00D-01 BMatC= 6.51D-05 BMatP= 2.32D-04
 IDIUse=3 WtCom= 9.86D-01 WtEn= 1.35D-02
 Coeff-Com: -0.161D-01 0.214D-01-0.342D-02 0.382D-01-0.115D-01-0.375D+00
 Coeff-Com:  0.965D-02 0.134D+01
 Coeff-En:   0.000D+00 0.000D+00 0.225D-01 0.000D+00 0.000D+00 0.000D+00
 Coeff-En:   0.000D+00 0.977D+00
 Coeff:     -0.159D-01 0.211D-01-0.307D-02 0.376D-01-0.114D-01-0.370D+00
 Coeff:      0.952D-02 0.133D+01
 Gap=     0.124 Goal=   None    Shift=    0.100
 RMSDP=2.35D-05 MaxDP=2.00D-03 DE=-2.31D-04 OVMax= 3.83D-03

 Cycle   9  Pass 1  IDiag  1:
 Density matrix breaks symmetry, PCut= 1.00D-07
 Density has only Abelian symmetry.
 E= -122.647222244871     Delta-E=       -0.000081754484 Rises=F Damp=F
 DIIS: error= 4.74D-04 at cycle   9 NSaved=   9.
 NSaved= 9 IEnMin= 9 EnMin= -122.647222244871     IErMin= 9 ErrMin= 4.74D-04
 ErrMax= 4.74D-04  0.00D+00 EMaxC= 1.00D-01 BMatC= 7.47D-06 BMatP= 6.51D-05
 IDIUse=3 WtCom= 9.95D-01 WtEn= 4.74D-03
 Coeff-Com: -0.993D-02 0.134D-01-0.700D-02 0.119D-01 0.418D-01-0.213D+00
 Coeff-Com:  0.114D-01 0.379D+00 0.773D+00
 Coeff-En:   0.000D+00 0.000D+00 0.524D-01 0.000D+00 0.000D+00 0.000D+00
 Coeff-En:   0.000D+00 0.000D+00 0.948D+00
 Coeff:     -0.989D-02 0.134D-01-0.672D-02 0.118D-01 0.416D-01-0.212D+00
 Coeff:      0.114D-01 0.377D+00 0.773D+00
 Gap=     0.124 Goal=   None    Shift=    0.100
 RMSDP=9.38D-06 MaxDP=1.13D-03 DE=-8.18D-05 OVMax= 1.32D-03

 Cycle  10  Pass 1  IDiag  1:
 Density matrix breaks symmetry, PCut= 1.00D-07
 Density has only Abelian symmetry.
 E= -122.647231091185     Delta-E=       -0.000008846314 Rises=F Damp=F
 DIIS: error= 2.05D-04 at cycle  10 NSaved=  10.
 NSaved=10 IEnMin=10 EnMin= -122.647231091185     IErMin=10 ErrMin= 2.05D-04
 ErrMax= 2.05D-04  0.00D+00 EMaxC= 1.00D-01 BMatC= 1.34D-06 BMatP= 7.47D-06
 IDIUse=3 WtCom= 9.98D-01 WtEn= 2.05D-03
 Coeff-Com: -0.342D-02 0.470D-02-0.448D-02-0.407D-02 0.266D-01-0.108D-01
 Coeff-Com:  0.967D-02-0.224D+00 0.350D+00 0.855D+00
 Coeff-En:   0.000D+00 0.000D+00 0.620D-01 0.000D+00 0.000D+00 0.000D+00
 Coeff-En:   0.000D+00 0.000D+00 0.000D+00 0.938D+00
 Coeff:     -0.341D-02 0.469D-02-0.434D-02-0.406D-02 0.265D-01-0.107D-01
 Coeff:      0.965D-02-0.224D+00 0.350D+00 0.856D+00
 Gap=     0.124 Goal=   None    Shift=    0.100
 RMSDP=4.65D-06 MaxDP=6.70D-04 DE=-8.85D-06 OVMax= 5.33D-04

 Cycle  11  Pass 1  IDiag  1:
 Density matrix breaks symmetry, PCut= 1.00D-07
 Density has only Abelian symmetry.
 E= -122.647232668564     Delta-E=       -0.000001577379 Rises=F Damp=F
 DIIS: error= 7.63D-05 at cycle  11 NSaved=  11.
 NSaved=11 IEnMin=11 EnMin= -122.647232668564     IErMin=11 ErrMin= 7.63D-05
 ErrMax= 7.63D-05  0.00D+00 EMaxC= 1.00D-01 BMatC= 1.96D-07 BMatP= 1.34D-06
 IDIUse=1 WtCom= 1.00D+00 WtEn= 0.00D+00
 Coeff-Com: -0.998D-03 0.130D-02-0.283D-04 0.110D-02-0.561D-02 0.355D-02
 Coeff-Com:  0.491D-03 0.149D-01-0.716D-01-0.286D+00 0.134D+01
 Coeff:     -0.998D-03 0.130D-02-0.283D-04 0.110D-02-0.561D-02 0.355D-02
 Coeff:      0.491D-03 0.149D-01-0.716D-01-0.286D+00 0.134D+01
 Gap=     0.124 Goal=   None    Shift=    0.100
 RMSDP=1.97D-06 MaxDP=3.29D-04 DE=-1.58D-06 OVMax= 1.98D-04

 Cycle  12  Pass 1  IDiag  1:
 Density matrix breaks symmetry, PCut= 1.00D-07
 Density has only Abelian symmetry.
 E= -122.647232901896     Delta-E=       -0.000000233332 Rises=F Damp=F
 DIIS: error= 2.81D-05 at cycle  12 NSaved=  12.
 NSaved=12 IEnMin=12 EnMin= -122.647232901896     IErMin=12 ErrMin= 2.81D-05
 ErrMax= 2.81D-05  0.00D+00 EMaxC= 1.00D-01 BMatC= 2.72D-08 BMatP= 1.96D-07
 IDIUse=1 WtCom= 1.00D+00 WtEn= 0.00D+00
 Coeff-Com: -0.723D-05 0.278D-04-0.964D-04-0.138D-03 0.994D-03-0.507D-02
 Coeff-Com:  0.655D-02 0.759D-02-0.566D-01 0.543D-01-0.410D+00 0.140D+01
 Coeff:     -0.723D-05 0.278D-04-0.964D-04-0.138D-03 0.994D-03-0.507D-02
 Coeff:      0.655D-02 0.759D-02-0.566D-01 0.543D-01-0.410D+00 0.140D+01
 Gap=     0.124 Goal=   None    Shift=    0.100
 RMSDP=7.86D-07 MaxDP=1.23D-04 DE=-2.33D-07 OVMax= 8.98D-05

 Cycle  13  Pass 1  IDiag  1:
 Density matrix breaks symmetry, PCut= 1.00D-07
 Density has only Abelian symmetry.
 E= -122.647232938025     Delta-E=       -0.000000036129 Rises=F Damp=F
 DIIS: error= 7.43D-06 at cycle  13 NSaved=  13.
 NSaved=13 IEnMin=13 EnMin= -122.647232938025     IErMin=13 ErrMin= 7.43D-06
 ErrMax= 7.43D-06  0.00D+00 EMaxC= 1.00D-01 BMatC= 2.02D-09 BMatP= 2.72D-08
 IDIUse=1 WtCom= 1.00D+00 WtEn= 0.00D+00
 Coeff-Com:  0.531D-04-0.626D-04-0.840D-04-0.473D-04 0.102D-02-0.311D-02
 Coeff-Com:  0.426D-02 0.212D-02-0.288D-01 0.562D-01-0.197D+00 0.170D+00
 Coeff-Com:  0.996D+00
 Coeff:      0.531D-04-0.626D-04-0.840D-04-0.473D-04 0.102D-02-0.311D-02
 Coeff:      0.426D-02 0.212D-02-0.288D-01 0.562D-01-0.197D+00 0.170D+00
 Coeff:      0.996D+00
 Gap=     0.124 Goal=   None    Shift=    0.100
 RMSDP=2.16D-07 MaxDP=2.76D-05 DE=-3.61D-08 OVMax= 2.61D-05

 Cycle  14  Pass 1  IDiag  1:
 Density matrix breaks symmetry, PCut= 1.00D-07
 Density has only Abelian symmetry.
 E= -122.647232940744     Delta-E=       -0.000000002719 Rises=F Damp=F
 DIIS: error= 1.56D-06 at cycle  14 NSaved=  14.
 NSaved=14 IEnMin=14 EnMin= -122.647232940744     IErMin=14 ErrMin= 1.56D-06
 ErrMax= 1.56D-06  0.00D+00 EMaxC= 1.00D-01 BMatC= 1.11D-10 BMatP= 2.02D-09
 IDIUse=1 WtCom= 1.00D+00 WtEn= 0.00D+00
 Coeff-Com:  0.104D-04-0.158D-04-0.234D-04 0.270D-04 0.166D-03-0.316D-03
 Coeff-Com:  0.113D-02-0.147D-02-0.300D-02 0.207D-01-0.683D-05-0.155D+00
 Coeff-Com: -0.457D-01 0.118D+01
 Coeff:      0.104D-04-0.158D-04-0.234D-04 0.270D-04 0.166D-03-0.316D-03
 Coeff:      0.113D-02-0.147D-02-0.300D-02 0.207D-01-0.683D-05-0.155D+00
 Coeff:     -0.457D-01 0.118D+01
 Gap=     0.124 Goal=   None    Shift=    0.100
 RMSDP=6.48D-08 MaxDP=7.01D-06 DE=-2.72D-09 OVMax= 6.20D-06

 Cycle  15  Pass 1  IDiag  1:
 Density matrix breaks symmetry, PCut= 1.00D-07
 Density has only Abelian symmetry.
 E= -122.647232940886     Delta-E=       -0.000000000141 Rises=F Damp=F
 DIIS: error= 3.11D-07 at cycle  15 NSaved=  15.
 NSaved=15 IEnMin=15 EnMin= -122.647232940886     IErMin=15 ErrMin= 3.11D-07
 ErrMax= 3.11D-07  0.00D+00 EMaxC= 1.00D-01 BMatC= 6.19D-12 BMatP= 1.11D-10
 IDIUse=1 WtCom= 1.00D+00 WtEn= 0.00D+00
 Coeff-Com:  0.198D-05-0.244D-05 0.207D-05-0.203D-04 0.894D-05-0.340D-04
 Coeff-Com:  0.244D-03-0.507D-03-0.640D-03 0.410D-02-0.193D-01 0.608D-01
 Coeff-Com: -0.189D-01-0.555D+00 0.153D+01
 Coeff:      0.198D-05-0.244D-05 0.207D-05-0.203D-04 0.894D-05-0.340D-04
 Coeff:      0.244D-03-0.507D-03-0.640D-03 0.410D-02-0.193D-01 0.608D-01
 Coeff:     -0.189D-01-0.555D+00 0.153D+01
 Gap=     0.124 Goal=   None    Shift=    0.100
 RMSDP=2.55D-08 MaxDP=2.08D-06 DE=-1.41D-10 OVMax= 1.44D-06

 Cycle  16  Pass 1  IDiag  1:
 Density matrix breaks symmetry, PCut= 1.00D-07
 Density has only Abelian symmetry.
 E= -122.647232940894     Delta-E=       -0.000000000008 Rises=F Damp=F
 DIIS: error= 9.50D-08 at cycle  16 NSaved=  16.
 NSaved=16 IEnMin=16 EnMin= -122.647232940894     IErMin=16 ErrMin= 9.50D-08
 ErrMax= 9.50D-08  0.00D+00 EMaxC= 1.00D-01 BMatC= 4.97D-13 BMatP= 6.19D-12
 IDIUse=1 WtCom= 1.00D+00 WtEn= 0.00D+00
 Large coefficients: NSaved= 16 BigCof=    0.00 CofMax=   10.00 Det=-6.42D-15
 Inversion failed.  Reducing to 15 matrices.
 Coeff-Com:  0.850D-06-0.996D-06-0.531D-05 0.104D-04-0.270D-04 0.119D-03
 Coeff-Com: -0.178D-03-0.513D-03 0.193D-02-0.670D-02 0.140D-01 0.989D-02
 Coeff-Com: -0.111D+00-0.175D-01 0.111D+01
 Coeff:      0.850D-06-0.996D-06-0.531D-05 0.104D-04-0.270D-04 0.119D-03
 Coeff:     -0.178D-03-0.513D-03 0.193D-02-0.670D-02 0.140D-01 0.989D-02
 Coeff:     -0.111D+00-0.175D-01 0.111D+01
 Gap=     0.124 Goal=   None    Shift=    0.100
 RMSDP=1.00D-08 MaxDP=9.19D-07 DE=-8.19D-12 OVMax= 4.31D-07

 Cycle  17  Pass 1  IDiag  1:
 Density matrix breaks symmetry, PCut= 1.00D-07
 Density has only Abelian symmetry.
 E= -122.647232940895     Delta-E=       -0.000000000001 Rises=F Damp=F
 DIIS: error= 2.79D-08 at cycle  17 NSaved=  16.
 NSaved=16 IEnMin=16 EnMin= -122.647232940895     IErMin=16 ErrMin= 2.79D-08
 ErrMax= 2.79D-08  0.00D+00 EMaxC= 1.00D-01 BMatC= 4.55D-14 BMatP= 4.97D-13
 IDIUse=1 WtCom= 1.00D+00 WtEn= 0.00D+00
 Large coefficients: NSaved= 16 BigCof=    0.00 CofMax=   10.00 Det=-5.29D-15
 Inversion failed.  Reducing to 15 matrices.
 Coeff-Com: -0.712D-08 0.308D-05-0.392D-06-0.257D-05 0.220D-04 0.142D-04
 Coeff-Com: -0.247D-03 0.243D-03 0.114D-02-0.881D-02 0.128D-01 0.831D-01
 Coeff-Com: -0.498D+00 0.805D+00 0.604D+00
 Coeff:     -0.712D-08 0.308D-05-0.392D-06-0.257D-05 0.220D-04 0.142D-04
 Coeff:     -0.247D-03 0.243D-03 0.114D-02-0.881D-02 0.128D-01 0.831D-01
 Coeff:     -0.498D+00 0.805D+00 0.604D+00
 Gap=     0.124 Goal=   None    Shift=    0.100
 RMSDP=3.72D-09 MaxDP=4.05D-07 DE=-8.24D-13 OVMax= 1.17D-07

 Density matrix breaks symmetry, PCut= 1.00D-07
 Density has only Abelian symmetry.
 SCF Done:  E(ROHF) =  -122.647232941     A.U. after   17 cycles
            NFock= 17  Conv=0.37D-08     -V/T= 2.7068
 <Sx>= 0.0000 <Sy>= 0.0000 <Sz>= 2.0000 <S**2>= 6.0000 S= 2.0000
 <L.S>=  0.00000000000    
 KE= 7.185932216284D+01 PE=-2.876633288605D+02 EE= 9.315677375673D+01
 Annihilation of the first spin contaminant:
 S**2 before annihilation     6.0000,   after     6.0000
 Leave Link  502 at Wed Nov 21 10:35:27 2018, MaxMem= 21474836480 cpu:            2231.9 elap:             140.4
 (Enter /home1/apps/gaussian/16rA.03/g16/l601.exe)
 Copying SCF densities to generalized density rwf, IOpCl= 0 IROHF=1.
 SCF density gives NOpUse=  8 NOpAll= 48.
 Marking SCF density as not fully symmetric.

 **********************************************************************

            Population analysis using the SCF density.

 **********************************************************************

 Orbital symmetries:
       Occupied  (A1G) (T1U) (T1U) (T1U) (?A) (?A) (?A) (T2G) (T2G)
                 (T2G)
       Virtual   (?B) (?B) (A1G) (?B) (?B) (?B) (?B) (T2G) (?A)
                 (T2G) (T2G) (?A) (?A) (?B) (?B) (?B) (?A) (T2G)
                 (?A) (T2G) (T2G) (?A) (?B) (?B) (?B) (A2U) (?B)
                 (?B) (?B) (?B) (?B) (?B) (?C) (?A) (?A) (?C) (?C)
                 (?C) (?A) (?C) (?C) (?A) (?C) (?C) (?C) (?A) (?A)
                 (?B) (?B) (A2U) (?B) (?B) (?B) (?B) (T1U) (T1U)
                 (T1U) (?D) (?A) (?D) (?D) (?A) (?E) (?E) (EU)
                 (?E) (?E) (?E) (?E) (EU) (?E) (?E) (?E) (?D) (?A)
                 (?D) (?D) (?A) (?D) (?D) (?D) (?A) (?A) (?F) (?F)
                 (?F) (A2U) (?F) (?F) (?F) (?F) (?F) (?F) (?A)
                 (T2G) (T2G) (T2G) (?A) (?F) (?F) (EU) (?F) (?F)
                 (?F) (?F) (EU) (?F) (?F) (?F) (?F) (?F) (?F) (?F)
                 (?F) (?F) (?F) (?F) (?F) (?F) (?F) (?F) (?F) (?F)
                 (?F) (A2U) (?F) (?F) (?F) (?F) (T2G) (?F) (?F)
                 (?F) (T2G) (?F) (?F) (?F) (T2G) (T2G) (T1U) (T1U)
                 (T1U) (T2G) (T2G) (T2G) (T2G) (T2G) (?F) (?F)
                 (A2U) (?F) (?F) (?F) (?F) (?F) (?F) (?F) (?F)
                 (?F) (?F) (?F) (?F) (?F) (?F) (?F) (?F) (?F) (?F)
                 (?F) (?F) (?F) (?F) (?F) (?F) (?F) (?F) (?F) (?F)
                 (?F) (EU) (?F) (?F) (EU) (?F) (?F) (?F) (?F) (T1U)
                 (T1U) (T1U) (?F) (?F) (?F) (A2U) (?F) (?F) (?F)
                 (?F) (?F) (?F) (?F) (?F) (?F) (?F) (?F) (?F) (?F)
                 (?F) (?F) (?F) (?F) (?F) (?F) (?F) (EU) (?F) (?F)
                 (?F) (EU) (?F) (?F) (?F) (?F) (?F) (?F) (?F) (?F)
                 (?F) (?F) (?F) (?F) (?F) (?F) (?F) (?F) (A1G)
                 (T1U) (T1U) (T1U)
 Unable to determine electronic state:  an orbital has unidentified symmetry.
 Alpha  occ. eigenvalues --   -4.21376  -2.69940  -2.68337  -2.68337  -0.52252
 Alpha  occ. eigenvalues --   -0.25694  -0.12590  -0.12590  -0.10226  -0.10226
 Alpha virt. eigenvalues --    0.02197   0.02197   0.02285   0.02361   0.07410
 Alpha virt. eigenvalues --    0.07410   0.07721   0.11476   0.11476   0.11536
 Alpha virt. eigenvalues --    0.11536   0.11554   0.11963   0.22928   0.22928
 Alpha virt. eigenvalues --    0.23387   0.34291   0.34291   0.34585   0.34594
 Alpha virt. eigenvalues --    0.34594   0.40269   0.45635   0.45635   0.45758
 Alpha virt. eigenvalues --    0.45758   0.45866   0.45866   0.45907   0.67047
 Alpha virt. eigenvalues --    0.67047   0.68011   0.91440   0.91440   0.92109
 Alpha virt. eigenvalues --    0.92278   0.92278   1.12738   1.12738   1.12883
 Alpha virt. eigenvalues --    1.12883   1.13102   1.13102   1.13281   1.13281
 Alpha virt. eigenvalues --    1.13349   1.18378   1.36591   1.36591   1.37113
 Alpha virt. eigenvalues --    1.37113   1.37448   1.37448   1.37550   1.92160
 Alpha virt. eigenvalues --    1.92160   1.94180   2.37417   2.37417   2.38986
 Alpha virt. eigenvalues --    2.38986   2.38994   2.47872   2.47872   2.48024
 Alpha virt. eigenvalues --    2.48024   2.48350   2.48350   2.48695   2.48695
 Alpha virt. eigenvalues --    2.48949   2.48949   2.49041   3.41612   3.41612
 Alpha virt. eigenvalues --    3.42057   3.42057   3.42887   3.42887   3.43592
 Alpha virt. eigenvalues --    3.43592   3.43862   3.48898   3.53147   3.53147
 Alpha virt. eigenvalues --    3.54379   3.54379   3.55251   3.55251   3.55501
 Alpha virt. eigenvalues --    5.19061   5.19061   5.22584   5.93457   5.93457
 Alpha virt. eigenvalues --    5.95692   5.95692   5.96806   8.00085   8.00085
 Alpha virt. eigenvalues --    8.00383   8.00383   8.01455   8.01455   8.02671
 Alpha virt. eigenvalues --    8.02671   8.03582   8.03582   8.03916   8.19787
 Alpha virt. eigenvalues --    8.19787   8.19909   8.19909   8.20565   8.20565
 Alpha virt. eigenvalues --    8.21420   8.21420   8.22214   8.22214   8.22765
 Alpha virt. eigenvalues --    8.22765   8.22960   8.70155   8.70155   8.71817
 Alpha virt. eigenvalues --    8.71817   8.73690   8.73690   8.74402   9.18465
 Alpha virt. eigenvalues --    9.18465   9.19213   9.19213   9.20984   9.20984
 Alpha virt. eigenvalues --    9.22536   9.22536   9.23132  11.15306  13.13370
 Alpha virt. eigenvalues --   13.13370  13.18252  14.64660  14.64660  14.67266
 Alpha virt. eigenvalues --   14.67266  14.69640  19.52632  19.52632  19.54267
 Alpha virt. eigenvalues --   19.54267  19.57103  19.57103  19.58348  21.27225
 Alpha virt. eigenvalues --   21.27225  21.28038  21.28038  21.30440  21.30440
 Alpha virt. eigenvalues --   21.32607  21.32607  21.33450  22.22374  22.22374
 Alpha virt. eigenvalues --   22.22383  22.22383  22.23561  22.23561  22.25208
 Alpha virt. eigenvalues --   22.25208  22.26780  22.26780  22.27883  22.27883
 Alpha virt. eigenvalues --   22.28278  23.08246  23.08246  23.08549  23.08549
 Alpha virt. eigenvalues --   23.10351  23.10351  23.12475  23.12475  23.14084
 Alpha virt. eigenvalues --   23.14084  23.14676  32.20681  32.20682  32.25890
 Alpha virt. eigenvalues --   39.19375  39.19375  39.20920  39.20920  39.23893
 Alpha virt. eigenvalues --   39.23893  39.25236  39.47249  39.47249  39.49543
 Alpha virt. eigenvalues --   39.49543  39.51990  41.41214  41.41214  41.42052
 Alpha virt. eigenvalues --   41.42052  41.44541  41.44541  41.46810  41.46810
 Alpha virt. eigenvalues --   41.47703  49.51560  49.51560  49.51913  49.51913
 Alpha virt. eigenvalues --   49.53836  49.53836  49.56093  49.56093  49.57801
 Alpha virt. eigenvalues --   49.57801  49.58429  52.56020  52.56020  52.56021
 Alpha virt. eigenvalues --   52.56021  52.57437  52.57437  52.59422  52.59422
 Alpha virt. eigenvalues --   52.61315  52.61315  52.62641  52.62641  52.63115
 Alpha virt. eigenvalues --   77.38021  86.27936  86.27936  86.31373
     Molecular Orbital Coefficients:
                           1         2         3         4         5
                       (A1G)--O  (T1U)--O  (T1U)--O  (T1U)--O      O
     Eigenvalues --    -4.21376  -2.69940  -2.68337  -2.68337  -0.52252
   1 1   Fe 1S          1.00004   0.00000   0.00000   0.00000  -0.00383
   2        2S          0.00069   0.00000   0.00000   0.00000  -0.00082
   3        3S         -0.00015   0.00000   0.00000   0.00000   0.00020
   4        4S          0.00005   0.00000   0.00000   0.00000  -0.00029
   5        5S          0.00003   0.00000   0.00000   0.00000  -0.00004
   6        6S         -0.00002   0.00000   0.00000   0.00000   0.00006
   7        7S         -0.00036   0.00000   0.00000   0.00000   0.00082
   8        8S          0.00007   0.00000   0.00000   0.00000  -0.00007
   9        9PX         0.00000   0.00000   0.00000   0.99921   0.00000
  10        9PY         0.00000   0.99973   0.00000   0.00000   0.00000
  11        9PZ         0.00000   0.00000   0.99921   0.00000   0.00000
  12       10PX         0.00000   0.00000   0.00000   0.01452   0.00000
  13       10PY         0.00000   0.01747   0.00000   0.00000   0.00000
  14       10PZ         0.00000   0.00000   0.01452   0.00000   0.00000
  15       11PX         0.00000   0.00000   0.00000   0.01343   0.00000
  16       11PY         0.00000   0.01507   0.00000   0.00000   0.00000
  17       11PZ         0.00000   0.00000   0.01343   0.00000   0.00000
  18       12PX         0.00000   0.00000   0.00000   0.00125   0.00000
  19       12PY         0.00000   0.00060   0.00000   0.00000   0.00000
  20       12PZ         0.00000   0.00000   0.00125   0.00000   0.00000
  21       13PX         0.00000   0.00000   0.00000  -0.00056   0.00000
  22       13PY         0.00000  -0.00097   0.00000   0.00000   0.00000
  23       13PZ         0.00000   0.00000  -0.00056   0.00000   0.00000
  24       14PX         0.00000   0.00000   0.00000   0.00011   0.00000
  25       14PY         0.00000   0.00020   0.00000   0.00000   0.00000
  26       14PZ         0.00000   0.00000   0.00011   0.00000   0.00000
  27       15PX         0.00000   0.00000   0.00000  -0.00388   0.00000
  28       15PY         0.00000  -0.00456   0.00000   0.00000   0.00000
  29       15PZ         0.00000   0.00000  -0.00388   0.00000   0.00000
  30       16PX         0.00000   0.00000   0.00000   0.00003   0.00000
  31       16PY         0.00000   0.00003   0.00000   0.00000   0.00000
  32       16PZ         0.00000   0.00000   0.00003   0.00000   0.00000
  33       17D 0        0.00155   0.00000   0.00000   0.00000   0.50274
  34       17D+1        0.00000   0.00000   0.00000   0.00000   0.00000
  35       17D-1        0.00000   0.00000   0.00000   0.00000   0.00000
  36       17D+2        0.00268   0.00000   0.00000   0.00000   0.87078
  37       17D-2        0.00000   0.00000   0.00000   0.00000   0.00000
  38       18D 0       -0.00189   0.00000   0.00000   0.00000  -0.03620
  39       18D+1        0.00000   0.00000   0.00000   0.00000   0.00000
  40       18D-1        0.00000   0.00000   0.00000   0.00000   0.00000
  41       18D+2       -0.00327   0.00000   0.00000   0.00000  -0.06269
  42       18D-2        0.00000   0.00000   0.00000   0.00000   0.00000
  43       19D 0       -0.00018   0.00000   0.00000   0.00000  -0.01123
  44       19D+1        0.00000   0.00000   0.00000   0.00000   0.00000
  45       19D-1        0.00000   0.00000   0.00000   0.00000   0.00000
  46       19D+2       -0.00031   0.00000   0.00000   0.00000  -0.01944
  47       19D-2        0.00000   0.00000   0.00000   0.00000   0.00000
  48       20D 0        0.00011   0.00000   0.00000   0.00000  -0.00146
  49       20D+1        0.00000   0.00000   0.00000   0.00000   0.00000
  50       20D-1        0.00000   0.00000   0.00000   0.00000   0.00000
  51       20D+2        0.00019   0.00000   0.00000   0.00000  -0.00252
  52       20D-2        0.00000   0.00000   0.00000   0.00000   0.00000
  53       21D 0        0.00031   0.00000   0.00000   0.00000  -0.00036
  54       21D+1        0.00000   0.00000   0.00000   0.00000   0.00000
  55       21D-1        0.00000   0.00000   0.00000   0.00000   0.00000
  56       21D+2        0.00054   0.00000   0.00000   0.00000  -0.00063
  57       21D-2        0.00000   0.00000   0.00000   0.00000   0.00000
  58       22D 0        0.00072   0.00000   0.00000   0.00000  -0.01040
  59       22D+1        0.00000   0.00000   0.00000   0.00000   0.00000
  60       22D-1        0.00000   0.00000   0.00000   0.00000   0.00000
  61       22D+2        0.00125   0.00000   0.00000   0.00000  -0.01801
  62       22D-2        0.00000   0.00000   0.00000   0.00000   0.00000
  63       23D 0       -0.00001   0.00000   0.00000   0.00000  -0.00004
  64       23D+1        0.00000   0.00000   0.00000   0.00000   0.00000
  65       23D-1        0.00000   0.00000   0.00000   0.00000   0.00000
  66       23D+2       -0.00001   0.00000   0.00000   0.00000  -0.00006
  67       23D-2        0.00000   0.00000   0.00000   0.00000   0.00000
  68       24F 0        0.00000   0.00000   0.00003   0.00000   0.00000
  69       24F+1        0.00000   0.00000   0.00000   0.00001   0.00000
  70       24F-1        0.00000   0.00002   0.00000   0.00000   0.00000
  71       24F+2        0.00000   0.00000   0.00004   0.00000   0.00000
  72       24F-2        0.00000   0.00000   0.00000   0.00000   0.00000
  73       24F+3        0.00000   0.00000   0.00000   0.00005   0.00000
  74       24F-3        0.00000   0.00002   0.00000   0.00000   0.00000
  75       25F 0        0.00000   0.00000   0.00037   0.00000   0.00000
  76       25F+1        0.00000   0.00000   0.00000   0.00015   0.00000
  77       25F-1        0.00000  -0.00096   0.00000   0.00000   0.00000
  78       25F+2        0.00000   0.00000   0.00048   0.00000   0.00000
  79       25F-2        0.00000   0.00000   0.00000   0.00000   0.00000
  80       25F+3        0.00000   0.00000   0.00000   0.00059   0.00000
  81       25F-3        0.00000  -0.00124   0.00000   0.00000   0.00000
  82       26F 0        0.00000   0.00000   0.00203   0.00000   0.00000
  83       26F+1        0.00000   0.00000   0.00000   0.00083   0.00000
  84       26F-1        0.00000  -0.00145   0.00000   0.00000   0.00000
  85       26F+2        0.00000   0.00000   0.00263   0.00000   0.00000
  86       26F-2        0.00000   0.00000   0.00000   0.00000   0.00000
  87       26F+3        0.00000   0.00000   0.00000   0.00322   0.00000
  88       26F-3        0.00000  -0.00188   0.00000   0.00000   0.00000
  89       27F 0        0.00000   0.00000   0.00216   0.00000   0.00000
  90       27F+1        0.00000   0.00000   0.00000   0.00088   0.00000
  91       27F-1        0.00000  -0.00052   0.00000   0.00000   0.00000
  92       27F+2        0.00000   0.00000   0.00279   0.00000   0.00000
  93       27F-2        0.00000   0.00000   0.00000   0.00000   0.00000
  94       27F+3        0.00000   0.00000   0.00000   0.00342   0.00000
  95       27F-3        0.00000  -0.00067   0.00000   0.00000   0.00000
  96       28F 0        0.00000   0.00000   0.00054   0.00000   0.00000
  97       28F+1        0.00000   0.00000   0.00000   0.00022   0.00000
  98       28F-1        0.00000  -0.00039   0.00000   0.00000   0.00000
  99       28F+2        0.00000   0.00000   0.00069   0.00000   0.00000
 100       28F-2        0.00000   0.00000   0.00000   0.00000   0.00000
 101       28F+3        0.00000   0.00000   0.00000   0.00085   0.00000
 102       28F-3        0.00000  -0.00051   0.00000   0.00000   0.00000
 103       29G 0        0.00001   0.00000   0.00000   0.00000   0.00011
 104       29G+1        0.00000   0.00000   0.00000   0.00000   0.00000
 105       29G-1        0.00000   0.00000   0.00000   0.00000   0.00000
 106       29G+2        0.00001   0.00000   0.00000   0.00000   0.00016
 107       29G-2        0.00000   0.00000   0.00000   0.00000   0.00000
 108       29G+3        0.00000   0.00000   0.00000   0.00000   0.00000
 109       29G-3        0.00000   0.00000   0.00000   0.00000   0.00000
 110       29G+4        0.00002   0.00000   0.00000   0.00000   0.00021
 111       29G-4        0.00000   0.00000   0.00000   0.00000   0.00000
 112       30G 0        0.00019   0.00000   0.00000   0.00000   0.00058
 113       30G+1        0.00000   0.00000   0.00000   0.00000   0.00000
 114       30G-1        0.00000   0.00000   0.00000   0.00000   0.00000
 115       30G+2        0.00029   0.00000   0.00000   0.00000   0.00086
 116       30G-2        0.00000   0.00000   0.00000   0.00000   0.00000
 117       30G+3        0.00000   0.00000   0.00000   0.00000   0.00000
 118       30G-3        0.00000   0.00000   0.00000   0.00000   0.00000
 119       30G+4        0.00038   0.00000   0.00000   0.00000   0.00114
 120       30G-4        0.00000   0.00000   0.00000   0.00000   0.00000
 121       31G 0        0.00023   0.00000   0.00000   0.00000   0.00063
 122       31G+1        0.00000   0.00000   0.00000   0.00000   0.00000
 123       31G-1        0.00000   0.00000   0.00000   0.00000   0.00000
 124       31G+2        0.00034   0.00000   0.00000   0.00000   0.00095
 125       31G-2        0.00000   0.00000   0.00000   0.00000   0.00000
 126       31G+3        0.00000   0.00000   0.00000   0.00000   0.00000
 127       31G-3        0.00000   0.00000   0.00000   0.00000   0.00000
 128       31G+4        0.00045   0.00000   0.00000   0.00000   0.00125
 129       31G-4        0.00000   0.00000   0.00000   0.00000   0.00000
 130       32G 0        0.00017   0.00000   0.00000   0.00000   0.00020
 131       32G+1        0.00000   0.00000   0.00000   0.00000   0.00000
 132       32G-1        0.00000   0.00000   0.00000   0.00000   0.00000
 133       32G+2        0.00026   0.00000   0.00000   0.00000   0.00029
 134       32G-2        0.00000   0.00000   0.00000   0.00000   0.00000
 135       32G+3        0.00000   0.00000   0.00000   0.00000   0.00000
 136       32G-3        0.00000   0.00000   0.00000   0.00000   0.00000
 137       32G+4        0.00034   0.00000   0.00000   0.00000   0.00039
 138       32G-4        0.00000   0.00000   0.00000   0.00000   0.00000
 139       33H 0        0.00000   0.00000   0.00003   0.00000   0.00000
 140       33H+1        0.00000   0.00000   0.00000   0.00001   0.00000
 141       33H-1        0.00000   0.00004   0.00000   0.00000   0.00000
 142       33H+2        0.00000   0.00000   0.00004   0.00000   0.00000
 143       33H-2        0.00000   0.00000   0.00000   0.00000   0.00000
 144       33H+3        0.00000   0.00000   0.00000   0.00003   0.00000
 145       33H-3        0.00000   0.00004   0.00000   0.00000   0.00000
 146       33H+4        0.00000   0.00000   0.00004   0.00000   0.00000
 147       33H-4        0.00000   0.00000   0.00000   0.00000   0.00000
 148       33H+5        0.00000   0.00000   0.00000   0.00006   0.00000
 149       33H-5        0.00000   0.00005   0.00000   0.00000   0.00000
 150       34H 0        0.00000   0.00000  -0.00002   0.00000   0.00000
 151       34H+1        0.00000   0.00000   0.00000  -0.00001   0.00000
 152       34H-1        0.00000  -0.00004   0.00000   0.00000   0.00000
 153       34H+2        0.00000   0.00000  -0.00003   0.00000   0.00000
 154       34H-2        0.00000   0.00000   0.00000   0.00000   0.00000
 155       34H+3        0.00000   0.00000   0.00000  -0.00002   0.00000
 156       34H-3        0.00000  -0.00004   0.00000   0.00000   0.00000
 157       34H+4        0.00000   0.00000  -0.00003   0.00000   0.00000
 158       34H-4        0.00000   0.00000   0.00000   0.00000   0.00000
 159       34H+5        0.00000   0.00000   0.00000  -0.00004   0.00000
 160       34H-5        0.00000  -0.00006   0.00000   0.00000   0.00000
 161       35H 0        0.00000   0.00000  -0.00008   0.00000   0.00000
 162       35H+1        0.00000   0.00000   0.00000  -0.00002   0.00000
 163       35H-1        0.00000  -0.00010   0.00000   0.00000   0.00000
 164       35H+2        0.00000   0.00000  -0.00011   0.00000   0.00000
 165       35H-2        0.00000   0.00000   0.00000   0.00000   0.00000
 166       35H+3        0.00000   0.00000   0.00000  -0.00006   0.00000
 167       35H-3        0.00000  -0.00011   0.00000   0.00000   0.00000
 168       35H+4        0.00000   0.00000  -0.00009   0.00000   0.00000
 169       35H-4        0.00000   0.00000   0.00000   0.00000   0.00000
 170       35H+5        0.00000   0.00000   0.00000  -0.00014   0.00000
 171       35H-5        0.00000  -0.00015   0.00000   0.00000   0.00000
 172       36I 0        0.00000   0.00000   0.00000   0.00000  -0.00010
 173       36I+1        0.00000   0.00000   0.00000   0.00000   0.00000
 174       36I-1        0.00000   0.00000   0.00000   0.00000   0.00000
 175       36I+2        0.00000   0.00000   0.00000   0.00000  -0.00015
 176       36I-2        0.00000   0.00000   0.00000   0.00000   0.00000
 177       36I+3        0.00000   0.00000   0.00000   0.00000   0.00000
 178       36I-3        0.00000   0.00000   0.00000   0.00000   0.00000
 179       36I+4        0.00000   0.00000   0.00000   0.00000  -0.00016
 180       36I-4        0.00000   0.00000   0.00000   0.00000   0.00000
[...]
 246       45I+5        0.00000   0.00000   0.00000   0.00000
 247       45I-5        0.00000   0.00000   0.00000   0.00000
 248       45I+6        0.00000   0.00000   0.00000   0.00000
 249       45I-6        0.00000   0.00000   0.00000   0.00000
          Condensed to atoms (all electrons):
               1
     1  Fe  16.000000
          Atomic-Atomic Spin Densities.
               1
     1  Fe   4.000000
 Mulliken charges and spin densities:
               1          2
     1  Fe   0.000000   4.000000
 Sum of Mulliken charges =   0.00000   4.00000
 Mulliken charges and spin densities with hydrogens summed into heavy atoms:
               1          2
     1  Fe   0.000000   4.000000
 Electronic spatial extent (au):  <R**2>=             40.1370
 Charge=              0.0000 electrons
 Dipole moment (field-independent basis, Debye):
    X=              0.0000    Y=              0.0000    Z=              0.0000  Tot=              0.0000
 Quadrupole moment (field-independent basis, Debye-Ang):
   XX=            -17.8862   YY=            -18.2132   ZZ=            -17.8862
   XY=              0.0000   XZ=             -0.0000   YZ=             -0.0000
 Traceless Quadrupole moment (field-independent basis, Debye-Ang):
   XX=              0.1090   YY=             -0.2180   ZZ=              0.1090
   XY=              0.0000   XZ=             -0.0000   YZ=             -0.0000
 Octapole moment (field-independent basis, Debye-Ang**2):
  XXX=              0.0000  YYY=              0.0000  ZZZ=              0.0000  XYY=              0.0000
  XXY=              0.0000  XXZ=              0.0000  XZZ=              0.0000  YZZ=              0.0000
  YYZ=              0.0000  XYZ=              0.0000
 Hexadecapole moment (field-independent basis, Debye-Ang**3):
 XXXX=            -42.5956 YYYY=            -41.8517 ZZZZ=            -42.5956 XXXY=             -0.0000
 XXXZ=              0.0000 YYYX=              0.0000 YYYZ=             -0.0000 ZZZX=              0.0000
 ZZZY=              0.0000 XXYY=            -13.9143 XXZZ=            -14.1985 YYZZ=            -13.9143
 XXYZ=              0.0000 YYXZ=              0.0000 ZZXY=             -0.0000
 N-N= 0.000000000000D+00 E-N=-2.876633290298D+02  KE= 7.185932216284D+01
 Symmetry AG   KE= 2.661629791311D+01
 Symmetry B1G  KE= 7.334320926375D+00
 Symmetry B2G  KE= 7.398396948892D+00
 Symmetry B3G  KE= 7.334320614090D+00
 Symmetry AU   KE= 6.895349230237D-36
 Symmetry B1U  KE= 7.732730426907D+00
 Symmetry B2U  KE= 7.710524815050D+00
 Symmetry B3U  KE= 7.732730518422D+00
 Symmetry AG   SP= 1.000000000000D+00
 Symmetry B1G  SP= 1.000000000000D+00
 Symmetry B2G  SP= 1.000000000000D+00
 Symmetry B3G  SP= 1.000000000000D+00
 Symmetry AU   SP=-9.366025275577D-53
 Symmetry B1U  SP=-2.224948114111D-16
 Symmetry B2U  SP=-2.223479019595D-16
 Symmetry B3U  SP=-2.224349243113D-16
 Orbital energies and kinetic energies (alpha):
                                 1                 2
   1         (A1G)--O         -4.213764          2.278177
   2         (T1U)--O         -2.699395          3.855262
   3         (T1U)--O         -2.683367          3.866365
   4         (T1U)--O         -2.683367          3.866365
   5         O                -0.522524          6.979911
   6         O                -0.256936          0.350862
   7         O                -0.125903          7.398397
   8         (T2G)--O         -0.125903          7.398397
   9         (T2G)--O         -0.102265          7.334321
  10         (T2G)--O         -0.102264          7.334321
  11         V                 0.021974          0.074747
  12         V                 0.021974          0.074747
  13         (A1G)--V          0.022852          0.037205
  14         V                 0.023606          0.067015
  15         V                 0.074096          0.184600
  16         V                 0.074096          0.184600
  17         V                 0.077211          0.183041
  18         (T2G)--V          0.114755          0.139906
  19         V                 0.114755          0.139906
  20         (T2G)--V          0.115359          0.140387
  21         (T2G)--V          0.115359          0.140387
  22         V                 0.115545          0.152144
  23         V                 0.119633          0.194556
  24         V                 0.229279          0.419612
  25         V                 0.229279          0.419612
  26         V                 0.233868          0.421194
  27         V                 0.342915          0.597317
  28         (T2G)--V          0.342915          0.597317
  29         V                 0.345851          0.689750
  30         (T2G)--V          0.345939          0.602280
  31         (T2G)--V          0.345939          0.602280
  32         V                 0.402687          0.663171
  33         V                 0.456352          0.497477
  34         V                 0.456352          0.497477
  35         V                 0.457579          0.497324
  36         (A2U)--V          0.457579          0.497324
  37         V                 0.458661          0.497313
  38         V                 0.458661          0.497313
  39         V                 0.459071          0.497372
  40         V                 0.670468          1.152076
  41         V                 0.670469          1.152076
  42         V                 0.680109          1.155307
  43         V                 0.914399          2.044074
  44         V                 0.914399          2.044074
  45         V                 0.921087          2.237192
  46         V                 0.922783          2.061543
  47         V                 0.922783          2.061543
  48         V                 1.127381          1.211112
  49         V                 1.127381          1.211112
  50         V                 1.128834          1.211063
  51         V                 1.128834          1.211063
  52         V                 1.131019          1.211026
  53         V                 1.131019          1.211026
  54         V                 1.132813          1.211082
  55         V                 1.132813          1.211082
  56         V                 1.133489          1.211377
  57         V                 1.183776          1.765672
  58         V                 1.365908          1.693740
  59         V                 1.365908          1.693740
  60         (A2U)--V          1.371126          1.692646
  61         V                 1.371126          1.692646
  62         V                 1.374482          1.693315
  63         V                 1.374482          1.693315
  64         V                 1.375497          1.693928
  65         (T1U)--V          1.921600          3.116909
  66         (T1U)--V          1.921600          3.116909
  67         (T1U)--V          1.941804          3.123082
  68         V                 2.374170          5.584718
  69         V                 2.374170          5.584718
  70         V                 2.389855          5.607709
  71         V                 2.389855          5.607709
  72         V                 2.389941          5.721434
  73         V                 2.478724          2.651208
  74         V                 2.478724          2.651208
  75         (EU)--V           2.480240          2.651193
  76         V                 2.480240          2.651193
  77         V                 2.483500          2.651153
  78         V                 2.483500          2.651153
  79         V                 2.486954          2.651095
  80         (EU)--V           2.486954          2.651095
  81         V                 2.489486          2.651041
  82         V                 2.489486          2.651041
  83         V                 2.490408          2.651019
  84         V                 3.416124          3.936977
  85         V                 3.416124          3.936977
  86         V                 3.420570          3.936819
  87         V                 3.420570          3.936819
  88         V                 3.428873          3.936638
  89         V                 3.428873          3.936638
  90         V                 3.435918          3.936450
  91         V                 3.435918          3.936450
  92         V                 3.438616          3.936610
  93         V                 3.488977          5.142240
  94         V                 3.531471          5.049084
  95         V                 3.531471          5.049084
  96         V                 3.543794          5.047275
  97         (A2U)--V          3.543794          5.047275
  98         V                 3.552512          5.048903
  99         V                 3.552512          5.048903
 100         V                 3.555010          5.050130
 101         V                 5.190611          7.618046
 102         V                 5.190611          7.618046
 103         V                 5.225845          7.624192
 104         V                 5.934574         13.154038
 105         (T2G)--V          5.934574         13.154038
 106         (T2G)--V          5.956915         13.170467
 107         (T2G)--V          5.956916         13.170467
 108         V                 5.968063         13.176605
 109         V                 8.000853          9.013237
 110         V                 8.000853          9.013237
 111         (EU)--V           8.003835          9.013212
 112         V                 8.003835          9.013212
 113         V                 8.014550          9.013133
 114         V                 8.014550          9.013133
 115         V                 8.026708          9.013014
 116         (EU)--V           8.026708          9.013014
 117         V                 8.035818          9.012920
 118         V                 8.035818          9.012920
 119         V                 8.039159          9.012889
 120         V                 8.197872          8.844270
 121         V                 8.197872          8.844270
 122         V                 8.199094          8.844268
 123         V                 8.199094          8.844268
 124         V                 8.205651          8.844231
 125         V                 8.205651          8.844231
 126         V                 8.214199          8.844191
 127         V                 8.214199          8.844191
 128         V                 8.222145          8.844172
 129         V                 8.222145          8.844172
 130         V                 8.227646          8.844169
 131         V                 8.227646          8.844169
 132         V                 8.229603          8.844178
 133         V                 8.701545         13.184813
 134         V                 8.701545         13.184813
 135         (A2U)--V          8.718173         13.185346
 136         V                 8.718173         13.185346
 137         V                 8.736897         13.186567
 138         V                 8.736897         13.186567
 139         V                 8.744023         13.187024
 140         (T2G)--V          9.184645         11.289981
 141         V                 9.184645         11.289981
 142         V                 9.192133         11.289698
 143         V                 9.192133         11.289698
 144         (T2G)--V          9.209842         11.289623
 145         V                 9.209842         11.289623
 146         V                 9.225360         11.289480
 147         V                 9.225360         11.289480
 148         (T2G)--V          9.231318         11.289555
 149         (T2G)--V         11.153058         13.615062
 150         (T1U)--V         13.133701         17.150341
 151         (T1U)--V         13.133701         17.150341
 152         (T1U)--V         13.182522         17.152415
 153         (T2G)--V         14.646595         28.958968
 154         (T2G)--V         14.646595         28.958968
 155         (T2G)--V         14.672656         28.964857
 156         (T2G)--V         14.672656         28.964857
 157         (T2G)--V         14.696402         28.941310
 158         V                19.526323         27.651652
 159         V                19.526323         27.651652
 160         (A2U)--V         19.542669         27.653143
 161         V                19.542669         27.653143
 162         V                19.571029         27.652929
 163         V                19.571029         27.652929
 164         V                19.583477         27.652378
 165         V                21.272246         26.431661
 166         V                21.272246         26.431661
 167         V                21.280383         26.431588
 168         V                21.280383         26.431588
 169         V                21.304405         26.431828
 170         V                21.304405         26.431828
 171         V                21.326074         26.431945
 172         V                21.326075         26.431945
 173         V                21.334503         26.431995
 174         V                22.223736         24.656799
 175         V                22.223736         24.656799
 176         V                22.223831         24.656791
 177         V                22.223831         24.656791
 178         V                22.235611         24.656780
 179         V                22.235611         24.656780
 180         V                22.252078         24.656819
 181         V                22.252078         24.656819
 182         V                22.267796         24.656948
 183         V                22.267796         24.656948
 184         V                22.278830         24.657105
 185         V                22.278830         24.657105
 186         V                22.282779         24.657188
 187         V                23.082455         26.994085
 188         V                23.082455         26.994085
 189         V                23.085490         26.994024
 190         (EU)--V          23.085490         26.994024
 191         V                23.103506         26.994042
 192         V                23.103506         26.994042
 193         (EU)--V          23.124746         26.994066
 194         V                23.124746         26.994066
 195         V                23.140840         26.994054
 196         V                23.140840         26.994054
 197         V                23.146764         26.994042
 198         (T1U)--V         32.206815         36.771388
 199         (T1U)--V         32.206815         36.771388
 200         (T1U)--V         32.258896         36.770659
 201         V                39.193746         55.775642
 202         V                39.193746         55.775642
 203         V                39.209198         55.776780
 204         (A2U)--V         39.209198         55.776780
 205         V                39.238932         55.773133
 206         V                39.238932         55.773133
 207         V                39.252360         55.770704
 208         V                39.472494         76.157460
 209         V                39.472494         76.157460
 210         V                39.495426         76.151184
 211         V                39.495426         76.151184
 212         V                39.519898         76.129854
 213         V                41.412143         52.732792
 214         V                41.412143         52.732792
 215         V                41.420516         52.733304
 216         V                41.420516         52.733304
 217         V                41.445409         52.733395
 218         V                41.445409         52.733395
 219         V                41.468103         52.735524
 220         V                41.468103         52.735524
 221         V                41.477033         52.737417
 222         V                49.515603         59.460175
 223         V                49.515603         59.460175
 224         V                49.519132         59.460277
 225         (EU)--V          49.519132         59.460277
 226         V                49.538361         59.460364
 227         V                49.538361         59.460364
 228         V                49.560926         59.460411
 229         (EU)--V          49.560926         59.460411
 230         V                49.578006         59.460409
 231         V                49.578007         59.460409
 232         V                49.584292         59.460400
 233         V                52.560198         60.277079
 234         V                52.560198         60.277079
 235         V                52.560209         60.277069
 236         V                52.560209         60.277069
 237         V                52.574371         60.277129
 238         V                52.574371         60.277129
 239         V                52.594225         60.277184
 240         V                52.594225         60.277184
 241         V                52.613152         60.277211
 242         V                52.613152         60.277211
 243         V                52.626414         60.277216
 244         V                52.626414         60.277216
 245         V                52.631153         60.277217
 246         (A1G)--V         77.380206         23.730654
 247         (T1U)--V         86.279364         73.316243
 248         (T1U)--V         86.279364         73.316243
 249         (T1U)--V         86.313732         73.318857
 Total kinetic energy from orbitals= 1.013247576012D+02
                          Isotropic Fermi Contact Couplings
        Atom                 a.u.       MegaHertz       Gauss      10(-4) cm-1
     1  Fe(57)             0.00000       0.00000       0.00000       0.00000
 --------------------------------------------------------
       Center         ----  Spin Dipole Couplings  ----
                      3XX-RR        3YY-RR        3ZZ-RR
 --------------------------------------------------------
     1   Atom        1.440403     -2.880785      1.440383
 --------------------------------------------------------
                        XY            XZ            YZ
 --------------------------------------------------------
     1   Atom        0.000000      0.000000      0.000000
 --------------------------------------------------------


 ---------------------------------------------------------------------------------
              Anisotropic Spin Dipole Couplings in Principal Axis System
 ---------------------------------------------------------------------------------

       Atom             a.u.   MegaHertz   Gauss  10(-4) cm-1        Axes

              Baa    -2.8808   -49.875   -17.797   -16.636 -0.0000  1.0000  0.0000
     1 Fe(57) Bbb     1.4404    24.937     8.898     8.318  0.0000  0.0000  1.0000
              Bcc     1.4404    24.937     8.898     8.318  1.0000  0.0000  0.0000
 

 ---------------------------------------------------------------------------------

 No NMR shielding tensors so no spin-rotation constants.
 Leave Link  601 at Wed Nov 21 10:35:31 2018, MaxMem= 21474836480 cpu:              43.1 elap:               2.8
 (Enter /home1/apps/gaussian/16rA.03/g16/l9999.exe)

 Test job not archived.
 1\1\GINC-C506-064\SP\ROHF\Gen\Fe1(5)\AANNABE\21-Nov-2018\0\\#P ROHF/Ge
 n 5d 7f SCF=(maxcycles=300, VShift=100) MaxDisk=500GB Integral=NoBasis
 Transform GFPRINT Pop=Full Pseudo=Read Guess=Read IOp(5/15=2)\\Fe\\0,5
 \Fe,0,0.,0.,0.\\Version=ES64L-G16RevA.03\HF=-122.6472329\RMSD=3.720e-0
 9\Dipole=0.,0.,0.\Quadrupole=0.0810501,-0.1621009,0.0810508,0.,0.,0.\P
 G=OH [O(Fe1)]\\@


 MORNING PEOPLE ARE USUALLY ADMIRED AS EARLY BIRDS.
 RECALL BEN FRANKLIN'S APHORISM THAT THE EARLY BIRD GETS THE WORM.
 I IDENTIFY WITH THE WORM. --  CRAIG JAGGER, MINNEAPOLIS, KS.
 Job cpu time:       0 days  0 hours 39 minutes  6.3 seconds.
 Elapsed time:       0 days  0 hours  2 minutes 28.3 seconds.
 File lengths (MBytes):  RWF=     30 Int=      0 D2E=      0 Chk=      7 Scr=      1
 Normal termination of Gaussian 16 at Wed Nov 21 10:35:31 2018.
