TACC:  Starting up job 2696973 
TACC:  Starting parallel tasks... 
  Input file(s): V.log.qmc.in-wfj.xml 

=====================================================
                    QMCPACK 3.5.0 

       (c) Copyright 2003-  QMCPACK developers

                    Please cite:
 J. Kim et al. J. Phys. Cond. Mat. 30 195901 (2018)
      https://doi.org/10.1088/1361-648X/aab9c3

  Git branch: develop
  Last git commit: ca320f40410f5ef17c38db08d5c54848ef64bfe1
  Last git commit date: Tue Dec 18 15:37:17 2018 +0800
  Last git commit subject: Merge pull request #764 from Paul-St-Young/dat-h5
=====================================================
  Global options 

  MPI Nodes             = 1024
  MPI Nodes per group   = 1024
  MPI Group ID          = 0
  OMP 1st level threads = 1
  OMP nested threading disabled or only 1 thread on the 2nd level

  Precision used in this calculation, see definitions in the manual:
  Base precision      = double
  Full precision      = double

  Structure-of-arrays (SoA) optimization enabled

  Input XML = V.log.qmc.in-wfj.xml

  Project = V.log
  date    = 2018-12-27 16:30:50 CST
  host    = c456-042.stampede2.tacc.utexas.edu

 Random Number
 -------------
  Offset for the random number seeds based on time: 666

  Range of prime numbers to use as seeds over processors and threads = 4993-14431


 Particle Set 
 ------------
  Name: ion0
  All the species have the same mass 1
  Particle set size: 1

 Particle Set 
 ------------
  Name: e
  All the species have the same mass 1
  Particle set size: 13

 Wavefunction setup: 
 ------------------- 
  Name: psi0
  LCAO: SoaAtomicBasisSet<MultiQuintic,1>

  Distance table for similar particles (A-A):
    source/target: e
    Using structure-of-arrays (SoA) data layout
    Distance computations use open boundary conditions in 3D.


  Distance table for dissimilar particles (A-B):
    source: ion0  target: e
    Using structure-of-arrays (SoA) data layout
    Distance computations use open boundary conditions in 3D.

Reading BasisSet from HDF5 file:V.log.h5
<input node="atomicBasisSet" name="gaussian" expandYlm="pyscf" angular="spherical" elementType="V" normalized="no" type="Numerical" expM="0" />
  AO BasisSet for V
   Spherical Harmonics contain (-1)^m factor
   Angular momentum m expanded as -l, ... ,l, with the exception of L=1 (1,-1,0)
   Grid is created by the input paremters in h5
    Using log grid ri = 1e-06 rf = 100 npts = 1001
   R(n,l,m,s) 0 0 0 0
   R(n,l,m,s) 1 0 0 0
   R(n,l,m,s) 2 0 0 0
   R(n,l,m,s) 3 0 0 0
   R(n,l,m,s) 4 0 0 0
   R(n,l,m,s) 5 0 0 0
   R(n,l,m,s) 6 0 0 0
   R(n,l,m,s) 7 0 0 0
   R(n,l,m,s) 8 1 0 0
   R(n,l,m,s) 9 1 0 0
   R(n,l,m,s) 10 1 0 0
   R(n,l,m,s) 11 1 0 0
   R(n,l,m,s) 12 1 0 0
   R(n,l,m,s) 13 1 0 0
   R(n,l,m,s) 14 1 0 0
   R(n,l,m,s) 15 1 0 0
   R(n,l,m,s) 16 2 0 0
   R(n,l,m,s) 17 2 0 0
   R(n,l,m,s) 18 2 0 0
   R(n,l,m,s) 19 2 0 0
   R(n,l,m,s) 20 2 0 0
   R(n,l,m,s) 21 2 0 0
   R(n,l,m,s) 22 2 0 0
   R(n,l,m,s) 23 3 0 0
   R(n,l,m,s) 24 3 0 0
   R(n,l,m,s) 25 3 0 0
   R(n,l,m,s) 26 3 0 0
   R(n,l,m,s) 27 4 0 0
   R(n,l,m,s) 28 4 0 0
   R(n,l,m,s) 29 4 0 0
   R(n,l,m,s) 30 5 0 0
   R(n,l,m,s) 31 5 0 0
Expanding Ylm as L=1 as (1,-1,0) and L>1 as -l,-l+1,...,l-1,l
   Adding 1 spherical orbitals
   Adding 1 spherical orbitals
   Adding 1 spherical orbitals
   Adding 1 spherical orbitals
   Adding 1 spherical orbitals
   Adding 1 spherical orbitals
   Adding 1 spherical orbitals
   Adding 1 spherical orbitals
   Adding 3 spherical orbitals
   Adding 3 spherical orbitals
   Adding 3 spherical orbitals
   Adding 3 spherical orbitals
   Adding 3 spherical orbitals
   Adding 3 spherical orbitals
   Adding 3 spherical orbitals
   Adding 3 spherical orbitals
   Adding 5 spherical orbitals
   Adding 5 spherical orbitals
   Adding 5 spherical orbitals
   Adding 5 spherical orbitals
   Adding 5 spherical orbitals
   Adding 5 spherical orbitals
   Adding 5 spherical orbitals
   Adding 7 spherical orbitals
   Adding 7 spherical orbitals
   Adding 7 spherical orbitals
   Adding 7 spherical orbitals
   Adding 9 spherical orbitals
   Adding 9 spherical orbitals
   Adding 9 spherical orbitals
   Adding 11 spherical orbitals
   Adding 11 spherical orbitals
   Maximum Angular Momentum  = 5
   Number of Radial functors = 32
   Basis size                = 144

  Created SPOSet builder named 'LCAOBSet' of type molecularorbital
Reuse SPOSetBuilder "LCAOBSet" type MolecularOrbital
  Building SPOSet '' with '' basis set.
Reuse SPOSetBuilder "LCAOBSet" type MolecularOrbital
  Building SPOSet '' with '' basis set.
  Creating a determinant updet group=0 sposet=updet
  Reusing a SPO set updet
Using DiracDeterminant 
Using rank-1 Sherman-Morrison Fahy update

  Creating a determinant downdet group=1 sposet=downdet
  Reusing a SPO set downdet
Using DiracDeterminant 
Using rank-1 Sherman-Morrison Fahy update

  FermionWF = SlaterDet
  RadialJastrowBuilder adds a functor with cusp = -0.25
 size = 10 parameters 
 cusp = -0.25
 rcut = 12.1
Parameter     Name      Value
uu_0 0 1 1  ON 0
uu_1 0 1 1  ON 1
uu_2 0 1 1  ON 2
uu_3 0 1 1  ON 3
uu_4 0 1 1  ON 4
uu_5 0 1 1  ON 5
uu_6 0 1 1  ON 6
uu_7 0 1 1  ON 7
uu_8 0 1 1  ON 8
uu_9 0 1 1  ON 9
  RadialJastrowBuilder adds a functor with cusp = -0.5
 size = 10 parameters 
 cusp = -0.5
 rcut = 12.1
Parameter     Name      Value
ud_0 0 1 1  ON 0
ud_1 0 1 1  ON 1
ud_2 0 1 1  ON 2
ud_3 0 1 1  ON 3
ud_4 0 1 1  ON 4
ud_5 0 1 1  ON 5
ud_6 0 1 1  ON 6
ud_7 0 1 1  ON 7
ud_8 0 1 1  ON 8
ud_9 0 1 1  ON 9
 size = 10 parameters 
 cusp = 0
 rcut = 12.1
Parameter     Name      Value
eV_0 0 1 1  ON 0
eV_1 0 1 1  ON 1
eV_2 0 1 1  ON 2
eV_3 0 1 1  ON 3
eV_4 0 1 1  ON 4
eV_5 0 1 1  ON 5
eV_6 0 1 1  ON 6
eV_7 0 1 1  ON 7
eV_8 0 1 1  ON 8
eV_9 0 1 1  ON 9
Expected 26 parameters, but found 0 in PolynomialFunctor3D.
Expected 26 parameters, but found 0 in PolynomialFunctor3D.
  QMCHamiltonian::addOperator Kinetic to H, physical Hamiltonian 
  QMCHamiltonian::addOperator ElecElec to H, physical Hamiltonian 
QMCHamiltonian::addOperatorType added type coulomb named ElecElec
  CoulombAA for ion0 is not created.  Number of particles == 1 and nonPeriodic

  ECPotential builder for pseudopotential 

  Adding pseudopotential for V
   Linear grid  ri=0 rf=10 npts = 10001
    ECPComponentBuilder::buildSemiLocalAndLocal 
    Assuming Hartree unit
   Number of angular momentum channels 3
   Maximum angular momentum channel 2
   Creating a Linear Grid Rmax=1.57
  Using global grid with delta = 0.001
   Making L=2 a local potential with a radial cutoff of 9.999
    Non-local pseudopotential parameters
    Maximum angular mementum = 1
    Number of non-local channels = 2
       l(0)=0
       l(1)=1
    Cutoff radius = 1.57
    Spherical grids and weights: 
                        1                 0                 0       0.08333333333
                       -1   1.224646799e-16                 0       0.08333333333
             0.4472135955       0.894427191                 0       0.08333333333
            -0.4472135955      0.7236067977      0.5257311121       0.08333333333
             0.4472135955      0.2763932023      0.8506508084       0.08333333333
            -0.4472135955     -0.2763932023      0.8506508084       0.08333333333
             0.4472135955     -0.7236067977      0.5257311121       0.08333333333
            -0.4472135955      -0.894427191   1.095357397e-16       0.08333333333
             0.4472135955     -0.7236067977     -0.5257311121       0.08333333333
            -0.4472135955     -0.2763932023     -0.8506508084       0.08333333333
             0.4472135955      0.2763932023     -0.8506508084       0.08333333333
            -0.4472135955      0.7236067977     -0.5257311121       0.08333333333
    Maximum cutoff radius 1.57
  QMCHamiltonian::addOperator LocalECP to H, physical Hamiltonian 

  Using NonLocalECP potential 
    Maximum grid on a sphere for NonLocalECPotential: 12
  QMCHamiltonian::addOperator NonLocalECP to H, physical Hamiltonian 
QMCHamiltonian::addOperatorType added type pseudo named PseudoPot

  QMCHamiltonian::add2WalkerProperty added
    4 to P::PropertyList 
    0 to P::Collectables 
    starting Index of the observables in P::PropertyList = 9
ParticleSetPool::randomize 
<init source="ion0" target="e">
</init>
  Initialization Execution time = 0.948 secs
=========================================================
 Summary of QMC systems 
=========================================================
ParticleSetPool has: 

  ParticleSet e : 0 8 13 

    13

    u -8.6880515780e-01 -5.6689776577e-01  5.5823712161e-01
    u -9.2985814595e-01  2.0007402957e+00  1.9098543717e+00
    u -4.8101261241e+00 -1.0437849695e+00  2.6005005361e-01
    u  2.4652332205e+00 -2.9232809001e-01 -2.1917034458e-01
    u  2.8665436595e+00  6.8650807980e-01 -1.4093440049e+00
    u -1.1428267749e+00  8.2207158386e-01  1.3826823527e+00
    u  1.9891672989e-01 -1.8046698140e+00 -9.7113662178e-01
    u  3.3413390202e+00  8.6241861170e-01  4.8283229383e+00
    d -6.3202912267e-01 -7.3447994163e-01 -4.0478033464e-01
    d  2.0614232036e+00 -2.7000467623e+00  7.4912601185e-01
    (... and 3 more particle positions ...)

  ParticleSet ion0 : 0 1 

    1

    V  0.0000000000e+00  0.0000000000e+00  0.0000000000e+00

  Hamiltonian h0
  Kinetic         Kinetic energy
  ElecElec        CoulombAA source/target e

  LocalECP        LocalECPotential: ion0
  NonLocalECP     NonLocalECPotential: ion0

=========================================================
  Start VMC
  File Root V.log.s000 append = no 
=========================================================
  Adding 1 walkers to 0 existing sets
  Total number of walkers: 1.0240000000e+03
  Total weight: 1.0240000000e+03
  Resetting Properties of the walkers 1 x 13

<vmc function="put">
  qmc_counter=0  my_counter=0
  time step      = 1.5000000000e-01
  blocks         = 200
  steps          = 1
  substeps       = 5
  current        = 0
  target samples = 1.0240000000e+03
  walkers/mpi    = 1

  stepsbetweensamples = 200
<parameter name="blocks" condition="int">200</parameter>
<parameter name="blocks_between_recompute" condition="int">0</parameter>
<parameter name="check_properties" condition="int">100</parameter>
<parameter name="checkproperties" condition="int">100</parameter>
<parameter name="current" condition="int">0</parameter>
<parameter name="dmcwalkersperthread" condition="real">1.0000000000e+00</parameter>
<parameter name="maxcpusecs" condition="real">3.6000000000e+05</parameter>
<parameter name="record_configs" condition="int">0</parameter>
<parameter name="record_walkers" condition="int">200</parameter>
<parameter name="recordconfigs" condition="int">0</parameter>
<parameter name="recordwalkers" condition="int">200</parameter>
<parameter name="rewind" condition="int">0</parameter>
<parameter name="samples" condition="real">1.0240000000e+03</parameter>
<parameter name="samplesperthread" condition="real">1.0000000000e+00</parameter>
<parameter name="steps" condition="int">1</parameter>
<parameter name="stepsbetweensamples" condition="int">200</parameter>
<parameter name="store_configs" condition="int">0</parameter>
<parameter name="storeconfigs" condition="int">0</parameter>
<parameter name="sub_steps" condition="int">5</parameter>
<parameter name="substeps" condition="int">5</parameter>
<parameter name="tau" condition="au">1.5000000000e-01</parameter>
<parameter name="time_step" condition="au">1.5000000000e-01</parameter>
<parameter name="timestep" condition="au">1.5000000000e-01</parameter>
<parameter name="use_drift" condition="string">no</parameter>
<parameter name="usedrift" condition="string">no</parameter>
<parameter name="walkers" condition="int">1</parameter>
<parameter name="warmup_steps" condition="int">100</parameter>
<parameter name="warmupsteps" condition="int">100</parameter>
  DumpConfig==false Nothing (configurations, state) will be saved.
  Walker Samples are dumped every 200 steps.
</vmc>
  Initial partition of walkers 0 1 

  Using Particle by Particle moves
  Walker moves without drift
  Total Sample Size   =1024
  Walker distribution on root = 0 1 
  Using Locality Approximation
===== Memory Usage after the buffer registration =====
Available memory on node 0, free + buffers : 83618 MB
Memory footprint by rank 0 on node 0       : 76 MB
==================================================
  Anonymous Buffer size per walker : 6464 Bytes.
MEMORY increase 0 MB VMC::resetRun
====================================================
  SimpleFixedNodeBranch::finalize after a VMC block
    QMC counter        = 0
    time step          = 0.15
    reference energy   = -71.0586
    reference variance = 2.41194
====================================================
  QMC Execution time = 1.6859e+00 secs 
Loop execution max-interations = 5

=========================================================
  Start QMCFixedSampleLinearOptimize
  File Root V.log.s001 append = no 
=========================================================
  Skip QMCDriver::putQMCInfo 
  Resetting Properties of the walkers 1 x 13

=========================================================
  Start VMC
  File Root V.log.s001 append = no 
=========================================================
  Using the current 1 walkers.
  Total number of walkers: 1.0240e+03
  Total weight: 1.0240e+03
  Resetting Properties of the walkers 1 x 13

<vmc function="put">
  qmc_counter=0  my_counter=0
  time step      = 1.5000e-01
  blocks         = 400
  steps          = 1
  substeps       = 5
  current        = 0
  target samples = 2.5600e+05
  walkers/mpi    = 1

  stepsbetweensamples = 1
<parameter name="blocks" condition="int">400</parameter>
<parameter name="blocks_between_recompute" condition="int">0</parameter>
<parameter name="check_properties" condition="int">100</parameter>
<parameter name="checkproperties" condition="int">100</parameter>
<parameter name="current" condition="int">0</parameter>
<parameter name="dmcwalkersperthread" condition="real">2.5000e+02</parameter>
<parameter name="maxcpusecs" condition="real">3.6000e+05</parameter>
<parameter name="record_configs" condition="int">0</parameter>
<parameter name="record_walkers" condition="int">1</parameter>
<parameter name="recordconfigs" condition="int">0</parameter>
<parameter name="recordwalkers" condition="int">1</parameter>
<parameter name="rewind" condition="int">0</parameter>
<parameter name="samples" condition="real">2.5600e+05</parameter>
<parameter name="samplesperthread" condition="real">2.5000e+02</parameter>
<parameter name="steps" condition="int">1</parameter>
<parameter name="stepsbetweensamples" condition="int">1</parameter>
<parameter name="store_configs" condition="int">0</parameter>
<parameter name="storeconfigs" condition="int">0</parameter>
<parameter name="sub_steps" condition="int">5</parameter>
<parameter name="substeps" condition="int">5</parameter>
<parameter name="tau" condition="au">1.5000e-01</parameter>
<parameter name="time_step" condition="au">1.5000e-01</parameter>
<parameter name="timestep" condition="au">1.5000e-01</parameter>
<parameter name="use_drift" condition="string">no</parameter>
<parameter name="usedrift" condition="string">no</parameter>
<parameter name="walkers" condition="int">1</parameter>
<parameter name="warmup_steps" condition="int">0</parameter>
<parameter name="warmupsteps" condition="int">0</parameter>
  DumpConfig==false Nothing (configurations, state) will be saved.
  Walker Samples are dumped every 1 steps.
</vmc>
    Restarting, cummulative properties:
      energy     = -7.1059e+01
      variance   = 0.0000e+00
      r2accepted = 1.0000e-10
      r2proposed = 1.0000e-10
 Using QMCCostFunction::QMCCostFunction
  EstimatorManagerBase::add replace LocalEnergy estimator.
<optimization-report>
<vmc stage="main" blocks="400">
  Cannot make clones again. Use existing 1 clones
  Initial partition of walkers 0 1 

  Using Particle by Particle moves
  Walker moves without drift
  Total Sample Size   =256000
  Walker distribution on root = 0 1 
  Using Locality Approximation
===== Memory Usage after the buffer registration =====
Available memory on node 0, free + buffers : 83595 MB
Memory footprint by rank 0 on node 0       : 77 MB
==================================================
  Anonymous Buffer size per walker : 6464 Bytes.
MEMORY increase 0 MB VMC::resetRun
====================================================
  SimpleFixedNodeBranch::finalize after a VMC block
    QMC counter        = 1
    time step          = 0.15
    reference energy   = -71.0273
    reference variance = 2.6011
====================================================
  Execution time = 3.0088e+00
</vmc>
<opt stage="setup">
  <log>
   Reading configurations from h5FileRoot V.log.s001
  QMCCostFunction is created with 1 threads.
  Using Nonlocal PP in Opt: NonLocalECP
   Number of samples loaded to each thread : 250 
  VMC Eavg = -7.1036e+01
  VMC Evar = 2.5211e+00
  Total weights = 2.5600e+05
  Execution time = 4.5828e-01
  </log>
</opt>
<opt stage="main" walkers="256000">
  <log>

*****************************************
Building overlap and Hamiltonian matrices
*****************************************

Among totally 30 optimized parameters, largest LM parameter change : 9.0859e-01 at parameter 20

******************************************************************************
Init Cost =   2.5211e+00    New Cost =   1.0354e+00  Delta Cost =  -1.4857e+00
******************************************************************************

The new set of parameters is valid. Updating the trial wave function!

*****************************************************************************
Applying the update for shift_i =   1.0000e-02     and shift_s =   2.5000e-01
*****************************************************************************
  Execution time = 4.7767e+00
  </log>
  <optVariables href="V.log.s001.opt.xml">
uu_0 1.7430e-01 1 1  ON 0
uu_1 2.6730e-02 1 1  ON 1
uu_2 -1.7889e-02 1 1  ON 2
uu_3 -3.5995e-02 1 1  ON 3
uu_4 -3.4245e-02 1 1  ON 4
uu_5 -2.9410e-02 1 1  ON 5
uu_6 -1.7259e-02 1 1  ON 6
uu_7 -5.4871e-03 1 1  ON 7
uu_8 4.3531e-03 1 1  ON 8
uu_9 -1.4875e-03 1 1  ON 9
ud_0 2.3381e-01 1 1  ON 10
ud_1 3.8354e-02 1 1  ON 11
ud_2 -5.8367e-03 1 1  ON 12
ud_3 -2.9433e-02 1 1  ON 13
ud_4 -3.1294e-02 1 1  ON 14
ud_5 -3.3861e-02 1 1  ON 15
ud_6 -2.6732e-02 1 1  ON 16
ud_7 -2.2408e-02 1 1  ON 17
ud_8 -1.6514e-02 1 1  ON 18
ud_9 -1.8755e-02 1 1  ON 19
eV_0 -9.0859e-01 1 1  ON 20
eV_1 -3.3137e-01 1 1  ON 21
eV_2 1.0400e-01 1 1  ON 22
eV_3 2.6482e-01 1 1  ON 23
eV_4 3.1948e-01 1 1  ON 24
eV_5 2.7874e-01 1 1  ON 25
eV_6 1.8282e-01 1 1  ON 26
eV_7 7.8715e-02 1 1  ON 27
eV_8 2.5174e-02 1 1  ON 28
eV_9 -8.3931e-04 1 1  ON 29
  </optVariables>
   Restore the number of walkers to 1, removing 0 walkers.
</opt>
</optimization-report>
  QMC Execution time = 4.7872e+00 secs 
  Reusing QMCFixedSampleLinearOptimize
 Using QMCCostFunction::QMCCostFunction

=========================================================
  Start QMCFixedSampleLinearOptimize
  File Root V.log.s002 append = no 
=========================================================
  Skip QMCDriver::putQMCInfo 
  Resetting Properties of the walkers 1 x 13

=========================================================
  Start VMC
  File Root V.log.s002 append = no 
=========================================================
Using existing walkers 
  Resetting Properties of the walkers 1 x 13

<vmc function="put">
  qmc_counter=1  my_counter=1
  time step      = 1.5000e-01
  blocks         = 400
  steps          = 1
  substeps       = 5
  current        = 0
  target samples = 2.5600e+05
  walkers/mpi    = 1

  stepsbetweensamples = 1
<parameter name="blocks" condition="int">400</parameter>
<parameter name="blocks_between_recompute" condition="int">0</parameter>
<parameter name="check_properties" condition="int">100</parameter>
<parameter name="checkproperties" condition="int">100</parameter>
<parameter name="current" condition="int">0</parameter>
<parameter name="dmcwalkersperthread" condition="real">2.5000e+02</parameter>
<parameter name="maxcpusecs" condition="real">3.6000e+05</parameter>
<parameter name="record_configs" condition="int">0</parameter>
<parameter name="record_walkers" condition="int">1</parameter>
<parameter name="recordconfigs" condition="int">0</parameter>
<parameter name="recordwalkers" condition="int">1</parameter>
<parameter name="rewind" condition="int">0</parameter>
<parameter name="samples" condition="real">2.5600e+05</parameter>
<parameter name="samplesperthread" condition="real">2.5000e+02</parameter>
<parameter name="steps" condition="int">1</parameter>
<parameter name="stepsbetweensamples" condition="int">1</parameter>
<parameter name="store_configs" condition="int">0</parameter>
<parameter name="storeconfigs" condition="int">0</parameter>
<parameter name="sub_steps" condition="int">5</parameter>
<parameter name="substeps" condition="int">5</parameter>
<parameter name="tau" condition="au">1.5000e-01</parameter>
<parameter name="time_step" condition="au">1.5000e-01</parameter>
<parameter name="timestep" condition="au">1.5000e-01</parameter>
<parameter name="use_drift" condition="string">no</parameter>
<parameter name="usedrift" condition="string">no</parameter>
<parameter name="walkers" condition="int">1</parameter>
<parameter name="warmup_steps" condition="int">0</parameter>
<parameter name="warmupsteps" condition="int">0</parameter>
  DumpConfig==false Nothing (configurations, state) will be saved.
  Walker Samples are dumped every 1 steps.
</vmc>
  EstimatorManagerBase::add replace LocalEnergy estimator.
  EstimatorManagerBase::add replace LocalEnergy estimator.
<optimization-report>
<vmc stage="main" blocks="400">
  Cannot make clones again. Use existing 1 clones
  Initial partition of walkers 0 1 
  Using Particle by Particle moves
  Walker moves without drift
  Total Sample Size   =256000
  Walker distribution on root = 0 1 
  Using Locality Approximation
===== Memory Usage after the buffer registration =====
Available memory on node 0, free + buffers : 83579 MB
Memory footprint by rank 0 on node 0       : 79 MB
==================================================
====================================================
  SimpleFixedNodeBranch::finalize after a VMC block
    QMC counter        = 2
    time step          = 0.15
    reference energy   = -71.2635
    reference variance = 0.850696
====================================================
  Execution time = 5.0317e+00
</vmc>
<opt stage="setup">
  <log>
   Reading configurations from h5FileRoot V.log.s002
  QMCCostFunction is created with 1 threads.
  Using Nonlocal PP in Opt: NonLocalECP
   Number of samples loaded to each thread : 250 
  VMC Eavg = -7.1284e+01
  VMC Evar = 9.2544e-01
  Total weights = 2.5600e+05
  Execution time = 1.2903e+00
  </log>
</opt>
<opt stage="main" walkers="256000">
  <log>

*****************************************
Building overlap and Hamiltonian matrices
*****************************************

Among totally 30 optimized parameters, largest LM parameter change : 4.6220e-01 at parameter 20

******************************************************************************
Init Cost =   9.2544e-01    New Cost =   1.0159e+00  Delta Cost =   9.0453e-02
******************************************************************************

The new set of parameters is valid. Updating the trial wave function!

*****************************************************************************
Applying the update for shift_i =   1.0000e-02     and shift_s =   6.2500e-02
*****************************************************************************
  Execution time = 7.5806e+00
  </log>
  <optVariables href="V.log.s002.opt.xml">
uu_0 2.2440e-01 1 1  ON 0
uu_1 3.9944e-02 1 1  ON 1
uu_2 -3.0696e-02 1 1  ON 2
uu_3 -6.1569e-02 1 1  ON 3
uu_4 -6.3344e-02 1 1  ON 4
uu_5 -5.4416e-02 1 1  ON 5
uu_6 -2.8084e-02 1 1  ON 6
uu_7 -1.3528e-03 1 1  ON 7
uu_8 1.3884e-02 1 1  ON 8
uu_9 1.1518e-02 1 1  ON 9
ud_0 3.2350e-01 1 1  ON 10
ud_1 8.3767e-02 1 1  ON 11
ud_2 1.0983e-02 1 1  ON 12
ud_3 -3.1595e-02 1 1  ON 13
ud_4 -4.7080e-02 1 1  ON 14
ud_5 -5.9349e-02 1 1  ON 15
ud_6 -5.4295e-02 1 1  ON 16
ud_7 -4.4962e-02 1 1  ON 17
ud_8 -3.5251e-02 1 1  ON 18
ud_9 -2.3739e-02 1 1  ON 19
eV_0 -1.3708e+00 1 1  ON 20
eV_1 -6.0753e-01 1 1  ON 21
eV_2 5.6638e-02 1 1  ON 22
eV_3 3.7524e-01 1 1  ON 23
eV_4 5.2653e-01 1 1  ON 24
eV_5 4.9428e-01 1 1  ON 25
eV_6 3.4117e-01 1 1  ON 26
eV_7 1.5445e-01 1 1  ON 27
eV_8 4.2163e-02 1 1  ON 28
eV_9 -3.2861e-04 1 1  ON 29
  </optVariables>
   Restore the number of walkers to 1, removing 0 walkers.
</opt>
</optimization-report>
  QMC Execution time = 7.5909e+00 secs 
  Reusing QMCFixedSampleLinearOptimize
 Using QMCCostFunction::QMCCostFunction

=========================================================
  Start QMCFixedSampleLinearOptimize
  File Root V.log.s003 append = no 
=========================================================
  Skip QMCDriver::putQMCInfo 
  Resetting Properties of the walkers 1 x 13

=========================================================
  Start VMC
  File Root V.log.s003 append = no 
=========================================================
Using existing walkers 
  Resetting Properties of the walkers 1 x 13

<vmc function="put">
  qmc_counter=2  my_counter=2
  time step      = 1.5000e-01
  blocks         = 400
  steps          = 1
  substeps       = 5
  current        = 0
  target samples = 2.5600e+05
  walkers/mpi    = 1

  stepsbetweensamples = 1
<parameter name="blocks" condition="int">400</parameter>
<parameter name="blocks_between_recompute" condition="int">0</parameter>
<parameter name="check_properties" condition="int">100</parameter>
<parameter name="checkproperties" condition="int">100</parameter>
<parameter name="current" condition="int">0</parameter>
<parameter name="dmcwalkersperthread" condition="real">2.5000e+02</parameter>
<parameter name="maxcpusecs" condition="real">3.6000e+05</parameter>
<parameter name="record_configs" condition="int">0</parameter>
<parameter name="record_walkers" condition="int">1</parameter>
<parameter name="recordconfigs" condition="int">0</parameter>
<parameter name="recordwalkers" condition="int">1</parameter>
<parameter name="rewind" condition="int">0</parameter>
<parameter name="samples" condition="real">2.5600e+05</parameter>
<parameter name="samplesperthread" condition="real">2.5000e+02</parameter>
<parameter name="steps" condition="int">1</parameter>
<parameter name="stepsbetweensamples" condition="int">1</parameter>
<parameter name="store_configs" condition="int">0</parameter>
<parameter name="storeconfigs" condition="int">0</parameter>
<parameter name="sub_steps" condition="int">5</parameter>
<parameter name="substeps" condition="int">5</parameter>
<parameter name="tau" condition="au">1.5000e-01</parameter>
<parameter name="time_step" condition="au">1.5000e-01</parameter>
<parameter name="timestep" condition="au">1.5000e-01</parameter>
<parameter name="use_drift" condition="string">no</parameter>
<parameter name="usedrift" condition="string">no</parameter>
<parameter name="walkers" condition="int">1</parameter>
<parameter name="warmup_steps" condition="int">0</parameter>
<parameter name="warmupsteps" condition="int">0</parameter>
  DumpConfig==false Nothing (configurations, state) will be saved.
  Walker Samples are dumped every 1 steps.
</vmc>
  EstimatorManagerBase::add replace LocalEnergy estimator.
  EstimatorManagerBase::add replace LocalEnergy estimator.
<optimization-report>
<vmc stage="main" blocks="400">
  Cannot make clones again. Use existing 1 clones
  Initial partition of walkers 0 1 
  Using Particle by Particle moves
  Walker moves without drift
  Total Sample Size   =256000
  Walker distribution on root = 0 1 
  Using Locality Approximation
===== Memory Usage after the buffer registration =====
Available memory on node 0, free + buffers : 83576 MB
Memory footprint by rank 0 on node 0       : 81 MB
==================================================
====================================================
  SimpleFixedNodeBranch::finalize after a VMC block
    QMC counter        = 3
    time step          = 0.15
    reference energy   = -71.2972
    reference variance = 1.27674
====================================================
  Execution time = 4.9762e+00
</vmc>
<opt stage="setup">
  <log>
   Reading configurations from h5FileRoot V.log.s003
  QMCCostFunction is created with 1 threads.
  Using Nonlocal PP in Opt: NonLocalECP
   Number of samples loaded to each thread : 250 
  VMC Eavg = -7.1309e+01
  VMC Evar = 1.0509e+00
  Total weights = 2.5600e+05
  Execution time = 1.2439e+00
  </log>
</opt>
<opt stage="main" walkers="256000">
  <log>

*****************************************
Building overlap and Hamiltonian matrices
*****************************************

Among totally 30 optimized parameters, largest LM parameter change : 2.1672e-01 at parameter 20

******************************************************************************
Init Cost =   1.0509e+00    New Cost =   1.1014e+00  Delta Cost =   5.0487e-02
******************************************************************************

The new set of parameters is valid. Updating the trial wave function!

*****************************************************************************
Applying the update for shift_i =   1.0000e-02     and shift_s =   1.5625e-02
*****************************************************************************
  Execution time = 7.1850e+00
  </log>
  <optVariables href="V.log.s003.opt.xml">
uu_0 2.4011e-01 1 1  ON 0
uu_1 4.7004e-02 1 1  ON 1
uu_2 -3.0516e-02 1 1  ON 2
uu_3 -7.1019e-02 1 1  ON 3
uu_4 -7.8652e-02 1 1  ON 4
uu_5 -7.4522e-02 1 1  ON 5
uu_6 -4.4695e-02 1 1  ON 6
uu_7 -1.3542e-02 1 1  ON 7
uu_8 1.9235e-02 1 1  ON 8
uu_9 2.6514e-02 1 1  ON 9
ud_0 3.5648e-01 1 1  ON 10
ud_1 1.0843e-01 1 1  ON 11
ud_2 2.6577e-02 1 1  ON 12
ud_3 -2.5865e-02 1 1  ON 13
ud_4 -4.8081e-02 1 1  ON 14
ud_5 -6.9415e-02 1 1  ON 15
ud_6 -6.5445e-02 1 1  ON 16
ud_7 -5.8122e-02 1 1  ON 17
ud_8 -3.9953e-02 1 1  ON 18
ud_9 -3.1349e-02 1 1  ON 19
eV_0 -1.5875e+00 1 1  ON 20
eV_1 -7.7728e-01 1 1  ON 21
eV_2 -3.7621e-02 1 1  ON 22
eV_3 3.7207e-01 1 1  ON 23
eV_4 6.1010e-01 1 1  ON 24
eV_5 6.3268e-01 1 1  ON 25
eV_6 4.8793e-01 1 1  ON 26
eV_7 2.4022e-01 1 1  ON 27
eV_8 6.4767e-02 1 1  ON 28
eV_9 4.6873e-03 1 1  ON 29
  </optVariables>
   Restore the number of walkers to 1, removing 0 walkers.
</opt>
</optimization-report>
  QMC Execution time = 7.4750e+00 secs 
  Reusing QMCFixedSampleLinearOptimize
 Using QMCCostFunction::QMCCostFunction

=========================================================
  Start QMCFixedSampleLinearOptimize
  File Root V.log.s004 append = no 
=========================================================
  Skip QMCDriver::putQMCInfo 
  Resetting Properties of the walkers 1 x 13

=========================================================
  Start VMC
  File Root V.log.s004 append = no 
=========================================================
Using existing walkers 
  Resetting Properties of the walkers 1 x 13

<vmc function="put">
  qmc_counter=3  my_counter=3
  time step      = 1.5000e-01
  blocks         = 400
  steps          = 1
  substeps       = 5
  current        = 0
  target samples = 2.5600e+05
  walkers/mpi    = 1

  stepsbetweensamples = 1
<parameter name="blocks" condition="int">400</parameter>
<parameter name="blocks_between_recompute" condition="int">0</parameter>
<parameter name="check_properties" condition="int">100</parameter>
<parameter name="checkproperties" condition="int">100</parameter>
<parameter name="current" condition="int">0</parameter>
<parameter name="dmcwalkersperthread" condition="real">2.5000e+02</parameter>
<parameter name="maxcpusecs" condition="real">3.6000e+05</parameter>
<parameter name="record_configs" condition="int">0</parameter>
<parameter name="record_walkers" condition="int">1</parameter>
<parameter name="recordconfigs" condition="int">0</parameter>
<parameter name="recordwalkers" condition="int">1</parameter>
<parameter name="rewind" condition="int">0</parameter>
<parameter name="samples" condition="real">2.5600e+05</parameter>
<parameter name="samplesperthread" condition="real">2.5000e+02</parameter>
<parameter name="steps" condition="int">1</parameter>
<parameter name="stepsbetweensamples" condition="int">1</parameter>
<parameter name="store_configs" condition="int">0</parameter>
<parameter name="storeconfigs" condition="int">0</parameter>
<parameter name="sub_steps" condition="int">5</parameter>
<parameter name="substeps" condition="int">5</parameter>
<parameter name="tau" condition="au">1.5000e-01</parameter>
<parameter name="time_step" condition="au">1.5000e-01</parameter>
<parameter name="timestep" condition="au">1.5000e-01</parameter>
<parameter name="use_drift" condition="string">no</parameter>
<parameter name="usedrift" condition="string">no</parameter>
<parameter name="walkers" condition="int">1</parameter>
<parameter name="warmup_steps" condition="int">0</parameter>
<parameter name="warmupsteps" condition="int">0</parameter>
  DumpConfig==false Nothing (configurations, state) will be saved.
  Walker Samples are dumped every 1 steps.
</vmc>
  EstimatorManagerBase::add replace LocalEnergy estimator.
  EstimatorManagerBase::add replace LocalEnergy estimator.
<optimization-report>
<vmc stage="main" blocks="400">
  Cannot make clones again. Use existing 1 clones
  Initial partition of walkers 0 1 
  Using Particle by Particle moves
  Walker moves without drift
  Total Sample Size   =256000
  Walker distribution on root = 0 1 
  Using Locality Approximation
===== Memory Usage after the buffer registration =====
Available memory on node 0, free + buffers : 83572 MB
Memory footprint by rank 0 on node 0       : 84 MB
==================================================
====================================================
  SimpleFixedNodeBranch::finalize after a VMC block
    QMC counter        = 4
    time step          = 0.15
    reference energy   = -71.3408
    reference variance = 0.97111
====================================================
  Execution time = 4.9010e+00
</vmc>
<opt stage="setup">
  <log>
   Reading configurations from h5FileRoot V.log.s004
  QMCCostFunction is created with 1 threads.
  Using Nonlocal PP in Opt: NonLocalECP
   Number of samples loaded to each thread : 250 
  VMC Eavg = -7.1309e+01
  VMC Evar = 1.0193e+00
  Total weights = 2.5600e+05
  Execution time = 9.6820e-01
  </log>
</opt>
<opt stage="main" walkers="256000">
  <log>

*****************************************
Building overlap and Hamiltonian matrices
*****************************************

Among totally 30 optimized parameters, largest LM parameter change : 1.3696e-01 at parameter 20

******************************************************************************
Init Cost =   1.0193e+00    New Cost =   1.0311e+00  Delta Cost =   1.1799e-02
******************************************************************************

The new set of parameters is valid. Updating the trial wave function!

*****************************************************************************
Applying the update for shift_i =   1.0000e-02     and shift_s =   3.9062e-03
*****************************************************************************
  Execution time = 6.6327e+00
  </log>
  <optVariables href="V.log.s004.opt.xml">
uu_0 2.4871e-01 1 1  ON 0
uu_1 5.5029e-02 1 1  ON 1
uu_2 -2.5831e-02 1 1  ON 2
uu_3 -6.9994e-02 1 1  ON 3
uu_4 -8.1190e-02 1 1  ON 4
uu_5 -8.3393e-02 1 1  ON 5
uu_6 -5.6419e-02 1 1  ON 6
uu_7 -1.8404e-02 1 1  ON 7
uu_8 1.5434e-02 1 1  ON 8
uu_9 2.5104e-02 1 1  ON 9
ud_0 3.7036e-01 1 1  ON 10
ud_1 1.2090e-01 1 1  ON 11
ud_2 3.6503e-02 1 1  ON 12
ud_3 -2.1161e-02 1 1  ON 13
ud_4 -5.0612e-02 1 1  ON 14
ud_5 -7.5176e-02 1 1  ON 15
ud_6 -7.6720e-02 1 1  ON 16
ud_7 -6.7497e-02 1 1  ON 17
ud_8 -5.2619e-02 1 1  ON 18
ud_9 -4.1550e-02 1 1  ON 19
eV_0 -1.7245e+00 1 1  ON 20
eV_1 -9.0057e-01 1 1  ON 21
eV_2 -1.2855e-01 1 1  ON 22
eV_3 3.3396e-01 1 1  ON 23
eV_4 6.3489e-01 1 1  ON 24
eV_5 7.3241e-01 1 1  ON 25
eV_6 6.2296e-01 1 1  ON 26
eV_7 3.3374e-01 1 1  ON 27
eV_8 9.2530e-02 1 1  ON 28
eV_9 1.2005e-02 1 1  ON 29
  </optVariables>
   Restore the number of walkers to 1, removing 0 walkers.
</opt>
</optimization-report>
  QMC Execution time = 6.6428e+00 secs 
  Reusing QMCFixedSampleLinearOptimize
 Using QMCCostFunction::QMCCostFunction

=========================================================
  Start QMCFixedSampleLinearOptimize
  File Root V.log.s005 append = no 
=========================================================
  Skip QMCDriver::putQMCInfo 
  Resetting Properties of the walkers 1 x 13

=========================================================
  Start VMC
  File Root V.log.s005 append = no 
=========================================================
Using existing walkers 
  Resetting Properties of the walkers 1 x 13

<vmc function="put">
  qmc_counter=4  my_counter=4
  time step      = 1.5000e-01
  blocks         = 400
  steps          = 1
  substeps       = 5
  current        = 0
  target samples = 2.5600e+05
  walkers/mpi    = 1

  stepsbetweensamples = 1
<parameter name="blocks" condition="int">400</parameter>
<parameter name="blocks_between_recompute" condition="int">0</parameter>
<parameter name="check_properties" condition="int">100</parameter>
<parameter name="checkproperties" condition="int">100</parameter>
<parameter name="current" condition="int">0</parameter>
<parameter name="dmcwalkersperthread" condition="real">2.5000e+02</parameter>
<parameter name="maxcpusecs" condition="real">3.6000e+05</parameter>
<parameter name="record_configs" condition="int">0</parameter>
<parameter name="record_walkers" condition="int">1</parameter>
<parameter name="recordconfigs" condition="int">0</parameter>
<parameter name="recordwalkers" condition="int">1</parameter>
<parameter name="rewind" condition="int">0</parameter>
<parameter name="samples" condition="real">2.5600e+05</parameter>
<parameter name="samplesperthread" condition="real">2.5000e+02</parameter>
<parameter name="steps" condition="int">1</parameter>
<parameter name="stepsbetweensamples" condition="int">1</parameter>
<parameter name="store_configs" condition="int">0</parameter>
<parameter name="storeconfigs" condition="int">0</parameter>
<parameter name="sub_steps" condition="int">5</parameter>
<parameter name="substeps" condition="int">5</parameter>
<parameter name="tau" condition="au">1.5000e-01</parameter>
<parameter name="time_step" condition="au">1.5000e-01</parameter>
<parameter name="timestep" condition="au">1.5000e-01</parameter>
<parameter name="use_drift" condition="string">no</parameter>
<parameter name="usedrift" condition="string">no</parameter>
<parameter name="walkers" condition="int">1</parameter>
<parameter name="warmup_steps" condition="int">0</parameter>
<parameter name="warmupsteps" condition="int">0</parameter>
  DumpConfig==false Nothing (configurations, state) will be saved.
  Walker Samples are dumped every 1 steps.
</vmc>
  EstimatorManagerBase::add replace LocalEnergy estimator.
  EstimatorManagerBase::add replace LocalEnergy estimator.
<optimization-report>
<vmc stage="main" blocks="400">
  Cannot make clones again. Use existing 1 clones
  Initial partition of walkers 0 1 
  Using Particle by Particle moves
  Walker moves without drift
  Total Sample Size   =256000
  Walker distribution on root = 0 1 
  Using Locality Approximation
===== Memory Usage after the buffer registration =====
Available memory on node 0, free + buffers : 83570 MB
Memory footprint by rank 0 on node 0       : 87 MB
==================================================
====================================================
  SimpleFixedNodeBranch::finalize after a VMC block
    QMC counter        = 5
    time step          = 0.15
    reference energy   = -71.3687
    reference variance = 0.837122
====================================================
  Execution time = 4.4811e+00
</vmc>
<opt stage="setup">
  <log>
   Reading configurations from h5FileRoot V.log.s005
  QMCCostFunction is created with 1 threads.
  Using Nonlocal PP in Opt: NonLocalECP
   Number of samples loaded to each thread : 250 
  VMC Eavg = -7.1309e+01
  VMC Evar = 1.1582e+00
  Total weights = 2.5600e+05
  Execution time = 7.7419e-01
  </log>
</opt>
<opt stage="main" walkers="256000">
  <log>

*****************************************
Building overlap and Hamiltonian matrices
*****************************************

Among totally 30 optimized parameters, largest LM parameter change : 1.1124e-01 at parameter 26

******************************************************************************
Init Cost =   1.1582e+00    New Cost =   1.1619e+00  Delta Cost =   3.7007e-03
******************************************************************************

The new set of parameters is valid. Updating the trial wave function!

*****************************************************************************
Applying the update for shift_i =   1.0000e-02     and shift_s =   3.9062e-03
*****************************************************************************
  Execution time = 5.8837e+00
  </log>
  <optVariables href="V.log.s005.opt.xml">
uu_0 2.5217e-01 1 1  ON 0
uu_1 5.7463e-02 1 1  ON 1
uu_2 -2.5212e-02 1 1  ON 2
uu_3 -7.1697e-02 1 1  ON 3
uu_4 -8.7991e-02 1 1  ON 4
uu_5 -9.3072e-02 1 1  ON 5
uu_6 -6.7270e-02 1 1  ON 6
uu_7 -2.8601e-02 1 1  ON 7
uu_8 1.9327e-02 1 1  ON 8
uu_9 4.4305e-02 1 1  ON 9
ud_0 3.8141e-01 1 1  ON 10
ud_1 1.3284e-01 1 1  ON 11
ud_2 4.6778e-02 1 1  ON 12
ud_3 -1.2199e-02 1 1  ON 13
ud_4 -4.4368e-02 1 1  ON 14
ud_5 -7.4543e-02 1 1  ON 15
ud_6 -7.9715e-02 1 1  ON 16
ud_7 -6.6371e-02 1 1  ON 17
ud_8 -4.9265e-02 1 1  ON 18
ud_9 -4.6917e-02 1 1  ON 19
eV_0 -1.8212e+00 1 1  ON 20
eV_1 -9.9120e-01 1 1  ON 21
eV_2 -2.0401e-01 1 1  ON 22
eV_3 2.8417e-01 1 1  ON 23
eV_4 6.3603e-01 1 1  ON 24
eV_5 7.9007e-01 1 1  ON 25
eV_6 7.3419e-01 1 1  ON 26
eV_7 4.3462e-01 1 1  ON 27
eV_8 1.3429e-01 1 1  ON 28
eV_9 1.6554e-02 1 1  ON 29
  </optVariables>
   Restore the number of walkers to 1, removing 0 walkers.
</opt>
</optimization-report>
  QMC Execution time = 5.8928e+00 secs 
Loop execution max-interations = 5
  Reusing QMCFixedSampleLinearOptimize
 Using QMCCostFunction::QMCCostFunction

=========================================================
  Start QMCFixedSampleLinearOptimize
  File Root V.log.s006 append = no 
=========================================================
  Skip QMCDriver::putQMCInfo 
  Resetting Properties of the walkers 1 x 13

=========================================================
  Start VMC
  File Root V.log.s006 append = no 
=========================================================
  Using the current 1 walkers.
  Total number of walkers: 1.0240e+03
  Total weight: 1.0240e+03
  Resetting Properties of the walkers 1 x 13

<vmc function="put">
  qmc_counter=0  my_counter=5
  time step      = 1.5000e-01
  blocks         = 400
  steps          = 1
  substeps       = 5
  current        = 0
  target samples = 2.5600e+05
  walkers/mpi    = 1

  stepsbetweensamples = 1
<parameter name="blocks" condition="int">400</parameter>
<parameter name="blocks_between_recompute" condition="int">0</parameter>
<parameter name="check_properties" condition="int">100</parameter>
<parameter name="checkproperties" condition="int">100</parameter>
<parameter name="current" condition="int">0</parameter>
<parameter name="dmcwalkersperthread" condition="real">2.5000e+02</parameter>
<parameter name="maxcpusecs" condition="real">3.6000e+05</parameter>
<parameter name="record_configs" condition="int">0</parameter>
<parameter name="record_walkers" condition="int">1</parameter>
<parameter name="recordconfigs" condition="int">0</parameter>
<parameter name="recordwalkers" condition="int">1</parameter>
<parameter name="rewind" condition="int">0</parameter>
<parameter name="samples" condition="real">2.5600e+05</parameter>
<parameter name="samplesperthread" condition="real">2.5000e+02</parameter>
<parameter name="steps" condition="int">1</parameter>
<parameter name="stepsbetweensamples" condition="int">1</parameter>
<parameter name="store_configs" condition="int">0</parameter>
<parameter name="storeconfigs" condition="int">0</parameter>
<parameter name="sub_steps" condition="int">5</parameter>
<parameter name="substeps" condition="int">5</parameter>
<parameter name="tau" condition="au">1.5000e-01</parameter>
<parameter name="time_step" condition="au">1.5000e-01</parameter>
<parameter name="timestep" condition="au">1.5000e-01</parameter>
<parameter name="use_drift" condition="string">no</parameter>
<parameter name="usedrift" condition="string">no</parameter>
<parameter name="walkers" condition="int">1</parameter>
<parameter name="warmup_steps" condition="int">0</parameter>
<parameter name="warmupsteps" condition="int">0</parameter>
  DumpConfig==false Nothing (configurations, state) will be saved.
  Walker Samples are dumped every 1 steps.
</vmc>
  EstimatorManagerBase::add replace LocalEnergy estimator.
  EstimatorManagerBase::add replace LocalEnergy estimator.
<optimization-report>
<vmc stage="main" blocks="400">
  Cannot make clones again. Use existing 1 clones
  Initial partition of walkers 0 1 
  Using Particle by Particle moves
  Walker moves without drift
  Total Sample Size   =256000
  Walker distribution on root = 0 1 
  Using Locality Approximation
===== Memory Usage after the buffer registration =====
Available memory on node 0, free + buffers : 83566 MB
Memory footprint by rank 0 on node 0       : 89 MB
==================================================
====================================================
  SimpleFixedNodeBranch::finalize after a VMC block
    QMC counter        = 6
    time step          = 0.15
    reference energy   = -71.2782
    reference variance = 0.950262
====================================================
  Execution time = 4.0820e+00
</vmc>
<opt stage="setup">
  <log>
   Reading configurations from h5FileRoot V.log.s006
  QMCCostFunction is created with 1 threads.
  Using Nonlocal PP in Opt: NonLocalECP
   Number of samples loaded to each thread : 250 
  VMC Eavg = -7.1316e+01
  VMC Evar = 1.0385e+00
  Total weights = 2.5600e+05
  Execution time = 6.5299e-01
  </log>
</opt>
<opt stage="main" walkers="256000">
  <log>

*****************************************
Building overlap and Hamiltonian matrices
*****************************************

Among totally 30 optimized parameters, largest LM parameter change : 8.9010e-02 at parameter 27

******************************************************************************
Init Cost =   1.0385e+00    New Cost =   1.0418e+00  Delta Cost =   3.2434e-03
******************************************************************************

The new set of parameters is valid. Updating the trial wave function!

*****************************************************************************
Applying the update for shift_i =   1.0000e-02     and shift_s =   3.9062e-03
*****************************************************************************
  Execution time = 5.3126e+00
  </log>
  <optVariables href="V.log.s006.opt.xml">
uu_0 2.6274e-01 1 1  ON 0
uu_1 6.8284e-02 1 1  ON 1
uu_2 -1.5224e-02 1 1  ON 2
uu_3 -6.4209e-02 1 1  ON 3
uu_4 -8.3346e-02 1 1  ON 4
uu_5 -9.1566e-02 1 1  ON 5
uu_6 -7.4354e-02 1 1  ON 6
uu_7 -3.2035e-02 1 1  ON 7
uu_8 4.6055e-03 1 1  ON 8
uu_9 1.0982e-02 1 1  ON 9
ud_0 3.9675e-01 1 1  ON 10
ud_1 1.4756e-01 1 1  ON 11
ud_2 6.1432e-02 1 1  ON 12
ud_3 1.1538e-03 1 1  ON 13
ud_4 -3.3473e-02 1 1  ON 14
ud_5 -6.8034e-02 1 1  ON 15
ud_6 -8.2151e-02 1 1  ON 16
ud_7 -7.4616e-02 1 1  ON 17
ud_8 -4.3327e-02 1 1  ON 18
ud_9 -3.8210e-02 1 1  ON 19
eV_0 -1.8977e+00 1 1  ON 20
eV_1 -1.0645e+00 1 1  ON 21
eV_2 -2.6659e-01 1 1  ON 22
eV_3 2.4779e-01 1 1  ON 23
eV_4 6.3183e-01 1 1  ON 24
eV_5 8.3699e-01 1 1  ON 25
eV_6 8.1919e-01 1 1  ON 26
eV_7 5.2363e-01 1 1  ON 27
eV_8 1.7325e-01 1 1  ON 28
eV_9 1.3099e-02 1 1  ON 29
  </optVariables>
   Restore the number of walkers to 1, removing 0 walkers.
</opt>
</optimization-report>
  QMC Execution time = 5.3223e+00 secs 
  Reusing QMCFixedSampleLinearOptimize
 Using QMCCostFunction::QMCCostFunction

=========================================================
  Start QMCFixedSampleLinearOptimize
  File Root V.log.s007 append = no 
=========================================================
  Skip QMCDriver::putQMCInfo 
  Resetting Properties of the walkers 1 x 13

=========================================================
  Start VMC
  File Root V.log.s007 append = no 
=========================================================
Using existing walkers 
  Resetting Properties of the walkers 1 x 13

<vmc function="put">
  qmc_counter=1  my_counter=6
  time step      = 1.5000e-01
  blocks         = 400
  steps          = 1
  substeps       = 5
  current        = 0
  target samples = 2.5600e+05
  walkers/mpi    = 1

  stepsbetweensamples = 1
<parameter name="blocks" condition="int">400</parameter>
<parameter name="blocks_between_recompute" condition="int">0</parameter>
<parameter name="check_properties" condition="int">100</parameter>
<parameter name="checkproperties" condition="int">100</parameter>
<parameter name="current" condition="int">0</parameter>
<parameter name="dmcwalkersperthread" condition="real">2.5000e+02</parameter>
<parameter name="maxcpusecs" condition="real">3.6000e+05</parameter>
<parameter name="record_configs" condition="int">0</parameter>
<parameter name="record_walkers" condition="int">1</parameter>
<parameter name="recordconfigs" condition="int">0</parameter>
<parameter name="recordwalkers" condition="int">1</parameter>
<parameter name="rewind" condition="int">0</parameter>
<parameter name="samples" condition="real">2.5600e+05</parameter>
<parameter name="samplesperthread" condition="real">2.5000e+02</parameter>
<parameter name="steps" condition="int">1</parameter>
<parameter name="stepsbetweensamples" condition="int">1</parameter>
<parameter name="store_configs" condition="int">0</parameter>
<parameter name="storeconfigs" condition="int">0</parameter>
<parameter name="sub_steps" condition="int">5</parameter>
<parameter name="substeps" condition="int">5</parameter>
<parameter name="tau" condition="au">1.5000e-01</parameter>
<parameter name="time_step" condition="au">1.5000e-01</parameter>
<parameter name="timestep" condition="au">1.5000e-01</parameter>
<parameter name="use_drift" condition="string">no</parameter>
<parameter name="usedrift" condition="string">no</parameter>
<parameter name="walkers" condition="int">1</parameter>
<parameter name="warmup_steps" condition="int">0</parameter>
<parameter name="warmupsteps" condition="int">0</parameter>
  DumpConfig==false Nothing (configurations, state) will be saved.
  Walker Samples are dumped every 1 steps.
</vmc>
  EstimatorManagerBase::add replace LocalEnergy estimator.
  EstimatorManagerBase::add replace LocalEnergy estimator.
<optimization-report>
<vmc stage="main" blocks="400">
  Cannot make clones again. Use existing 1 clones
  Initial partition of walkers 0 1 
  Using Particle by Particle moves
  Walker moves without drift
  Total Sample Size   =256000
  Walker distribution on root = 0 1 
  Using Locality Approximation
===== Memory Usage after the buffer registration =====
Available memory on node 0, free + buffers : 83563 MB
Memory footprint by rank 0 on node 0       : 92 MB
==================================================
====================================================
  SimpleFixedNodeBranch::finalize after a VMC block
    QMC counter        = 7
    time step          = 0.15
    reference energy   = -71.3239
    reference variance = 0.863508
====================================================
  Execution time = 4.6086e+00
</vmc>
<opt stage="setup">
  <log>
   Reading configurations from h5FileRoot V.log.s007
  QMCCostFunction is created with 1 threads.
  Using Nonlocal PP in Opt: NonLocalECP
   Number of samples loaded to each thread : 250 
  VMC Eavg = -7.1317e+01
  VMC Evar = 1.0420e+00
  Total weights = 2.5600e+05
  Execution time = 5.9085e-01
  </log>
</opt>
<opt stage="main" walkers="256000">
  <log>

*****************************************
Building overlap and Hamiltonian matrices
*****************************************

Among totally 30 optimized parameters, largest LM parameter change : 7.4310e-02 at parameter 27

******************************************************************************
Init Cost =   1.0420e+00    New Cost =   1.0487e+00  Delta Cost =   6.7094e-03
******************************************************************************

The new set of parameters is valid. Updating the trial wave function!

*****************************************************************************
Applying the update for shift_i =   1.0000e-02     and shift_s =   3.9062e-03
*****************************************************************************
  Execution time = 5.7427e+00
  </log>
  <optVariables href="V.log.s007.opt.xml">
uu_0 2.6493e-01 1 1  ON 0
uu_1 6.8836e-02 1 1  ON 1
uu_2 -1.4156e-02 1 1  ON 2
uu_3 -6.4864e-02 1 1  ON 3
uu_4 -8.4647e-02 1 1  ON 4
uu_5 -9.7253e-02 1 1  ON 5
uu_6 -8.1544e-02 1 1  ON 6
uu_7 -3.3866e-02 1 1  ON 7
uu_8 2.4538e-02 1 1  ON 8
uu_9 2.7954e-02 1 1  ON 9
ud_0 4.0334e-01 1 1  ON 10
ud_1 1.5318e-01 1 1  ON 11
ud_2 6.7010e-02 1 1  ON 12
ud_3 6.0372e-03 1 1  ON 13
ud_4 -3.0627e-02 1 1  ON 14
ud_5 -6.6903e-02 1 1  ON 15
ud_6 -7.9591e-02 1 1  ON 16
ud_7 -7.7861e-02 1 1  ON 17
ud_8 -5.3560e-02 1 1  ON 18
ud_9 -3.9207e-02 1 1  ON 19
eV_0 -1.9534e+00 1 1  ON 20
eV_1 -1.1157e+00 1 1  ON 21
eV_2 -3.1548e-01 1 1  ON 22
eV_3 2.0849e-01 1 1  ON 23
eV_4 6.1686e-01 1 1  ON 24
eV_5 8.6326e-01 1 1  ON 25
eV_6 8.7449e-01 1 1  ON 26
eV_7 5.9794e-01 1 1  ON 27
eV_8 2.2472e-01 1 1  ON 28
eV_9 2.1871e-02 1 1  ON 29
  </optVariables>
   Restore the number of walkers to 1, removing 0 walkers.
</opt>
</optimization-report>
  QMC Execution time = 5.7528e+00 secs 
  Reusing QMCFixedSampleLinearOptimize
 Using QMCCostFunction::QMCCostFunction

=========================================================
  Start QMCFixedSampleLinearOptimize
  File Root V.log.s008 append = no 
=========================================================
  Skip QMCDriver::putQMCInfo 
  Resetting Properties of the walkers 1 x 13

=========================================================
  Start VMC
  File Root V.log.s008 append = no 
=========================================================
Using existing walkers 
  Resetting Properties of the walkers 1 x 13

<vmc function="put">
  qmc_counter=2  my_counter=7
  time step      = 1.5000e-01
  blocks         = 400
  steps          = 1
  substeps       = 5
  current        = 0
  target samples = 2.5600e+05
  walkers/mpi    = 1

  stepsbetweensamples = 1
<parameter name="blocks" condition="int">400</parameter>
<parameter name="blocks_between_recompute" condition="int">0</parameter>
<parameter name="check_properties" condition="int">100</parameter>
<parameter name="checkproperties" condition="int">100</parameter>
<parameter name="current" condition="int">0</parameter>
<parameter name="dmcwalkersperthread" condition="real">2.5000e+02</parameter>
<parameter name="maxcpusecs" condition="real">3.6000e+05</parameter>
<parameter name="record_configs" condition="int">0</parameter>
<parameter name="record_walkers" condition="int">1</parameter>
<parameter name="recordconfigs" condition="int">0</parameter>
<parameter name="recordwalkers" condition="int">1</parameter>
<parameter name="rewind" condition="int">0</parameter>
<parameter name="samples" condition="real">2.5600e+05</parameter>
<parameter name="samplesperthread" condition="real">2.5000e+02</parameter>
<parameter name="steps" condition="int">1</parameter>
<parameter name="stepsbetweensamples" condition="int">1</parameter>
<parameter name="store_configs" condition="int">0</parameter>
<parameter name="storeconfigs" condition="int">0</parameter>
<parameter name="sub_steps" condition="int">5</parameter>
<parameter name="substeps" condition="int">5</parameter>
<parameter name="tau" condition="au">1.5000e-01</parameter>
<parameter name="time_step" condition="au">1.5000e-01</parameter>
<parameter name="timestep" condition="au">1.5000e-01</parameter>
<parameter name="use_drift" condition="string">no</parameter>
<parameter name="usedrift" condition="string">no</parameter>
<parameter name="walkers" condition="int">1</parameter>
<parameter name="warmup_steps" condition="int">0</parameter>
<parameter name="warmupsteps" condition="int">0</parameter>
  DumpConfig==false Nothing (configurations, state) will be saved.
  Walker Samples are dumped every 1 steps.
</vmc>
  EstimatorManagerBase::add replace LocalEnergy estimator.
  EstimatorManagerBase::add replace LocalEnergy estimator.
<optimization-report>
<vmc stage="main" blocks="400">
  Cannot make clones again. Use existing 1 clones
  Initial partition of walkers 0 1 
  Using Particle by Particle moves
  Walker moves without drift
  Total Sample Size   =256000
  Walker distribution on root = 0 1 
  Using Locality Approximation
===== Memory Usage after the buffer registration =====
Available memory on node 0, free + buffers : 83560 MB
Memory footprint by rank 0 on node 0       : 95 MB
==================================================
====================================================
  SimpleFixedNodeBranch::finalize after a VMC block
    QMC counter        = 8
    time step          = 0.15
    reference energy   = -71.3227
    reference variance = 2.0452
====================================================
  Execution time = 3.7827e+00
</vmc>
<opt stage="setup">
  <log>
   Reading configurations from h5FileRoot V.log.s008
  QMCCostFunction is created with 1 threads.
  Using Nonlocal PP in Opt: NonLocalECP
   Number of samples loaded to each thread : 250 
  VMC Eavg = -7.1317e+01
  VMC Evar = 1.0288e+00
  Total weights = 2.5600e+05
  Execution time = 5.5047e-01
  </log>
</opt>
<opt stage="main" walkers="256000">
  <log>

*****************************************
Building overlap and Hamiltonian matrices
*****************************************

Among totally 30 optimized parameters, largest LM parameter change : 7.2931e-02 at parameter 27

******************************************************************************
Init Cost =   1.0288e+00    New Cost =   1.0330e+00  Delta Cost =   4.1647e-03
******************************************************************************

The new set of parameters is valid. Updating the trial wave function!

*****************************************************************************
Applying the update for shift_i =   1.0000e-02     and shift_s =   3.9062e-03
*****************************************************************************
  Execution time = 4.8354e+00
  </log>
  <optVariables href="V.log.s008.opt.xml">
uu_0 2.6689e-01 1 1  ON 0
uu_1 7.1395e-02 1 1  ON 1
uu_2 -1.3258e-02 1 1  ON 2
uu_3 -6.3624e-02 1 1  ON 3
uu_4 -8.6178e-02 1 1  ON 4
uu_5 -1.0051e-01 1 1  ON 5
uu_6 -9.1083e-02 1 1  ON 6
uu_7 -5.6137e-02 1 1  ON 7
uu_8 4.9368e-03 1 1  ON 8
uu_9 3.4131e-02 1 1  ON 9
ud_0 4.0691e-01 1 1  ON 10
ud_1 1.5588e-01 1 1  ON 11
ud_2 6.8706e-02 1 1  ON 12
ud_3 7.1785e-03 1 1  ON 13
ud_4 -3.1166e-02 1 1  ON 14
ud_5 -6.8474e-02 1 1  ON 15
ud_6 -8.3998e-02 1 1  ON 16
ud_7 -8.1799e-02 1 1  ON 17
ud_8 -5.3122e-02 1 1  ON 18
ud_9 -3.3136e-02 1 1  ON 19
eV_0 -2.0035e+00 1 1  ON 20
eV_1 -1.1617e+00 1 1  ON 21
eV_2 -3.5191e-01 1 1  ON 22
eV_3 1.8528e-01 1 1  ON 23
eV_4 6.0453e-01 1 1  ON 24
eV_5 8.5171e-01 1 1  ON 25
eV_6 9.1865e-01 1 1  ON 26
eV_7 6.7088e-01 1 1  ON 27
eV_8 2.7126e-01 1 1  ON 28
eV_9 3.6122e-02 1 1  ON 29
  </optVariables>
   Restore the number of walkers to 1, removing 0 walkers.
</opt>
</optimization-report>
  QMC Execution time = 4.8455e+00 secs 
  Reusing QMCFixedSampleLinearOptimize
 Using QMCCostFunction::QMCCostFunction

=========================================================
  Start QMCFixedSampleLinearOptimize
  File Root V.log.s009 append = no 
=========================================================
  Skip QMCDriver::putQMCInfo 
  Resetting Properties of the walkers 1 x 13

=========================================================
  Start VMC
  File Root V.log.s009 append = no 
=========================================================
Using existing walkers 
  Resetting Properties of the walkers 1 x 13

<vmc function="put">
  qmc_counter=3  my_counter=8
  time step      = 1.5000e-01
  blocks         = 400
  steps          = 1
  substeps       = 5
  current        = 0
  target samples = 2.5600e+05
  walkers/mpi    = 1

  stepsbetweensamples = 1
<parameter name="blocks" condition="int">400</parameter>
<parameter name="blocks_between_recompute" condition="int">0</parameter>
<parameter name="check_properties" condition="int">100</parameter>
<parameter name="checkproperties" condition="int">100</parameter>
<parameter name="current" condition="int">0</parameter>
<parameter name="dmcwalkersperthread" condition="real">2.5000e+02</parameter>
<parameter name="maxcpusecs" condition="real">3.6000e+05</parameter>
<parameter name="record_configs" condition="int">0</parameter>
<parameter name="record_walkers" condition="int">1</parameter>
<parameter name="recordconfigs" condition="int">0</parameter>
<parameter name="recordwalkers" condition="int">1</parameter>
<parameter name="rewind" condition="int">0</parameter>
<parameter name="samples" condition="real">2.5600e+05</parameter>
<parameter name="samplesperthread" condition="real">2.5000e+02</parameter>
<parameter name="steps" condition="int">1</parameter>
<parameter name="stepsbetweensamples" condition="int">1</parameter>
<parameter name="store_configs" condition="int">0</parameter>
<parameter name="storeconfigs" condition="int">0</parameter>
<parameter name="sub_steps" condition="int">5</parameter>
<parameter name="substeps" condition="int">5</parameter>
<parameter name="tau" condition="au">1.5000e-01</parameter>
<parameter name="time_step" condition="au">1.5000e-01</parameter>
<parameter name="timestep" condition="au">1.5000e-01</parameter>
<parameter name="use_drift" condition="string">no</parameter>
<parameter name="usedrift" condition="string">no</parameter>
<parameter name="walkers" condition="int">1</parameter>
<parameter name="warmup_steps" condition="int">0</parameter>
<parameter name="warmupsteps" condition="int">0</parameter>
  DumpConfig==false Nothing (configurations, state) will be saved.
  Walker Samples are dumped every 1 steps.
</vmc>
  EstimatorManagerBase::add replace LocalEnergy estimator.
  EstimatorManagerBase::add replace LocalEnergy estimator.
<optimization-report>
<vmc stage="main" blocks="400">
  Cannot make clones again. Use existing 1 clones
  Initial partition of walkers 0 1 
  Using Particle by Particle moves
  Walker moves without drift
  Total Sample Size   =256000
  Walker distribution on root = 0 1 
  Using Locality Approximation
===== Memory Usage after the buffer registration =====
Available memory on node 0, free + buffers : 83555 MB
Memory footprint by rank 0 on node 0       : 97 MB
==================================================
====================================================
  SimpleFixedNodeBranch::finalize after a VMC block
    QMC counter        = 9
    time step          = 0.15
    reference energy   = -71.2713
    reference variance = 1.1241
====================================================
  Execution time = 3.6798e+00
</vmc>
<opt stage="setup">
  <log>
   Reading configurations from h5FileRoot V.log.s009
  QMCCostFunction is created with 1 threads.
  Using Nonlocal PP in Opt: NonLocalECP
   Number of samples loaded to each thread : 250 
  VMC Eavg = -7.1316e+01
  VMC Evar = 1.0495e+00
  Total weights = 2.5600e+05
  Execution time = 5.2413e-01
  </log>
</opt>
<opt stage="main" walkers="256000">
  <log>

*****************************************
Building overlap and Hamiltonian matrices
*****************************************

Among totally 30 optimized parameters, largest LM parameter change : 6.8572e-02 at parameter 27

******************************************************************************
Init Cost =   1.0495e+00    New Cost =   1.0499e+00  Delta Cost =   3.3100e-04
******************************************************************************

The new set of parameters is valid. Updating the trial wave function!

*****************************************************************************
Applying the update for shift_i =   1.0000e-02     and shift_s =   3.9062e-03
*****************************************************************************
  Execution time = 4.6841e+00
  </log>
  <optVariables href="V.log.s009.opt.xml">
uu_0 2.6293e-01 1 1  ON 0
uu_1 6.7103e-02 1 1  ON 1
uu_2 -1.7610e-02 1 1  ON 2
uu_3 -6.8799e-02 1 1  ON 3
uu_4 -9.2697e-02 1 1  ON 4
uu_5 -1.0595e-01 1 1  ON 5
uu_6 -9.5645e-02 1 1  ON 6
uu_7 -5.6131e-02 1 1  ON 7
uu_8 7.8426e-03 1 1  ON 8
uu_9 4.0875e-02 1 1  ON 9
ud_0 4.1589e-01 1 1  ON 10
ud_1 1.6537e-01 1 1  ON 11
ud_2 7.7841e-02 1 1  ON 12
ud_3 1.5891e-02 1 1  ON 13
ud_4 -2.1273e-02 1 1  ON 14
ud_5 -6.0252e-02 1 1  ON 15
ud_6 -8.4984e-02 1 1  ON 16
ud_7 -8.8706e-02 1 1  ON 17
ud_8 -6.2808e-02 1 1  ON 18
ud_9 -4.1858e-02 1 1  ON 19
eV_0 -2.0485e+00 1 1  ON 20
eV_1 -1.2058e+00 1 1  ON 21
eV_2 -3.9349e-01 1 1  ON 22
eV_3 1.5209e-01 1 1  ON 23
eV_4 5.8256e-01 1 1  ON 24
eV_5 8.7109e-01 1 1  ON 25
eV_6 9.5825e-01 1 1  ON 26
eV_7 7.3945e-01 1 1  ON 27
eV_8 3.2181e-01 1 1  ON 28
eV_9 4.6830e-02 1 1  ON 29
  </optVariables>
   Restore the number of walkers to 1, removing 0 walkers.
</opt>
</optimization-report>
  QMC Execution time = 4.6941e+00 secs 
  Reusing QMCFixedSampleLinearOptimize
 Using QMCCostFunction::QMCCostFunction

=========================================================
  Start QMCFixedSampleLinearOptimize
  File Root V.log.s010 append = no 
=========================================================
  Skip QMCDriver::putQMCInfo 
  Resetting Properties of the walkers 1 x 13

=========================================================
  Start VMC
  File Root V.log.s010 append = no 
=========================================================
Using existing walkers 
  Resetting Properties of the walkers 1 x 13

<vmc function="put">
  qmc_counter=4  my_counter=9
  time step      = 1.5000e-01
  blocks         = 400
  steps          = 1
  substeps       = 5
  current        = 0
  target samples = 2.5600e+05
  walkers/mpi    = 1

  stepsbetweensamples = 1
<parameter name="blocks" condition="int">400</parameter>
<parameter name="blocks_between_recompute" condition="int">0</parameter>
<parameter name="check_properties" condition="int">100</parameter>
<parameter name="checkproperties" condition="int">100</parameter>
<parameter name="current" condition="int">0</parameter>
<parameter name="dmcwalkersperthread" condition="real">2.5000e+02</parameter>
<parameter name="maxcpusecs" condition="real">3.6000e+05</parameter>
<parameter name="record_configs" condition="int">0</parameter>
<parameter name="record_walkers" condition="int">1</parameter>
<parameter name="recordconfigs" condition="int">0</parameter>
<parameter name="recordwalkers" condition="int">1</parameter>
<parameter name="rewind" condition="int">0</parameter>
<parameter name="samples" condition="real">2.5600e+05</parameter>
<parameter name="samplesperthread" condition="real">2.5000e+02</parameter>
<parameter name="steps" condition="int">1</parameter>
<parameter name="stepsbetweensamples" condition="int">1</parameter>
<parameter name="store_configs" condition="int">0</parameter>
<parameter name="storeconfigs" condition="int">0</parameter>
<parameter name="sub_steps" condition="int">5</parameter>
<parameter name="substeps" condition="int">5</parameter>
<parameter name="tau" condition="au">1.5000e-01</parameter>
<parameter name="time_step" condition="au">1.5000e-01</parameter>
<parameter name="timestep" condition="au">1.5000e-01</parameter>
<parameter name="use_drift" condition="string">no</parameter>
<parameter name="usedrift" condition="string">no</parameter>
<parameter name="walkers" condition="int">1</parameter>
<parameter name="warmup_steps" condition="int">0</parameter>
<parameter name="warmupsteps" condition="int">0</parameter>
  DumpConfig==false Nothing (configurations, state) will be saved.
  Walker Samples are dumped every 1 steps.
</vmc>
  EstimatorManagerBase::add replace LocalEnergy estimator.
  EstimatorManagerBase::add replace LocalEnergy estimator.
<optimization-report>
<vmc stage="main" blocks="400">
  Cannot make clones again. Use existing 1 clones
  Initial partition of walkers 0 1 
  Using Particle by Particle moves
  Walker moves without drift
  Total Sample Size   =256000
  Walker distribution on root = 0 1 
  Using Locality Approximation
===== Memory Usage after the buffer registration =====
Available memory on node 0, free + buffers : 83552 MB
Memory footprint by rank 0 on node 0       : 100 MB
==================================================
====================================================
  SimpleFixedNodeBranch::finalize after a VMC block
    QMC counter        = 10
    time step          = 0.15
    reference energy   = -71.2949
    reference variance = 1.04895
====================================================
  Execution time = 3.8128e+00
</vmc>
<opt stage="setup">
  <log>
   Reading configurations from h5FileRoot V.log.s010
  QMCCostFunction is created with 1 threads.
  Using Nonlocal PP in Opt: NonLocalECP
   Number of samples loaded to each thread : 250 
  VMC Eavg = -7.1316e+01
  VMC Evar = 1.0818e+00
  Total weights = 2.5600e+05
  Execution time = 5.1296e-01
  </log>
</opt>
<opt stage="main" walkers="256000">
  <log>

*****************************************
Building overlap and Hamiltonian matrices
*****************************************

Among totally 30 optimized parameters, largest LM parameter change : 6.1680e-02 at parameter 27

******************************************************************************
Init Cost =   1.0818e+00    New Cost =   1.0821e+00  Delta Cost =   3.5090e-04
******************************************************************************

The new set of parameters is valid. Updating the trial wave function!

*****************************************************************************
Applying the update for shift_i =   1.0000e-02     and shift_s =   3.9062e-03
*****************************************************************************
  Execution time = 4.7872e+00
  </log>
  <optVariables href="V.log.s010.opt.xml">
uu_0 2.6862e-01 1 1  ON 0
uu_1 7.2760e-02 1 1  ON 1
uu_2 -1.2978e-02 1 1  ON 2
uu_3 -6.4716e-02 1 1  ON 3
uu_4 -8.7714e-02 1 1  ON 4
uu_5 -1.0705e-01 1 1  ON 5
uu_6 -9.9565e-02 1 1  ON 6
uu_7 -7.6709e-02 1 1  ON 7
uu_8 -1.4238e-02 1 1  ON 8
uu_9 1.7936e-02 1 1  ON 9
ud_0 4.1378e-01 1 1  ON 10
ud_1 1.6390e-01 1 1  ON 11
ud_2 7.5430e-02 1 1  ON 12
ud_3 1.3379e-02 1 1  ON 13
ud_4 -2.6675e-02 1 1  ON 14
ud_5 -6.7358e-02 1 1  ON 15
ud_6 -8.5574e-02 1 1  ON 16
ud_7 -8.9781e-02 1 1  ON 17
ud_8 -6.6108e-02 1 1  ON 18
ud_9 -4.3425e-02 1 1  ON 19
eV_0 -2.0906e+00 1 1  ON 20
eV_1 -1.2453e+00 1 1  ON 21
eV_2 -4.2359e-01 1 1  ON 22
eV_3 1.2962e-01 1 1  ON 23
eV_4 5.6743e-01 1 1  ON 24
eV_5 8.6890e-01 1 1  ON 25
eV_6 9.8653e-01 1 1  ON 26
eV_7 8.0113e-01 1 1  ON 27
eV_8 3.6503e-01 1 1  ON 28
eV_9 5.7884e-02 1 1  ON 29
  </optVariables>
   Restore the number of walkers to 1, removing 0 walkers.
</opt>
</optimization-report>
  QMC Execution time = 4.7965e+00 secs 
Loop execution max-interations = 10
  Reusing QMCFixedSampleLinearOptimize
 Using QMCCostFunction::QMCCostFunction

=========================================================
  Start QMCFixedSampleLinearOptimize
  File Root V.log.s011 append = no 
=========================================================
  Skip QMCDriver::putQMCInfo 
  Resetting Properties of the walkers 1 x 13

=========================================================
  Start VMC
  File Root V.log.s011 append = no 
=========================================================
  Using the current 1 walkers.
  Total number of walkers: 1.0240e+03
  Total weight: 1.0240e+03
  Resetting Properties of the walkers 1 x 13

<vmc function="put">
  qmc_counter=0  my_counter=10
  time step      = 1.5000e-01
  blocks         = 400
  steps          = 2
  substeps       = 5
  current        = 0
  target samples = 5.1200e+05
  walkers/mpi    = 1

  stepsbetweensamples = 1
<parameter name="blocks" condition="int">400</parameter>
<parameter name="blocks_between_recompute" condition="int">0</parameter>
<parameter name="check_properties" condition="int">100</parameter>
<parameter name="checkproperties" condition="int">100</parameter>
<parameter name="current" condition="int">0</parameter>
<parameter name="dmcwalkersperthread" condition="real">5.0000e+02</parameter>
<parameter name="maxcpusecs" condition="real">3.6000e+05</parameter>
<parameter name="record_configs" condition="int">0</parameter>
<parameter name="record_walkers" condition="int">1</parameter>
<parameter name="recordconfigs" condition="int">0</parameter>
<parameter name="recordwalkers" condition="int">1</parameter>
<parameter name="rewind" condition="int">0</parameter>
<parameter name="samples" condition="real">5.1200e+05</parameter>
<parameter name="samplesperthread" condition="real">5.0000e+02</parameter>
<parameter name="steps" condition="int">2</parameter>
<parameter name="stepsbetweensamples" condition="int">1</parameter>
<parameter name="store_configs" condition="int">0</parameter>
<parameter name="storeconfigs" condition="int">0</parameter>
<parameter name="sub_steps" condition="int">5</parameter>
<parameter name="substeps" condition="int">5</parameter>
<parameter name="tau" condition="au">1.5000e-01</parameter>
<parameter name="time_step" condition="au">1.5000e-01</parameter>
<parameter name="timestep" condition="au">1.5000e-01</parameter>
<parameter name="use_drift" condition="string">no</parameter>
<parameter name="usedrift" condition="string">no</parameter>
<parameter name="walkers" condition="int">1</parameter>
<parameter name="warmup_steps" condition="int">0</parameter>
<parameter name="warmupsteps" condition="int">0</parameter>
  DumpConfig==false Nothing (configurations, state) will be saved.
  Walker Samples are dumped every 1 steps.
</vmc>
  EstimatorManagerBase::add replace LocalEnergy estimator.
  EstimatorManagerBase::add replace LocalEnergy estimator.
<optimization-report>
<vmc stage="main" blocks="400">
  Cannot make clones again. Use existing 1 clones
  Initial partition of walkers 0 1 
  Using Particle by Particle moves
  Walker moves without drift
  Total Sample Size   =512000
  Walker distribution on root = 0 1 
  Using Locality Approximation
===== Memory Usage after the buffer registration =====
Available memory on node 0, free + buffers : 83549 MB
Memory footprint by rank 0 on node 0       : 103 MB
==================================================
====================================================
  SimpleFixedNodeBranch::finalize after a VMC block
    QMC counter        = 11
    time step          = 0.15
    reference energy   = -71.3583
    reference variance = 1.4466
====================================================
  Execution time = 5.0972e+00
</vmc>
<opt stage="setup">
  <log>
   Reading configurations from h5FileRoot V.log.s011
  QMCCostFunction is created with 1 threads.
  Using Nonlocal PP in Opt: NonLocalECP
   Number of samples loaded to each thread : 500 
  VMC Eavg = -7.1317e+01
  VMC Evar = 1.0401e+00
  Total weights = 5.1200e+05
  Execution time = 9.2867e-01
  </log>
</opt>
<opt stage="main" walkers="512000">
  <log>

*****************************************
Building overlap and Hamiltonian matrices
*****************************************

Among totally 30 optimized parameters, largest LM parameter change : 4.7216e-02 at parameter 28

******************************************************************************
Init Cost =  -6.7699e+01    New Cost =  -6.7699e+01  Delta Cost =  -2.8390e-05
******************************************************************************

The new set of parameters is valid. Updating the trial wave function!

*****************************************************************************
Applying the update for shift_i =   1.0000e-02     and shift_s =   3.9062e-03
*****************************************************************************
  Execution time = 6.8831e+00
  </log>
  <optVariables href="V.log.s011.opt.xml">
uu_0 2.6310e-01 1 1  ON 0
uu_1 6.7011e-02 1 1  ON 1
uu_2 -1.8115e-02 1 1  ON 2
uu_3 -6.9397e-02 1 1  ON 3
uu_4 -9.2795e-02 1 1  ON 4
uu_5 -1.0949e-01 1 1  ON 5
uu_6 -1.0321e-01 1 1  ON 6
uu_7 -7.9914e-02 1 1  ON 7
uu_8 -1.8238e-02 1 1  ON 8
uu_9 2.5235e-02 1 1  ON 9
ud_0 4.2132e-01 1 1  ON 10
ud_1 1.6999e-01 1 1  ON 11
ud_2 8.2131e-02 1 1  ON 12
ud_3 1.8015e-02 1 1  ON 13
ud_4 -2.3331e-02 1 1  ON 14
ud_5 -6.5597e-02 1 1  ON 15
ud_6 -8.9657e-02 1 1  ON 16
ud_7 -9.5044e-02 1 1  ON 17
ud_8 -6.8984e-02 1 1  ON 18
ud_9 -4.2230e-02 1 1  ON 19
eV_0 -2.1220e+00 1 1  ON 20
eV_1 -1.2767e+00 1 1  ON 21
eV_2 -4.5516e-01 1 1  ON 22
eV_3 1.0700e-01 1 1  ON 23
eV_4 5.5836e-01 1 1  ON 24
eV_5 8.7258e-01 1 1  ON 25
eV_6 1.0020e+00 1 1  ON 26
eV_7 8.4482e-01 1 1  ON 27
eV_8 4.1225e-01 1 1  ON 28
eV_9 7.2051e-02 1 1  ON 29
  </optVariables>
   Restore the number of walkers to 1, removing 0 walkers.
</opt>
</optimization-report>
  QMC Execution time = 6.8936e+00 secs 
  Reusing QMCFixedSampleLinearOptimize
 Using QMCCostFunction::QMCCostFunction

=========================================================
  Start QMCFixedSampleLinearOptimize
  File Root V.log.s012 append = no 
=========================================================
  Skip QMCDriver::putQMCInfo 
  Resetting Properties of the walkers 1 x 13

=========================================================
  Start VMC
  File Root V.log.s012 append = no 
=========================================================
Using existing walkers 
  Resetting Properties of the walkers 1 x 13

<vmc function="put">
  qmc_counter=1  my_counter=11
  time step      = 1.5000e-01
  blocks         = 400
  steps          = 2
  substeps       = 5
  current        = 0
  target samples = 5.1200e+05
  walkers/mpi    = 1

  stepsbetweensamples = 1
<parameter name="blocks" condition="int">400</parameter>
<parameter name="blocks_between_recompute" condition="int">0</parameter>
<parameter name="check_properties" condition="int">100</parameter>
<parameter name="checkproperties" condition="int">100</parameter>
<parameter name="current" condition="int">0</parameter>
<parameter name="dmcwalkersperthread" condition="real">5.0000e+02</parameter>
<parameter name="maxcpusecs" condition="real">3.6000e+05</parameter>
<parameter name="record_configs" condition="int">0</parameter>
<parameter name="record_walkers" condition="int">1</parameter>
<parameter name="recordconfigs" condition="int">0</parameter>
<parameter name="recordwalkers" condition="int">1</parameter>
<parameter name="rewind" condition="int">0</parameter>
<parameter name="samples" condition="real">5.1200e+05</parameter>
<parameter name="samplesperthread" condition="real">5.0000e+02</parameter>
<parameter name="steps" condition="int">2</parameter>
<parameter name="stepsbetweensamples" condition="int">1</parameter>
<parameter name="store_configs" condition="int">0</parameter>
<parameter name="storeconfigs" condition="int">0</parameter>
<parameter name="sub_steps" condition="int">5</parameter>
<parameter name="substeps" condition="int">5</parameter>
<parameter name="tau" condition="au">1.5000e-01</parameter>
<parameter name="time_step" condition="au">1.5000e-01</parameter>
<parameter name="timestep" condition="au">1.5000e-01</parameter>
<parameter name="use_drift" condition="string">no</parameter>
[...]
  Execution time = 4.7490e+00
</vmc>
<opt stage="setup">
  <log>
   Reading configurations from h5FileRoot V.log.s017
  QMCCostFunction is created with 1 threads.
  Using Nonlocal PP in Opt: NonLocalECP
   Number of samples loaded to each thread : 500 
  VMC Eavg = -7.1315e+01
  VMC Evar = 1.0615e+00
  Total weights = 5.1200e+05
  Execution time = 8.5112e-01
  </log>
</opt>
<opt stage="main" walkers="512000">
  <log>

*****************************************
Building overlap and Hamiltonian matrices
*****************************************

Among totally 30 optimized parameters, largest LM parameter change : 4.3869e-02 at parameter 28

******************************************************************************
Init Cost =  -6.7696e+01    New Cost =  -6.7697e+01  Delta Cost =  -1.9353e-04
******************************************************************************

The new set of parameters is valid. Updating the trial wave function!

*****************************************************************************
Applying the update for shift_i =   1.0000e-02     and shift_s =   3.9062e-03
*****************************************************************************
  Execution time = 6.4130e+00
  </log>
  <optVariables href="V.log.s017.opt.xml">
uu_0 2.5927e-01 1 1  ON 0
uu_1 6.2432e-02 1 1  ON 1
uu_2 -2.3423e-02 1 1  ON 2
uu_3 -7.6731e-02 1 1  ON 3
uu_4 -1.0197e-01 1 1  ON 4
uu_5 -1.2397e-01 1 1  ON 5
uu_6 -1.2566e-01 1 1  ON 6
uu_7 -1.1060e-01 1 1  ON 7
uu_8 -5.5606e-02 1 1  ON 8
uu_9 1.1079e-02 1 1  ON 9
ud_0 4.4920e-01 1 1  ON 10
ud_1 1.9803e-01 1 1  ON 11
ud_2 1.0987e-01 1 1  ON 12
ud_3 4.5232e-02 1 1  ON 13
ud_4 4.2054e-03 1 1  ON 14
ud_5 -4.2258e-02 1 1  ON 15
ud_6 -7.3675e-02 1 1  ON 16
ud_7 -9.3069e-02 1 1  ON 17
ud_8 -7.6991e-02 1 1  ON 18
ud_9 -4.9838e-02 1 1  ON 19
eV_0 -2.2609e+00 1 1  ON 20
eV_1 -1.4134e+00 1 1  ON 21
eV_2 -5.8131e-01 1 1  ON 22
eV_3 -7.0339e-03 1 1  ON 23
eV_4 4.7371e-01 1 1  ON 24
eV_5 8.4668e-01 1 1  ON 25
eV_6 1.0781e+00 1 1  ON 26
eV_7 1.0463e+00 1 1  ON 27
eV_8 6.5703e-01 1 1  ON 28
eV_9 1.6910e-01 1 1  ON 29
  </optVariables>
   Restore the number of walkers to 1, removing 0 walkers.
</opt>
</optimization-report>
  QMC Execution time = 6.4236e+00 secs 
  Reusing QMCFixedSampleLinearOptimize
 Using QMCCostFunction::QMCCostFunction

=========================================================
  Start QMCFixedSampleLinearOptimize
  File Root V.log.s018 append = no 
=========================================================
  Skip QMCDriver::putQMCInfo 
  Resetting Properties of the walkers 1 x 13

=========================================================
  Start VMC
  File Root V.log.s018 append = no 
=========================================================
Using existing walkers 
  Resetting Properties of the walkers 1 x 13

<vmc function="put">
  qmc_counter=7  my_counter=17
  time step      = 1.5000e-01
  blocks         = 400
  steps          = 2
  substeps       = 5
  current        = 0
  target samples = 5.1200e+05
  walkers/mpi    = 1

  stepsbetweensamples = 1
<parameter name="blocks" condition="int">400</parameter>
<parameter name="blocks_between_recompute" condition="int">0</parameter>
<parameter name="check_properties" condition="int">100</parameter>
<parameter name="checkproperties" condition="int">100</parameter>
<parameter name="current" condition="int">0</parameter>
<parameter name="dmcwalkersperthread" condition="real">5.0000e+02</parameter>
<parameter name="maxcpusecs" condition="real">3.6000e+05</parameter>
<parameter name="record_configs" condition="int">0</parameter>
<parameter name="record_walkers" condition="int">1</parameter>
<parameter name="recordconfigs" condition="int">0</parameter>
<parameter name="recordwalkers" condition="int">1</parameter>
<parameter name="rewind" condition="int">0</parameter>
<parameter name="samples" condition="real">5.1200e+05</parameter>
<parameter name="samplesperthread" condition="real">5.0000e+02</parameter>
<parameter name="steps" condition="int">2</parameter>
<parameter name="stepsbetweensamples" condition="int">1</parameter>
<parameter name="store_configs" condition="int">0</parameter>
<parameter name="storeconfigs" condition="int">0</parameter>
<parameter name="sub_steps" condition="int">5</parameter>
<parameter name="substeps" condition="int">5</parameter>
<parameter name="tau" condition="au">1.5000e-01</parameter>
<parameter name="time_step" condition="au">1.5000e-01</parameter>
<parameter name="timestep" condition="au">1.5000e-01</parameter>
<parameter name="use_drift" condition="string">no</parameter>
<parameter name="usedrift" condition="string">no</parameter>
<parameter name="walkers" condition="int">1</parameter>
<parameter name="warmup_steps" condition="int">0</parameter>
<parameter name="warmupsteps" condition="int">0</parameter>
  DumpConfig==false Nothing (configurations, state) will be saved.
  Walker Samples are dumped every 1 steps.
</vmc>
  EstimatorManagerBase::add replace LocalEnergy estimator.
  EstimatorManagerBase::add replace LocalEnergy estimator.
<optimization-report>
<vmc stage="main" blocks="400">
  Cannot make clones again. Use existing 1 clones
  Initial partition of walkers 0 1 
  Using Particle by Particle moves
  Walker moves without drift
  Total Sample Size   =512000
  Walker distribution on root = 0 1 
  Using Locality Approximation
===== Memory Usage after the buffer registration =====
Available memory on node 0, free + buffers : 83484 MB
Memory footprint by rank 0 on node 0       : 122 MB
==================================================
====================================================
  SimpleFixedNodeBranch::finalize after a VMC block
    QMC counter        = 18
    time step          = 0.15
    reference energy   = -71.3338
    reference variance = 1.07816
====================================================
  Execution time = 4.6594e+00
</vmc>
<opt stage="setup">
  <log>
   Reading configurations from h5FileRoot V.log.s018
  QMCCostFunction is created with 1 threads.
  Using Nonlocal PP in Opt: NonLocalECP
   Number of samples loaded to each thread : 500 
  VMC Eavg = -7.1317e+01
  VMC Evar = 1.1007e+00
  Total weights = 5.1200e+05
  Execution time = 8.5151e-01
  </log>
</opt>
<opt stage="main" walkers="512000">
  <log>

*****************************************
Building overlap and Hamiltonian matrices
*****************************************

Among totally 30 optimized parameters, largest LM parameter change : 3.5309e-02 at parameter 28

******************************************************************************
Init Cost =  -6.7696e+01    New Cost =  -6.7696e+01  Delta Cost =  -8.9179e-05
******************************************************************************

The new set of parameters is valid. Updating the trial wave function!

*****************************************************************************
Applying the update for shift_i =   1.0000e-02     and shift_s =   3.9062e-03
*****************************************************************************
  Execution time = 6.3256e+00
  </log>
  <optVariables href="V.log.s018.opt.xml">
uu_0 2.5724e-01 1 1  ON 0
uu_1 6.0544e-02 1 1  ON 1
uu_2 -2.5708e-02 1 1  ON 2
uu_3 -7.8839e-02 1 1  ON 3
uu_4 -1.0607e-01 1 1  ON 4
uu_5 -1.2798e-01 1 1  ON 5
uu_6 -1.3212e-01 1 1  ON 6
uu_7 -1.1621e-01 1 1  ON 7
uu_8 -6.1061e-02 1 1  ON 8
uu_9 8.4021e-03 1 1  ON 9
ud_0 4.4777e-01 1 1  ON 10
ud_1 1.9656e-01 1 1  ON 11
ud_2 1.0805e-01 1 1  ON 12
ud_3 4.3787e-02 1 1  ON 13
ud_4 1.9929e-03 1 1  ON 14
ud_5 -4.5096e-02 1 1  ON 15
ud_6 -7.6840e-02 1 1  ON 16
ud_7 -9.5330e-02 1 1  ON 17
ud_8 -7.8044e-02 1 1  ON 18
ud_9 -4.3049e-02 1 1  ON 19
eV_0 -2.2803e+00 1 1  ON 20
eV_1 -1.4320e+00 1 1  ON 21
eV_2 -5.9816e-01 1 1  ON 22
eV_3 -2.4142e-02 1 1  ON 23
eV_4 4.5947e-01 1 1  ON 24
eV_5 8.3633e-01 1 1  ON 25
eV_6 1.0875e+00 1 1  ON 26
eV_7 1.0734e+00 1 1  ON 27
eV_8 6.9234e-01 1 1  ON 28
eV_9 1.8940e-01 1 1  ON 29
  </optVariables>
   Restore the number of walkers to 1, removing 0 walkers.
</opt>
</optimization-report>
  QMC Execution time = 6.3366e+00 secs 
  Reusing QMCFixedSampleLinearOptimize
 Using QMCCostFunction::QMCCostFunction

=========================================================
  Start QMCFixedSampleLinearOptimize
  File Root V.log.s019 append = no 
=========================================================
  Skip QMCDriver::putQMCInfo 
  Resetting Properties of the walkers 1 x 13

=========================================================
  Start VMC
  File Root V.log.s019 append = no 
=========================================================
Using existing walkers 
  Resetting Properties of the walkers 1 x 13

<vmc function="put">
  qmc_counter=8  my_counter=18
  time step      = 1.5000e-01
  blocks         = 400
  steps          = 2
  substeps       = 5
  current        = 0
  target samples = 5.1200e+05
  walkers/mpi    = 1

  stepsbetweensamples = 1
<parameter name="blocks" condition="int">400</parameter>
<parameter name="blocks_between_recompute" condition="int">0</parameter>
<parameter name="check_properties" condition="int">100</parameter>
<parameter name="checkproperties" condition="int">100</parameter>
<parameter name="current" condition="int">0</parameter>
<parameter name="dmcwalkersperthread" condition="real">5.0000e+02</parameter>
<parameter name="maxcpusecs" condition="real">3.6000e+05</parameter>
<parameter name="record_configs" condition="int">0</parameter>
<parameter name="record_walkers" condition="int">1</parameter>
<parameter name="recordconfigs" condition="int">0</parameter>
<parameter name="recordwalkers" condition="int">1</parameter>
<parameter name="rewind" condition="int">0</parameter>
<parameter name="samples" condition="real">5.1200e+05</parameter>
<parameter name="samplesperthread" condition="real">5.0000e+02</parameter>
<parameter name="steps" condition="int">2</parameter>
<parameter name="stepsbetweensamples" condition="int">1</parameter>
<parameter name="store_configs" condition="int">0</parameter>
<parameter name="storeconfigs" condition="int">0</parameter>
<parameter name="sub_steps" condition="int">5</parameter>
<parameter name="substeps" condition="int">5</parameter>
<parameter name="tau" condition="au">1.5000e-01</parameter>
<parameter name="time_step" condition="au">1.5000e-01</parameter>
<parameter name="timestep" condition="au">1.5000e-01</parameter>
<parameter name="use_drift" condition="string">no</parameter>
<parameter name="usedrift" condition="string">no</parameter>
<parameter name="walkers" condition="int">1</parameter>
<parameter name="warmup_steps" condition="int">0</parameter>
<parameter name="warmupsteps" condition="int">0</parameter>
  DumpConfig==false Nothing (configurations, state) will be saved.
  Walker Samples are dumped every 1 steps.
</vmc>
  EstimatorManagerBase::add replace LocalEnergy estimator.
  EstimatorManagerBase::add replace LocalEnergy estimator.
<optimization-report>
<vmc stage="main" blocks="400">
  Cannot make clones again. Use existing 1 clones
  Initial partition of walkers 0 1 
  Using Particle by Particle moves
  Walker moves without drift
  Total Sample Size   =512000
  Walker distribution on root = 0 1 
  Using Locality Approximation
===== Memory Usage after the buffer registration =====
Available memory on node 0, free + buffers : 83480 MB
Memory footprint by rank 0 on node 0       : 124 MB
==================================================
====================================================
  SimpleFixedNodeBranch::finalize after a VMC block
    QMC counter        = 19
    time step          = 0.15
    reference energy   = -71.3112
    reference variance = 1.05748
====================================================
  Execution time = 4.6995e+00
</vmc>
<opt stage="setup">
  <log>
   Reading configurations from h5FileRoot V.log.s019
  QMCCostFunction is created with 1 threads.
  Using Nonlocal PP in Opt: NonLocalECP
   Number of samples loaded to each thread : 500 
  VMC Eavg = -7.1316e+01
  VMC Evar = 1.0797e+00
  Total weights = 5.1200e+05
  Execution time = 8.5803e-01
  </log>
</opt>
<opt stage="main" walkers="512000">
  <log>

*****************************************
Building overlap and Hamiltonian matrices
*****************************************

Among totally 30 optimized parameters, largest LM parameter change : 2.8882e-02 at parameter 28

******************************************************************************
Init Cost =  -6.7697e+01    New Cost =  -6.7697e+01  Delta Cost =  -1.3356e-05
******************************************************************************

The new set of parameters is valid. Updating the trial wave function!

*****************************************************************************
Applying the update for shift_i =   1.0000e-02     and shift_s =   3.9062e-03
*****************************************************************************
  Execution time = 6.3861e+00
  </log>
  <optVariables href="V.log.s019.opt.xml">
uu_0 2.5937e-01 1 1  ON 0
uu_1 6.2594e-02 1 1  ON 1
uu_2 -2.3594e-02 1 1  ON 2
uu_3 -7.6031e-02 1 1  ON 3
uu_4 -1.0285e-01 1 1  ON 4
uu_5 -1.2622e-01 1 1  ON 5
uu_6 -1.3197e-01 1 1  ON 6
uu_7 -1.2048e-01 1 1  ON 7
uu_8 -6.9902e-02 1 1  ON 8
uu_9 3.8656e-03 1 1  ON 9
ud_0 4.5225e-01 1 1  ON 10
ud_1 2.0028e-01 1 1  ON 11
ud_2 1.1198e-01 1 1  ON 12
ud_3 4.7193e-02 1 1  ON 13
ud_4 6.0381e-03 1 1  ON 14
ud_5 -4.1868e-02 1 1  ON 15
ud_6 -7.2697e-02 1 1  ON 16
ud_7 -9.2356e-02 1 1  ON 17
ud_8 -8.1233e-02 1 1  ON 18
ud_9 -4.7590e-02 1 1  ON 19
eV_0 -2.2968e+00 1 1  ON 20
eV_1 -1.4477e+00 1 1  ON 21
eV_2 -6.1553e-01 1 1  ON 22
eV_3 -4.4643e-02 1 1  ON 23
eV_4 4.5069e-01 1 1  ON 24
eV_5 8.4015e-01 1 1  ON 25
eV_6 1.0955e+00 1 1  ON 26
eV_7 1.0949e+00 1 1  ON 27
eV_8 7.2122e-01 1 1  ON 28
eV_9 2.0628e-01 1 1  ON 29
  </optVariables>
   Restore the number of walkers to 1, removing 0 walkers.
</opt>
</optimization-report>
  QMC Execution time = 6.3979e+00 secs 
  Reusing QMCFixedSampleLinearOptimize
 Using QMCCostFunction::QMCCostFunction

=========================================================
  Start QMCFixedSampleLinearOptimize
  File Root V.log.s020 append = no 
=========================================================
  Skip QMCDriver::putQMCInfo 
  Resetting Properties of the walkers 1 x 13

=========================================================
  Start VMC
  File Root V.log.s020 append = no 
=========================================================
Using existing walkers 
  Resetting Properties of the walkers 1 x 13

<vmc function="put">
  qmc_counter=9  my_counter=19
  time step      = 1.5000e-01
  blocks         = 400
  steps          = 2
  substeps       = 5
  current        = 0
  target samples = 5.1200e+05
  walkers/mpi    = 1

  stepsbetweensamples = 1
<parameter name="blocks" condition="int">400</parameter>
<parameter name="blocks_between_recompute" condition="int">0</parameter>
<parameter name="check_properties" condition="int">100</parameter>
<parameter name="checkproperties" condition="int">100</parameter>
<parameter name="current" condition="int">0</parameter>
<parameter name="dmcwalkersperthread" condition="real">5.0000e+02</parameter>
<parameter name="maxcpusecs" condition="real">3.6000e+05</parameter>
<parameter name="record_configs" condition="int">0</parameter>
<parameter name="record_walkers" condition="int">1</parameter>
<parameter name="recordconfigs" condition="int">0</parameter>
<parameter name="recordwalkers" condition="int">1</parameter>
<parameter name="rewind" condition="int">0</parameter>
<parameter name="samples" condition="real">5.1200e+05</parameter>
<parameter name="samplesperthread" condition="real">5.0000e+02</parameter>
<parameter name="steps" condition="int">2</parameter>
<parameter name="stepsbetweensamples" condition="int">1</parameter>
<parameter name="store_configs" condition="int">0</parameter>
<parameter name="storeconfigs" condition="int">0</parameter>
<parameter name="sub_steps" condition="int">5</parameter>
<parameter name="substeps" condition="int">5</parameter>
<parameter name="tau" condition="au">1.5000e-01</parameter>
<parameter name="time_step" condition="au">1.5000e-01</parameter>
<parameter name="timestep" condition="au">1.5000e-01</parameter>
<parameter name="use_drift" condition="string">no</parameter>
<parameter name="usedrift" condition="string">no</parameter>
<parameter name="walkers" condition="int">1</parameter>
<parameter name="warmup_steps" condition="int">0</parameter>
<parameter name="warmupsteps" condition="int">0</parameter>
  DumpConfig==false Nothing (configurations, state) will be saved.
  Walker Samples are dumped every 1 steps.
</vmc>
  EstimatorManagerBase::add replace LocalEnergy estimator.
  EstimatorManagerBase::add replace LocalEnergy estimator.
<optimization-report>
<vmc stage="main" blocks="400">
  Cannot make clones again. Use existing 1 clones
  Initial partition of walkers 0 1 
  Using Particle by Particle moves
  Walker moves without drift
  Total Sample Size   =512000
  Walker distribution on root = 0 1 
  Using Locality Approximation
===== Memory Usage after the buffer registration =====
Available memory on node 0, free + buffers : 83477 MB
Memory footprint by rank 0 on node 0       : 127 MB
==================================================
====================================================
  SimpleFixedNodeBranch::finalize after a VMC block
    QMC counter        = 20
    time step          = 0.15
    reference energy   = -71.2881
    reference variance = 0.867941
====================================================
  Execution time = 4.6749e+00
</vmc>
<opt stage="setup">
  <log>
   Reading configurations from h5FileRoot V.log.s020
  QMCCostFunction is created with 1 threads.
  Using Nonlocal PP in Opt: NonLocalECP
   Number of samples loaded to each thread : 500 
  VMC Eavg = -7.1317e+01
  VMC Evar = 1.0609e+00
  Total weights = 5.1200e+05
  Execution time = 8.5446e-01
  </log>
</opt>
<opt stage="main" walkers="512000">
  <log>

*****************************************
Building overlap and Hamiltonian matrices
*****************************************

Among totally 30 optimized parameters, largest LM parameter change : 2.9177e-02 at parameter 28

******************************************************************************
Init Cost =  -6.7698e+01    New Cost =  -6.7699e+01  Delta Cost =  -3.8580e-04
******************************************************************************

The new set of parameters is valid. Updating the trial wave function!

*****************************************************************************
Applying the update for shift_i =   1.0000e-02     and shift_s =   3.9062e-03
*****************************************************************************
  Execution time = 6.3437e+00
  </log>
  <optVariables href="V.log.s020.opt.xml">
uu_0 2.6078e-01 1 1  ON 0
uu_1 6.4697e-02 1 1  ON 1
uu_2 -2.1208e-02 1 1  ON 2
uu_3 -7.4542e-02 1 1  ON 3
uu_4 -1.0083e-01 1 1  ON 4
uu_5 -1.2339e-01 1 1  ON 5
uu_6 -1.2983e-01 1 1  ON 6
uu_7 -1.2158e-01 1 1  ON 7
uu_8 -7.0353e-02 1 1  ON 8
uu_9 -1.8398e-03 1 1  ON 9
ud_0 4.6915e-01 1 1  ON 10
ud_1 2.1817e-01 1 1  ON 11
ud_2 1.2866e-01 1 1  ON 12
ud_3 6.3002e-02 1 1  ON 13
ud_4 1.9293e-02 1 1  ON 14
ud_5 -3.1560e-02 1 1  ON 15
ud_6 -6.5526e-02 1 1  ON 16
ud_7 -8.8046e-02 1 1  ON 17
ud_8 -8.1092e-02 1 1  ON 18
ud_9 -5.5850e-02 1 1  ON 19
eV_0 -2.3147e+00 1 1  ON 20
eV_1 -1.4654e+00 1 1  ON 21
eV_2 -6.2627e-01 1 1  ON 22
eV_3 -4.3390e-02 1 1  ON 23
eV_4 4.4358e-01 1 1  ON 24
eV_5 8.3611e-01 1 1  ON 25
eV_6 1.0981e+00 1 1  ON 26
eV_7 1.1077e+00 1 1  ON 27
eV_8 7.5040e-01 1 1  ON 28
eV_9 2.2387e-01 1 1  ON 29
  </optVariables>
   Restore the number of walkers to 1, removing 0 walkers.
</opt>
</optimization-report>
  QMC Execution time = 6.3537e+00 secs 
  Total Execution time = 1.2511e+02 secs

=========================================================
  A new xml input file : V.log.s020.cont.xml
TACC:  Shutdown complete. Exiting. 
