
 Primary working directories    : /global/cscratch1/sd/aannabe
 Secondary working directories  : /global/cscratch1/sd/aannabe
 Wavefunction directory         : /global/homes/a/aannabe/wfu/
 Main file repository           : /global/cscratch1/sd/aannabe/

 SHA1      : 19cd028119e0e09f93f0674bd8af7968d9b3eff6
 NAME      : 2015.1.36
 ARCHNAME  : linux/x86_64
 FC        : /opt/cray/pe/craype/2.5.14/bin/ftn
 BLASLIB   : -L/opt/intel/compilers_and_libraries_2018.1.163/linux/mkl/lib/intel64 -Wl,-_start-group -lmkl_intel_ilp64 -lmkl_intel_thread -lmkl_core -Wl,-_end-group -liomp5
 id        : lbl

 Nodes     nprocs
 nid00468     1

 Using customized tuning parameters: mindgm=7; mindgv=16; mindgc=1; mindgr=1; noblas=0; minvec=7
 default implementation of scratch files=df  

 ***,Br
 memory,8,g
 gthresh,twoint=1.e-12
 
 gprint,basis,orbitals
 gexpec,ekin,pot
 
 angstrom
 geometry={
 1                                                                               ! Number of atoms
 Br 0.0 0.0 0.0
 }
 
 basis={
 
 Including file /global/homes/a/aannabe/repos/pseudopotentiallibrary/recipes/Br/ccECP/Br.ccECP.molpro
 
                                   !include,/global/homes/a/aannabe/repos/pseudopotentiallibrary/recipes/Br/ccECP/Br.cc-pVQZ.molpro
                                  !include,/global/homes/a/aannabe/repos/pseudopotentiallibrary/recipes/Br/ccECP/Br.cc-pCVQZ.molpro
 Including file /global/homes/a/aannabe/repos/pseudopotentiallibrary/recipes/Br/ccECP/Br.aug-cc-pVQZ.molpro
 
 
 }
 
 {hf
 wf,7,3,1
 occ,1,1,1,0,1,0,0,0
                                                                                 !open,1.3
 closed,1,1,0,0,1,0,0,0
                                                                                 !sym,
 }
 scf(i)=energy
 
 _CC_NORM_MAX=2.0
 {rccsd(t)
 maxit,100
 core
 }
 posthf(i)=energy
 
 table,scf,posthf,ekin,pot
 save,4.csv,new
 
 

 Variables initialized (889), CPU time= 0.01 sec
 Commands  initialized (702), CPU time= 0.01 sec, 572 directives.
 Default parameters read. Elapsed time= 0.10 sec

 Checking input...
 Passed
1


                                         ***  PROGRAM SYSTEM MOLPRO  ***
                                       Copyright, TTI GmbH Stuttgart, 2015
                                    Version 2015.1 linked Dec 29 2018 15:55:43


 **********************************************************************************************************************************
 LABEL *   Br                                                                            
  64 bit serial version                                                                  DATE: 25-Jun-19          TIME: 12:04:25  
 **********************************************************************************************************************************

 SHA1:             19cd028119e0e09f93f0674bd8af7968d9b3eff6
 **********************************************************************************************************************************

 THRESHOLDS:

 ZERO    =  1.00D-12  ONEINT  =  1.00D-12  TWOINT  =  1.00D-12  PREFAC  =  1.00D-14  LOCALI  =  1.00D-09  EORDER  =  1.00D-04
 ENERGY  =  0.00D+00  ETEST   =  0.00D+00  EDENS   =  0.00D+00  THRDEDEF=  1.00D-06  GRADIENT=  1.00D-02  STEP    =  1.00D-03
 ORBITAL =  1.00D-05  CIVEC   =  1.00D-05  COEFF   =  1.00D-04  PRINTCI =  5.00D-02  PUNCHCI =  9.90D+01  OPTGRAD =  3.00D-04
 OPTENERG=  1.00D-06  OPTSTEP =  3.00D-04  THRGRAD =  1.00D-10  COMPRESS=  1.00D-11  VARMIN  =  1.00D-07  VARMAX  =  1.00D-03
 THRDOUB =  0.00D+00  THRDIV  =  1.00D-05  THRRED  =  1.00D-07  THRPSP  =  1.00D+00  THRDC   =  1.00D-10  THRCS   =  1.00D-10
 THRNRM  =  1.00D-08  THREQ   =  0.00D+00  THRDE   =  1.00D+00  THRREF  =  1.00D-05  SPARFAC =  1.00D+00  THRDLP  =  1.00D-07
 THRDIA  =  1.00D-10  THRDLS  =  1.00D-07  THRGPS  =  0.00D+00  THRKEX  =  0.00D+00  THRDIS  =  2.00D-01  THRVAR  =  1.00D-10
 THRLOC  =  1.00D-06  THRGAP  =  1.00D-06  THRLOCT = -1.00D+00  THRGAPT = -1.00D+00  THRORB  =  1.00D-06  THRMLTP =  0.00D+00
 THRCPQCI=  1.00D-10  KEXTA   =  0.00D+00  THRCOARS=  0.00D+00  SYMTOL  =  1.00D-06  GRADTOL =  1.00D-06  THROVL  =  1.00D-08
 THRORTH =  1.00D-08  GRID    =  1.00D-06  GRIDMAX =  1.00D-03  DTMAX   =  0.00D+00  THROCCDE=  1.00D-01  THROCCDE=  1.00D-01



 ZUNIT=ANG
 

Geometry recognized as XYZ


 Variable memory set to 8000000000 words,  buffer space   230000 words

 SETTING BASIS          =    USERDEF


 Recomputing integrals since basis changed


 Using spherical harmonics



 PROGRAM * SEWARD (Integral evaluation for generally contracted gaussian basis sets)     Author: Roland Lindh, 1990

 Geometry written to block  1 of record 700

 Orientation using atomic masses  
 Molecule type: Atom
 Symmetry elements: X,Y,Z
 Rotational constants:       0.0000000      0.0000000      0.0000000 GHz  (calculated with average atomic masses)

 Point group  D2h 



 ATOMIC COORDINATES

 NR  ATOM    CHARGE       X              Y              Z

   1  BR      7.00    0.000000000    0.000000000    0.000000000


          BR  CORE POTENTIAL

          f POTENTIAL

 POWERS             1              3              2              2
 EXPONENTIALS   3.665770       5.293023       3.176376       2.897544    
 COEFFICIENTS   7.000000       25.66039       13.04026      -21.90884    

          s - f POTENTIAL

 POWERS             2              2
 EXPONENTIALS   4.971807       2.042687    
 COEFFICIENTS   85.88435       4.621255    

          p - f POTENTIAL

 POWERS             2              2
 EXPONENTIALS   4.711839       2.384293    
 COEFFICIENTS   55.36172       11.03141    

          d - f POTENTIAL

 POWERS             2              2
 EXPONENTIALS   3.412863       1.530285    
 COEFFICIENTS   26.41041       5.468739    


 BASIS DATA

   Nr Sym  Nuc  Type         Exponents   Contraction coefficients

    1.1 Ag    1  1s          60.457695    -0.000452
                             27.422852     0.003372
                             12.438662    -0.025045
                              5.642021     0.170101
                              2.559150    -0.430992
                              1.160798    -0.154358
                              0.526524     0.525458
                              0.238824     0.592735
                              0.108328     0.169490
    2.1 Ag    1  1s           0.716355     1.000000
    3.1 Ag    1  1s           0.328206     1.000000
    4.1 Ag    1  1s           0.150371     1.000000
    5.1 Ag    1  1s           0.060148     1.000000
    6.1 Ag    1  3d0          1.865751     1.000000
    7.1 Ag    1  3d2+         1.865751     1.000000
    8.1 Ag    1  3d0          0.698782     1.000000
    9.1 Ag    1  3d2+         0.698782     1.000000
   10.1 Ag    1  3d0          0.261716     1.000000
   11.1 Ag    1  3d2+         0.261716     1.000000
   12.1 Ag    1  3d0          0.104686     1.000000
   13.1 Ag    1  3d2+         0.104686     1.000000
   14.1 Ag    1  5g0          0.673499     1.000000
   15.1 Ag    1  5g4+         0.673499     1.000000
   16.1 Ag    1  5g2+         0.673499     1.000000
   17.1 Ag    1  5g0          0.269400     1.000000
   18.1 Ag    1  5g4+         0.269400     1.000000
   19.1 Ag    1  5g2+         0.269400     1.000000
    1.2 B3u   1  2px         27.437987     0.000087
                             12.887440    -0.001797
                              6.053145     0.027150
                              2.843122    -0.134143
                              1.335395    -0.006234
                              0.627226     0.309551
                              0.294604     0.440285
                              0.138374     0.316750
                              0.064993     0.092533
    2.2 B3u   1  2px          0.750243     1.000000
    3.2 B3u   1  2px          0.285597     1.000000
    4.2 B3u   1  2px          0.108719     1.000000
    5.2 B3u   1  2px          0.043488     1.000000
    6.2 B3u   1  4f1+         0.852676     1.000000
    7.2 B3u   1  4f3+         0.852676     1.000000
    8.2 B3u   1  4f1+         0.345036     1.000000
    9.2 B3u   1  4f3+         0.345036     1.000000
   10.2 B3u   1  4f1+         0.138014     1.000000
   11.2 B3u   1  4f3+         0.138014     1.000000
    1.3 B2u   1  2py         27.437987     0.000087
                             12.887440    -0.001797
                              6.053145     0.027150
                              2.843122    -0.134143
                              1.335395    -0.006234
                              0.627226     0.309551
                              0.294604     0.440285
                              0.138374     0.316750
                              0.064993     0.092533
    2.3 B2u   1  2py          0.750243     1.000000
    3.3 B2u   1  2py          0.285597     1.000000
    4.3 B2u   1  2py          0.108719     1.000000
    5.3 B2u   1  2py          0.043488     1.000000
    6.3 B2u   1  4f1-         0.852676     1.000000
    7.3 B2u   1  4f3-         0.852676     1.000000
    8.3 B2u   1  4f1-         0.345036     1.000000
    9.3 B2u   1  4f3-         0.345036     1.000000
   10.3 B2u   1  4f1-         0.138014     1.000000
   11.3 B2u   1  4f3-         0.138014     1.000000
    1.4 B1g   1  3d2-         1.865751     1.000000
    2.4 B1g   1  3d2-         0.698782     1.000000
    3.4 B1g   1  3d2-         0.261716     1.000000
    4.4 B1g   1  3d2-         0.104686     1.000000
    5.4 B1g   1  5g2-         0.673499     1.000000
    6.4 B1g   1  5g4-         0.673499     1.000000
    7.4 B1g   1  5g2-         0.269400     1.000000
    8.4 B1g   1  5g4-         0.269400     1.000000
    1.5 B1u   1  2pz         27.437987     0.000087
                             12.887440    -0.001797
                              6.053145     0.027150
                              2.843122    -0.134143
                              1.335395    -0.006234
                              0.627226     0.309551
                              0.294604     0.440285
                              0.138374     0.316750
                              0.064993     0.092533
    2.5 B1u   1  2pz          0.750243     1.000000
    3.5 B1u   1  2pz          0.285597     1.000000
    4.5 B1u   1  2pz          0.108719     1.000000
    5.5 B1u   1  2pz          0.043488     1.000000
    6.5 B1u   1  4f0          0.852676     1.000000
    7.5 B1u   1  4f2+         0.852676     1.000000
    8.5 B1u   1  4f0          0.345036     1.000000
    9.5 B1u   1  4f2+         0.345036     1.000000
   10.5 B1u   1  4f0          0.138014     1.000000
   11.5 B1u   1  4f2+         0.138014     1.000000
    1.6 B2g   1  3d1+         1.865751     1.000000
    2.6 B2g   1  3d1+         0.698782     1.000000
    3.6 B2g   1  3d1+         0.261716     1.000000
    4.6 B2g   1  3d1+         0.104686     1.000000
    5.6 B2g   1  5g1+         0.673499     1.000000
    6.6 B2g   1  5g3+         0.673499     1.000000
    7.6 B2g   1  5g1+         0.269400     1.000000
    8.6 B2g   1  5g3+         0.269400     1.000000
    1.7 B3g   1  3d1-         1.865751     1.000000
    2.7 B3g   1  3d1-         0.698782     1.000000
    3.7 B3g   1  3d1-         0.261716     1.000000
    4.7 B3g   1  3d1-         0.104686     1.000000
    5.7 B3g   1  5g1-         0.673499     1.000000
    6.7 B3g   1  5g3-         0.673499     1.000000
    7.7 B3g   1  5g1-         0.269400     1.000000
    8.7 B3g   1  5g3-         0.269400     1.000000
    1.8 Au    1  4f2-         0.852676     1.000000
    2.8 Au    1  4f2-         0.345036     1.000000
    3.8 Au    1  4f2-         0.138014     1.000000

 NUCLEAR CHARGE:                    7
 NUMBER OF PRIMITIVE AOS:         136
 NUMBER OF SYMMETRY AOS:          111
 NUMBER OF CONTRACTIONS:           79   (  19Ag  +  11B3u +  11B2u +   8B1g +  11B1u +   8B2g +   8B3g +   3Au  )
 NUMBER OF CORE ORBITALS:           0   (   0Ag  +   0B3u +   0B2u +   0B1g +   0B1u +   0B2g +   0B3g +   0Au  )
 NUMBER OF VALENCE ORBITALS:        4   (   1Ag  +   1B3u +   1B2u +   0B1g +   1B1u +   0B2g +   0B3g +   0Au  )


 NUCLEAR REPULSION ENERGY    0.00000000

 EXTRA SYMMETRY OF AOS IN SYMMETRY 1:   1 1 1 1 1 2 3 2 3 2   3 2 3 4 5 6 4 5 6
 EXTRA SYMMETRY OF AOS IN SYMMETRY 2:   1 1 1 1 1 2 3 2 3 2   3
 EXTRA SYMMETRY OF AOS IN SYMMETRY 3:   1 1 1 1 1 2 3 2 3 2   3
 EXTRA SYMMETRY OF AOS IN SYMMETRY 4:   1 1 1 1 2 3 2 3
 EXTRA SYMMETRY OF AOS IN SYMMETRY 5:   1 1 1 1 1 2 3 2 3 2   3
 EXTRA SYMMETRY OF AOS IN SYMMETRY 6:   1 1 1 1 2 3 2 3
 EXTRA SYMMETRY OF AOS IN SYMMETRY 7:   1 1 1 1 2 3 2 3

 Eigenvalues of metric

         1 0.341E-02 0.238E-01 0.989E-01 0.989E-01 0.182E+00 0.392E+00 0.392E+00 0.428E+00
         2 0.493E-02 0.535E-01 0.190E+00 0.190E+00 0.293E+00 0.809E+00 0.809E+00 0.108E+01
         3 0.493E-02 0.535E-01 0.190E+00 0.190E+00 0.293E+00 0.809E+00 0.809E+00 0.108E+01
         4 0.989E-01 0.392E+00 0.428E+00 0.428E+00 0.117E+01 0.157E+01 0.157E+01 0.234E+01
         5 0.493E-02 0.535E-01 0.190E+00 0.190E+00 0.293E+00 0.809E+00 0.809E+00 0.108E+01
         6 0.989E-01 0.392E+00 0.428E+00 0.428E+00 0.117E+01 0.157E+01 0.157E+01 0.234E+01
         7 0.989E-01 0.392E+00 0.428E+00 0.428E+00 0.117E+01 0.157E+01 0.157E+01 0.234E+01
         8 0.190E+00 0.809E+00 0.200E+01


 Contracted 2-electron integrals neglected if value below      1.0D-12
 AO integral compression algorithm  1   Integral accuracy      1.0D-12

     6.554 MB (compressed) written to integral file ( 65.2%)


 NUMBER OF SORTED TWO-ELECTRON INTEGRALS:     665704.     BUFFER LENGTH:  32768
 NUMBER OF SEGMENTS:   1  SEGMENT LENGTH:     665704      RECORD LENGTH: 524288

 Memory used in sort:       1.22 MW

 SORT1 READ     1222209. AND WROTE      500866. INTEGRALS IN      2 RECORDS. CPU TIME:     0.05 SEC, REAL TIME:     0.07 SEC
 SORT2 READ      500866. AND WROTE      665704. INTEGRALS IN     25 RECORDS. CPU TIME:     0.06 SEC, REAL TIME:     0.16 SEC

 FILE SIZES:   FILE 1:    26.6 MBYTE,  FILE 4:     8.4 MBYTE,   TOTAL:     35.0 MBYTE

 OPERATOR DM      FOR CENTER  0  COORDINATES:    0.000000    0.000000    0.000000
 OPERATOR EKIN    FOR CENTER  0  COORDINATES:    0.000000    0.000000    0.000000
 OPERATOR POT     FOR CENTER  0  COORDINATES:    0.000000    0.000000    0.000000


 **********************************************************************************************************************************
 DATASETS  * FILE   NREC   LENGTH (MB)   RECORD NAMES
              1      20       23.51       500      610      700      900      950      970     1000      129      960     1100   
                                          VAR    BASINP    GEOM    SYMINP    ZMAT    AOBASIS   BASIS     P2S    ABASIS      S 
                                         1400     1410     1420     1200     1210     1080     1600     1650     1300     1700   
                                         EKIN       V       ECP      H0       H01     AOSYM     SMH    MOLCAS    ERIS     OPER   

 PROGRAMS   *        TOTAL       INT
 CPU TIMES  *         2.21      2.07
 REAL TIME  *        11.99 SEC
 DISK USED  *        35.29 MB      
 **********************************************************************************************************************************


 PROGRAM * RHF-SCF (OPEN SHELL)       Authors: W. Meyer, H.-J. Werner


 NUMBER OF ELECTRONS:       4+    3-    SPACE SYMMETRY=3    SPIN SYMMETRY: Doublet 
 CONVERGENCE THRESHOLDS:    1.00E-05 (Density)    1.00E-07 (Energy)
 MAX. NUMBER OF ITERATIONS:       60
 INTERPOLATION TYPE:            DIIS
 INTERPOLATION STEPS:              2 (START)      1 (STEP)
 LEVEL SHIFTS:                 -0.60 (CLOSED) -0.30 (OPEN) 

 Number of closed-shell orbitals:    3 (   1   1   0   0   1   0   0   0 )
 Number of open-shell orbitals:      1 (   0   0   1   0   0   0   0   0 )



   Atom=BR basis=ECP28MDF_GUESS    lmin=0  lmax=1

 Orbital guess generated from atomic densities. Full valence occupancy:    1   1   1   0   1   0   0   0


 Molecular orbital dump at record        2100.2

 ITERATION    DDIFF          GRAD             ENERGY        2-EL.EN.            DIPOLE MOMENTS         DIIS   ORB.
    1      0.000D+00      0.000D+00       -13.11813471     17.402079    0.00000    0.00000    0.00000    0    start
    2      0.000D+00      0.613D-02       -13.12106090     17.516115    0.00000    0.00000    0.00000    1    diag,B
    3      0.581D-02      0.174D-02       -13.12149005     17.558617    0.00000    0.00000    0.00000    2    diag,B
    4      0.168D-02      0.510D-03       -13.12153731     17.569153    0.00000    0.00000    0.00000    3    diag,B
    5      0.731D-03      0.120D-03       -13.12154017     17.570566    0.00000    0.00000    0.00000    4    diag,B
    6      0.227D-03      0.339D-04       -13.12154040     17.571032    0.00000    0.00000    0.00000    5    diag,B
    7      0.914D-04      0.781D-05       -13.12154041     17.571111    0.00000    0.00000    0.00000    6    fixocc
    8      0.199D-04      0.199D-05       -13.12154041     17.571157    0.00000    0.00000    0.00000    7    diag,B
    9      0.348D-05      0.513D-06       -13.12154041     17.571160    0.00000    0.00000    0.00000    0    orth

 Final alpha occupancy:   1   1   1   0   1   0   0   0
 Final beta  occupancy:   1   1   0   0   1   0   0   0

 !RHF STATE 1.3 Energy                -13.121540410643
 Nuclear energy                         0.00000000
 One-electron energy                  -21.90712027
 Two-electron energy                    8.78557986
 Virial quotient                       -2.85088227
 !RHF STATE 1.3 Dipole moment           0.00000000     0.00000000     0.00000000
 Dipole moment /Debye                   0.00000000     0.00000000     0.00000000
 

 !RHF expec          <1.3|EKIN|1.3>     4.602624432345
 
 !RHF expec           <1.3|POT|1.3>    -4.025273856917

 ELECTRON ORBITALS
 =================


   Orb  Occ    Energy  Couls-En    Coefficients

                                   1 1s      1 1s      1 1s      1 1s      1 1s      1 3d0     1 3d2+    1 3d0     1 3d2+    1 3d0  
                                   1 3d2+    1 3d0     1 3d2+    1 5g0     1 5g4+    1 5g2+    1 5g0     1 5g4+    1 5g2+ 

   1.1   2    -1.0195   -4.6423  0.999365 -0.001148  0.003151 -0.002781  0.001515  0.000091  0.000158 -0.000316 -0.000547  0.001826
                                 0.003163  0.001538  0.002664  0.000002  0.000005  0.000004 -0.000012 -0.000024 -0.000018

                                   1 2px     1 2px     1 2px     1 2px     1 2px     1 4f1+    1 4f3+    1 4f1+    1 4f3+    1 4f1+ 
                                   1 4f3+ 

   1.2   2    -0.4448   -3.3714  0.999961 -0.000145  0.000812 -0.001223  0.000656 -0.000756 -0.002929 -0.001345 -0.005210 -0.000589
                                -0.002282

                                   1 2py     1 2py     1 2py     1 2py     1 2py     1 4f1-    1 4f3-    1 4f1-    1 4f3-    1 4f1- 
                                   1 4f3- 

   1.3   +    -0.5176   -3.4728  1.027000 -0.002153  0.017860 -0.043903 -0.013484 -0.005269 -0.006802 -0.009042 -0.011673 -0.003155
                                -0.004073

                                   1 2pz     1 2pz     1 2pz     1 2pz     1 2pz     1 4f0     1 4f2+    1 4f0     1 4f2+    1 4f0  
                                   1 4f2+ 

   1.5   2    -0.4448   -3.3714  0.999961 -0.000145  0.000812 -0.001223  0.000656 -0.001853 -0.002392 -0.003295 -0.004254 -0.001443
                                -0.001863

 HOMO      1.2    -0.444850 =     -12.1050eV
 LUMO      2.3     0.107914 =       2.9365eV
 LUMO-HOMO         0.552764 =      15.0415eV


 **********************************************************************************************************************************
 DATASETS  * FILE   NREC   LENGTH (MB)   RECORD NAMES
              1      20       23.51       500      610      700      900      950      970     1000      129      960     1100   
                                          VAR    BASINP    GEOM    SYMINP    ZMAT    AOBASIS   BASIS     P2S    ABASIS      S 
                                         1400     1410     1420     1200     1210     1080     1600     1650     1300     1700   
                                         EKIN       V       ECP      H0       H01     AOSYM     SMH    MOLCAS    ERIS     OPER   

              2       4        2.78       700     1000      520     2100   
                                         GEOM     BASIS   MCVARS     RHF  

 PROGRAMS   *        TOTAL        HF       INT
 CPU TIMES  *         2.31      0.10      2.07
 REAL TIME  *        12.59 SEC
 DISK USED  *        35.29 MB      
 **********************************************************************************************************************************
 SETTING SCF(I)         =       -13.12154041  AU                              
 SETTING _CC_NORM_MAX   =         2.00000000                                  


 PROGRAM * CCSD (Restricted open-shell coupled cluster)     Authors: C. Hampel, H.-J. Werner, 1991, M. Deegan, P.J. Knowles, 1992


 Convergence thresholds:  THRVAR = 1.00D-08  THRDEN = 1.00D-06

 CCSD(T)     terms to be evaluated (factor= 1.000)


 Number of closed-shell orbitals:   3 (   1   1   0   0   1   0   0   0 )
 Number of active  orbitals:        1 (   0   0   1   0   0   0   0   0 )
 Number of external orbitals:      75 (  18  10  10   8  10   8   8   3 )

 Memory could be reduced to 0.95 Mwords without degradation in triples

 Number of N-1 electron functions:               7
 Number of N-2 electron functions:              21
 Number of singly external CSFs:                87
 Number of doubly external CSFs:             12282
 Total number of CSFs:                       12369

 Molecular orbitals read from record     2100.2  Type=RHF/CANONICAL (state 1.3)

 Integral transformation finished. Total CPU:   0.02 sec, npass=  1  Memory used:   0.17 MW

 Starting RMP2 calculation

 Wavefunction is spin-projected

 ITER.      SQ.NORM     CORR.ENERGY   TOTAL ENERGY   ENERGY CHANGE        DEN1      VAR(S)    VAR(P)  DIIS     TIME
   1      1.05869797    -0.16248207   -13.28402248    -0.16248207    -0.00066412  0.82D-05  0.28D-03  1  1     0.02
   2      1.05939565    -0.16320013   -13.28474054    -0.00071806    -0.00000067  0.55D-08  0.32D-06  2  2     0.02
   3      1.05940989    -0.16320809   -13.28474851    -0.00000797    -0.00000000  0.12D-10  0.62D-09  3  3     0.03
   4      1.05941006    -0.16320814   -13.28474855    -0.00000004    -0.00000000  0.65D-13  0.19D-11  4  4     0.03

 Norm of t1 vector:      0.03812980      S-energy:    -0.00288790      T1 diagnostic:  0.00006831
 Norm of t2 vector:      0.24074090      P-energy:    -0.16032023
                                         Alpha-Beta:  -0.12727354
                                         Alpha-Alpha: -0.02230471
                                         Beta-Beta:   -0.01074199

 Spin contamination <S**2-Sz**2-Sz>     0.00000000
  Reference energy                    -13.121540410643
  RHF-RMP2 correlation energy          -0.163208135156
 !RHF-RMP2 energy                     -13.284748545799
 (NB above energy spin projected)

 Starting RCCSD calculation

 ITER.      SQ.NORM     CORR.ENERGY   TOTAL ENERGY   ENERGY CHANGE        DEN1      VAR(S)    VAR(P)  DIIS     TIME
   1      1.06805592    -0.17396614   -13.29550655    -0.17396614    -0.00467668  0.22D-03  0.15D-02  1  1     0.05
   2      1.07358652    -0.17917956   -13.30071997    -0.00521342    -0.00011839  0.66D-05  0.43D-04  2  2     0.08
   3      1.07437977    -0.17957778   -13.30111819    -0.00039822    -0.00000502  0.58D-06  0.20D-05  3  3     0.10
   4      1.07454598    -0.17964443   -13.30118484    -0.00006665    -0.00000026  0.46D-07  0.11D-06  4  4     0.12
   5      1.07457016    -0.17965050   -13.30119091    -0.00000607    -0.00000002  0.46D-08  0.80D-08  5  5     0.14
   6      1.07457284    -0.17965031   -13.30119072     0.00000019    -0.00000000  0.36D-09  0.63D-09  6  6     0.17

 Norm of t1 vector:      0.04862184      S-energy:    -0.00339790      T1 diagnostic:  0.00429341
                                                                       D1 diagnostic:  0.00958677
 Norm of t2 vector:      0.26871688      P-energy:    -0.17625241
                                         Alpha-Beta:  -0.14387741
                                         Alpha-Alpha: -0.02183853
                                         Beta-Beta:   -0.01053646

 Spin contamination <S**2-Sz**2-Sz>     0.00000000

 Memory could be reduced to 0.94 Mwords without degradation in triples
 

 RESULTS
 =======

  Reference energy                    -13.121540410643
  RCCSD singles energy                 -0.003397898120
  RCCSD pair energy                    -0.176252411126
  RCCSD correlation energy             -0.179650309246
  Triples (T) contribution             -0.006299391895
  Total correlation energy             -0.185949701141
 
  RHF-RCCSD energy                    -13.301190719890
  RHF-RCCSD[T] energy                 -13.307431671302
  RHF-RCCSD-T energy                  -13.307486808644
 !RHF-RCCSD(T) energy                 -13.307490111784

 Program statistics:

 Available memory in ccsd:              7999999732
 Min. memory needed in ccsd:                 58356
 Max. memory used in ccsd:                   70506
 Max. memory used in cckext:                 86669 ( 6 integral passes)
 Max. memory used in cckint:                165397 ( 1 integral passes)



 **********************************************************************************************************************************
 DATASETS  * FILE   NREC   LENGTH (MB)   RECORD NAMES
              1      20       23.51       500      610      700      900      950      970     1000      129      960     1100   
                                          VAR    BASINP    GEOM    SYMINP    ZMAT    AOBASIS   BASIS     P2S    ABASIS      S 
                                         1400     1410     1420     1200     1210     1080     1600     1650     1300     1700   
                                         EKIN       V       ECP      H0       H01     AOSYM     SMH    MOLCAS    ERIS     OPER   

              2       4        2.78       700     1000      520     2100   
                                         GEOM     BASIS   MCVARS     RHF  

 PROGRAMS   *        TOTAL  RCCSD(T)        HF       INT
 CPU TIMES  *         2.60      0.29      0.10      2.07
 REAL TIME  *        14.05 SEC
 DISK USED  *        35.29 MB      
 **********************************************************************************************************************************
 SETTING POSTHF(I)      =       -13.30749011  AU                              
                                                                                                                                                                                                                                                                

        SCF            POSTHF       EKIN          POT
    -13.12154041   -13.30749011   4.60262443   -4.02527386
                                                  

 RCCSD(T)/USERDEF energy=    -13.307490111784

        RCCSD(T)        HF-SCF  
    -13.30749011    -13.12154041
 **********************************************************************************************************************************
 Molpro calculation terminated
 Variable memory released
