
 Primary working directories    : /global/cscratch1/sd/aannabe
 Secondary working directories  : /global/cscratch1/sd/aannabe
 Wavefunction directory         : /global/homes/a/aannabe/wfu/
 Main file repository           : /global/cscratch1/sd/aannabe/

 SHA1      : 19cd028119e0e09f93f0674bd8af7968d9b3eff6
 NAME      : 2015.1.36
 ARCHNAME  : linux/x86_64
 FC        : /opt/cray/pe/craype/2.5.14/bin/ftn
 BLASLIB   : -L/opt/intel/compilers_and_libraries_2018.1.163/linux/mkl/lib/intel64 -Wl,-_start-group -lmkl_intel_ilp64 -lmkl_intel_thread -lmkl_core -Wl,-_end-group -liomp5
 id        : lbl

 Nodes     nprocs
 nid00468     1

 Using customized tuning parameters: mindgm=7; mindgv=16; mindgc=1; mindgr=1; noblas=0; minvec=7
 default implementation of scratch files=df  

 ***,Br
 memory,8,g
 gthresh,twoint=1.e-12
 
 gprint,basis,orbitals
 gexpec,ekin,pot
 
 angstrom
 geometry={
 1                                                                               ! Number of atoms
 Br 0.0 0.0 0.0
 }
 
 basis={
 
 Including file /global/homes/a/aannabe/repos/pseudopotentiallibrary/recipes/Br/ccECP/Br.ccECP.molpro
 
                                   !include,/global/homes/a/aannabe/repos/pseudopotentiallibrary/recipes/Br/ccECP/Br.cc-pV5Z.molpro
                                  !include,/global/homes/a/aannabe/repos/pseudopotentiallibrary/recipes/Br/ccECP/Br.cc-pCV5Z.molpro
 Including file /global/homes/a/aannabe/repos/pseudopotentiallibrary/recipes/Br/ccECP/Br.aug-cc-pV5Z.molpro
 
 
 }
 
 {hf
 wf,7,3,1
 occ,1,1,1,0,1,0,0,0
                                                                                 !open,1.3
 closed,1,1,0,0,1,0,0,0
                                                                                 !sym,
 }
 scf(i)=energy
 
 _CC_NORM_MAX=2.0
 {rccsd(t)
 maxit,100
 core
 }
 posthf(i)=energy
 
 table,scf,posthf,ekin,pot
 save,5.csv,new
 
 

 Variables initialized (889), CPU time= 0.00 sec
 Commands  initialized (702), CPU time= 0.00 sec, 572 directives.
 Default parameters read. Elapsed time= 0.14 sec

 Checking input...
 Passed
1


                                         ***  PROGRAM SYSTEM MOLPRO  ***
                                       Copyright, TTI GmbH Stuttgart, 2015
                                    Version 2015.1 linked Dec 29 2018 15:55:43


 **********************************************************************************************************************************
 LABEL *   Br                                                                            
  64 bit serial version                                                                  DATE: 25-Jun-19          TIME: 12:04:46  
 **********************************************************************************************************************************

 SHA1:             19cd028119e0e09f93f0674bd8af7968d9b3eff6
 **********************************************************************************************************************************

 THRESHOLDS:

 ZERO    =  1.00D-12  ONEINT  =  1.00D-12  TWOINT  =  1.00D-12  PREFAC  =  1.00D-14  LOCALI  =  1.00D-09  EORDER  =  1.00D-04
 ENERGY  =  0.00D+00  ETEST   =  0.00D+00  EDENS   =  0.00D+00  THRDEDEF=  1.00D-06  GRADIENT=  1.00D-02  STEP    =  1.00D-03
 ORBITAL =  1.00D-05  CIVEC   =  1.00D-05  COEFF   =  1.00D-04  PRINTCI =  5.00D-02  PUNCHCI =  9.90D+01  OPTGRAD =  3.00D-04
 OPTENERG=  1.00D-06  OPTSTEP =  3.00D-04  THRGRAD =  1.00D-10  COMPRESS=  1.00D-11  VARMIN  =  1.00D-07  VARMAX  =  1.00D-03
 THRDOUB =  0.00D+00  THRDIV  =  1.00D-05  THRRED  =  1.00D-07  THRPSP  =  1.00D+00  THRDC   =  1.00D-10  THRCS   =  1.00D-10
 THRNRM  =  1.00D-08  THREQ   =  0.00D+00  THRDE   =  1.00D+00  THRREF  =  1.00D-05  SPARFAC =  1.00D+00  THRDLP  =  1.00D-07
 THRDIA  =  1.00D-10  THRDLS  =  1.00D-07  THRGPS  =  0.00D+00  THRKEX  =  0.00D+00  THRDIS  =  2.00D-01  THRVAR  =  1.00D-10
 THRLOC  =  1.00D-06  THRGAP  =  1.00D-06  THRLOCT = -1.00D+00  THRGAPT = -1.00D+00  THRORB  =  1.00D-06  THRMLTP =  0.00D+00
 THRCPQCI=  1.00D-10  KEXTA   =  0.00D+00  THRCOARS=  0.00D+00  SYMTOL  =  1.00D-06  GRADTOL =  1.00D-06  THROVL  =  1.00D-08
 THRORTH =  1.00D-08  GRID    =  1.00D-06  GRIDMAX =  1.00D-03  DTMAX   =  0.00D+00  THROCCDE=  1.00D-01  THROCCDE=  1.00D-01



 ZUNIT=ANG
 

Geometry recognized as XYZ


 Variable memory set to 8000000000 words,  buffer space   230000 words

 SETTING BASIS          =    USERDEF


 Recomputing integrals since basis changed


 Using spherical harmonics



 PROGRAM * SEWARD (Integral evaluation for generally contracted gaussian basis sets)     Author: Roland Lindh, 1990

 Geometry written to block  1 of record 700

 Orientation using atomic masses  
 Molecule type: Atom
 Symmetry elements: X,Y,Z
 Rotational constants:       0.0000000      0.0000000      0.0000000 GHz  (calculated with average atomic masses)

 Point group  D2h 



 ATOMIC COORDINATES

 NR  ATOM    CHARGE       X              Y              Z

   1  BR      7.00    0.000000000    0.000000000    0.000000000


          BR  CORE POTENTIAL

          f POTENTIAL

 POWERS             1              3              2              2
 EXPONENTIALS   3.665770       5.293023       3.176376       2.897544    
 COEFFICIENTS   7.000000       25.66039       13.04026      -21.90884    

          s - f POTENTIAL

 POWERS             2              2
 EXPONENTIALS   4.971807       2.042687    
 COEFFICIENTS   85.88435       4.621255    

          p - f POTENTIAL

 POWERS             2              2
 EXPONENTIALS   4.711839       2.384293    
 COEFFICIENTS   55.36172       11.03141    

          d - f POTENTIAL

 POWERS             2              2
 EXPONENTIALS   3.412863       1.530285    
 COEFFICIENTS   26.41041       5.468739    


 BASIS DATA

   Nr Sym  Nuc  Type         Exponents   Contraction coefficients

    1.1 Ag    1  1s          60.457695    -0.000452
                             27.422852     0.003372
                             12.438662    -0.025045
                              5.642021     0.170101
                              2.559150    -0.430992
                              1.160798    -0.154358
                              0.526524     0.525458
                              0.238824     0.592735
                              0.108328     0.169490
    2.1 Ag    1  1s           0.717852     1.000000
    3.1 Ag    1  1s           0.387636     1.000000
    4.1 Ag    1  1s           0.209321     1.000000
    5.1 Ag    1  1s           0.113032     1.000000
    6.1 Ag    1  1s           0.045213     1.000000
    7.1 Ag    1  3d0          2.131944     1.000000
    8.1 Ag    1  3d2+         2.131944     1.000000
    9.1 Ag    1  3d0          0.965261     1.000000
   10.1 Ag    1  3d2+         0.965261     1.000000
   11.1 Ag    1  3d0          0.437032     1.000000
   12.1 Ag    1  3d2+         0.437032     1.000000
   13.1 Ag    1  3d0          0.197871     1.000000
   14.1 Ag    1  3d2+         0.197871     1.000000
   15.1 Ag    1  3d0          0.079148     1.000000
   16.1 Ag    1  3d2+         0.079148     1.000000
   17.1 Ag    1  5g0          1.023572     1.000000
   18.1 Ag    1  5g4+         1.023572     1.000000
   19.1 Ag    1  5g2+         1.023572     1.000000
   20.1 Ag    1  5g0          0.454585     1.000000
   21.1 Ag    1  5g4+         0.454585     1.000000
   22.1 Ag    1  5g2+         0.454585     1.000000
   23.1 Ag    1  5g0          0.181834     1.000000
   24.1 Ag    1  5g4+         0.181834     1.000000
   25.1 Ag    1  5g2+         0.181834     1.000000
    1.2 B3u   1  2px         27.437987     0.000087
                             12.887440    -0.001797
                              6.053145     0.027150
                              2.843122    -0.134143
                              1.335395    -0.006234
                              0.627226     0.309551
                              0.294604     0.440285
                              0.138374     0.316750
                              0.064993     0.092533
    2.2 B3u   1  2px          1.077437     1.000000
    3.2 B3u   1  2px          0.464537     1.000000
    4.2 B3u   1  2px          0.200285     1.000000
    5.2 B3u   1  2px          0.086353     1.000000
    6.2 B3u   1  2px          0.034541     1.000000
    7.2 B3u   1  4f1+         1.053363     1.000000
    8.2 B3u   1  4f3+         1.053363     1.000000
    9.2 B3u   1  4f1+         0.531391     1.000000
   10.2 B3u   1  4f3+         0.531391     1.000000
   11.2 B3u   1  4f1+         0.268071     1.000000
   12.2 B3u   1  4f3+         0.268071     1.000000
   13.2 B3u   1  4f1+         0.107228     1.000000
   14.2 B3u   1  4f3+         0.107228     1.000000
   15.2 B3u   1  6h1+         0.837913     1.000000
   16.2 B3u   1  6h3+         0.837913     1.000000
   17.2 B3u   1  6h5+         0.837913     1.000000
   18.2 B3u   1  6h1+         0.335165     1.000000
   19.2 B3u   1  6h3+         0.335165     1.000000
   20.2 B3u   1  6h5+         0.335165     1.000000
    1.3 B2u   1  2py         27.437987     0.000087
                             12.887440    -0.001797
                              6.053145     0.027150
                              2.843122    -0.134143
                              1.335395    -0.006234
                              0.627226     0.309551
                              0.294604     0.440285
                              0.138374     0.316750
                              0.064993     0.092533
    2.3 B2u   1  2py          1.077437     1.000000
    3.3 B2u   1  2py          0.464537     1.000000
    4.3 B2u   1  2py          0.200285     1.000000
    5.3 B2u   1  2py          0.086353     1.000000
    6.3 B2u   1  2py          0.034541     1.000000
    7.3 B2u   1  4f1-         1.053363     1.000000
    8.3 B2u   1  4f3-         1.053363     1.000000
    9.3 B2u   1  4f1-         0.531391     1.000000
   10.3 B2u   1  4f3-         0.531391     1.000000
   11.3 B2u   1  4f1-         0.268071     1.000000
   12.3 B2u   1  4f3-         0.268071     1.000000
   13.3 B2u   1  4f1-         0.107228     1.000000
   14.3 B2u   1  4f3-         0.107228     1.000000
   15.3 B2u   1  6h1-         0.837913     1.000000
   16.3 B2u   1  6h3-         0.837913     1.000000
   17.3 B2u   1  6h5-         0.837913     1.000000
   18.3 B2u   1  6h1-         0.335165     1.000000
   19.3 B2u   1  6h3-         0.335165     1.000000
   20.3 B2u   1  6h5-         0.335165     1.000000
    1.4 B1g   1  3d2-         2.131944     1.000000
    2.4 B1g   1  3d2-         0.965261     1.000000
    3.4 B1g   1  3d2-         0.437032     1.000000
    4.4 B1g   1  3d2-         0.197871     1.000000
    5.4 B1g   1  3d2-         0.079148     1.000000
    6.4 B1g   1  5g2-         1.023572     1.000000
    7.4 B1g   1  5g4-         1.023572     1.000000
    8.4 B1g   1  5g2-         0.454585     1.000000
    9.4 B1g   1  5g4-         0.454585     1.000000
   10.4 B1g   1  5g2-         0.181834     1.000000
   11.4 B1g   1  5g4-         0.181834     1.000000
    1.5 B1u   1  2pz         27.437987     0.000087
                             12.887440    -0.001797
                              6.053145     0.027150
                              2.843122    -0.134143
                              1.335395    -0.006234
                              0.627226     0.309551
                              0.294604     0.440285
                              0.138374     0.316750
                              0.064993     0.092533
    2.5 B1u   1  2pz          1.077437     1.000000
    3.5 B1u   1  2pz          0.464537     1.000000
    4.5 B1u   1  2pz          0.200285     1.000000
    5.5 B1u   1  2pz          0.086353     1.000000
    6.5 B1u   1  2pz          0.034541     1.000000
    7.5 B1u   1  4f0          1.053363     1.000000
    8.5 B1u   1  4f2+         1.053363     1.000000
    9.5 B1u   1  4f0          0.531391     1.000000
   10.5 B1u   1  4f2+         0.531391     1.000000
   11.5 B1u   1  4f0          0.268071     1.000000
   12.5 B1u   1  4f2+         0.268071     1.000000
   13.5 B1u   1  4f0          0.107228     1.000000
   14.5 B1u   1  4f2+         0.107228     1.000000
   15.5 B1u   1  6h2+         0.837913     1.000000
   16.5 B1u   1  6h4+         0.837913     1.000000
   17.5 B1u   1  6h0          0.837913     1.000000
   18.5 B1u   1  6h2+         0.335165     1.000000
   19.5 B1u   1  6h4+         0.335165     1.000000
   20.5 B1u   1  6h0          0.335165     1.000000
    1.6 B2g   1  3d1+         2.131944     1.000000
    2.6 B2g   1  3d1+         0.965261     1.000000
    3.6 B2g   1  3d1+         0.437032     1.000000
    4.6 B2g   1  3d1+         0.197871     1.000000
    5.6 B2g   1  3d1+         0.079148     1.000000
    6.6 B2g   1  5g1+         1.023572     1.000000
    7.6 B2g   1  5g3+         1.023572     1.000000
    8.6 B2g   1  5g1+         0.454585     1.000000
    9.6 B2g   1  5g3+         0.454585     1.000000
   10.6 B2g   1  5g1+         0.181834     1.000000
   11.6 B2g   1  5g3+         0.181834     1.000000
    1.7 B3g   1  3d1-         2.131944     1.000000
    2.7 B3g   1  3d1-         0.965261     1.000000
    3.7 B3g   1  3d1-         0.437032     1.000000
    4.7 B3g   1  3d1-         0.197871     1.000000
    5.7 B3g   1  3d1-         0.079148     1.000000
    6.7 B3g   1  5g1-         1.023572     1.000000
    7.7 B3g   1  5g3-         1.023572     1.000000
    8.7 B3g   1  5g1-         0.454585     1.000000
    9.7 B3g   1  5g3-         0.454585     1.000000
   10.7 B3g   1  5g1-         0.181834     1.000000
   11.7 B3g   1  5g3-         0.181834     1.000000
    1.8 Au    1  4f2-         1.053363     1.000000
    2.8 Au    1  4f2-         0.531391     1.000000
    3.8 Au    1  4f2-         0.268071     1.000000
    4.8 Au    1  4f2-         0.107228     1.000000
    5.8 Au    1  6h4-         0.837913     1.000000
    6.8 Au    1  6h2-         0.837913     1.000000
    7.8 Au    1  6h4-         0.335165     1.000000
    8.8 Au    1  6h2-         0.335165     1.000000

 NUCLEAR CHARGE:                    7
 NUMBER OF PRIMITIVE AOS:         213
 NUMBER OF SYMMETRY AOS:          158
 NUMBER OF CONTRACTIONS:          126   (  25Ag  +  20B3u +  20B2u +  11B1g +  20B1u +  11B2g +  11B3g +   8Au  )
 NUMBER OF CORE ORBITALS:           0   (   0Ag  +   0B3u +   0B2u +   0B1g +   0B1u +   0B2g +   0B3g +   0Au  )
 NUMBER OF VALENCE ORBITALS:        4   (   1Ag  +   1B3u +   1B2u +   0B1g +   1B1u +   0B2g +   0B3g +   0Au  )


 NUCLEAR REPULSION ENERGY    0.00000000

 EXTRA SYMMETRY OF AOS IN SYMMETRY 1:   1 1 1 1 1 1 2 3 2 3   2 3 2 3 2 3 4 5 6 4   5 6 4 5 6
 EXTRA SYMMETRY OF AOS IN SYMMETRY 2:   1 1 1 1 1 1 2 3 2 3   2 3 2 3 4 5 6 4 5 6
 EXTRA SYMMETRY OF AOS IN SYMMETRY 3:   1 1 1 1 1 1 2 3 2 3   2 3 2 3 4 5 6 4 5 6
 EXTRA SYMMETRY OF AOS IN SYMMETRY 4:   1 1 1 1 1 2 3 2 3 2   3
 EXTRA SYMMETRY OF AOS IN SYMMETRY 5:   1 1 1 1 1 1 2 3 2 3   2 3 2 3 4 5 6 4 5 6
 EXTRA SYMMETRY OF AOS IN SYMMETRY 6:   1 1 1 1 1 2 3 2 3 2   3
 EXTRA SYMMETRY OF AOS IN SYMMETRY 7:   1 1 1 1 1 2 3 2 3 2   3
 EXTRA SYMMETRY OF AOS IN SYMMETRY 8:   1 1 1 1 2 3 2 3

 Eigenvalues of metric

         1 0.575E-03 0.600E-02 0.311E-01 0.311E-01 0.409E-01 0.162E+00 0.162E+00 0.214E+00
         2 0.190E-02 0.199E-01 0.524E-01 0.524E-01 0.115E+00 0.349E+00 0.349E+00 0.483E+00
         3 0.190E-02 0.199E-01 0.524E-01 0.524E-01 0.115E+00 0.349E+00 0.349E+00 0.483E+00
         4 0.311E-01 0.162E+00 0.214E+00 0.214E+00 0.562E+00 0.842E+00 0.842E+00 0.144E+01
         5 0.190E-02 0.199E-01 0.524E-01 0.524E-01 0.115E+00 0.349E+00 0.349E+00 0.483E+00
         6 0.311E-01 0.162E+00 0.214E+00 0.214E+00 0.562E+00 0.842E+00 0.842E+00 0.144E+01
         7 0.311E-01 0.162E+00 0.214E+00 0.214E+00 0.562E+00 0.842E+00 0.842E+00 0.144E+01
         8 0.524E-01 0.349E+00 0.483E+00 0.483E+00 0.108E+01 0.152E+01 0.152E+01 0.252E+01


 Contracted 2-electron integrals neglected if value below      1.0D-12
 AO integral compression algorithm  1   Integral accuracy      1.0D-12

     30.671 MB (compressed) written to integral file ( 55.0%)


 NUMBER OF SORTED TWO-ELECTRON INTEGRALS:    4156552.     BUFFER LENGTH:  32768
 NUMBER OF SEGMENTS:   1  SEGMENT LENGTH:    4156552      RECORD LENGTH: 524288

 Memory used in sort:       4.71 MW

 SORT1 READ     6989366. AND WROTE     2907704. INTEGRALS IN      9 RECORDS. CPU TIME:     0.17 SEC, REAL TIME:     0.24 SEC
 SORT2 READ     2907704. AND WROTE     4156552. INTEGRALS IN    117 RECORDS. CPU TIME:     0.13 SEC, REAL TIME:     0.33 SEC

 FILE SIZES:   FILE 1:    50.9 MBYTE,  FILE 4:    37.8 MBYTE,   TOTAL:     88.7 MBYTE

 OPERATOR DM      FOR CENTER  0  COORDINATES:    0.000000    0.000000    0.000000
 OPERATOR EKIN    FOR CENTER  0  COORDINATES:    0.000000    0.000000    0.000000
 OPERATOR POT     FOR CENTER  0  COORDINATES:    0.000000    0.000000    0.000000


 **********************************************************************************************************************************
 DATASETS  * FILE   NREC   LENGTH (MB)   RECORD NAMES
              1      20       38.71       500      610      700      900      950      970     1000      129      960     1100   
                                          VAR    BASINP    GEOM    SYMINP    ZMAT    AOBASIS   BASIS     P2S    ABASIS      S 
                                         1400     1410     1420     1200     1210     1080     1600     1650     1300     1700   
                                         EKIN       V       ECP      H0       H01     AOSYM     SMH    MOLCAS    ERIS     OPER   

 PROGRAMS   *        TOTAL       INT
 CPU TIMES  *         3.01      2.91
 REAL TIME  *        13.11 SEC
 DISK USED  *        89.02 MB      
 **********************************************************************************************************************************


 PROGRAM * RHF-SCF (OPEN SHELL)       Authors: W. Meyer, H.-J. Werner


 NUMBER OF ELECTRONS:       4+    3-    SPACE SYMMETRY=3    SPIN SYMMETRY: Doublet 
 CONVERGENCE THRESHOLDS:    1.00E-05 (Density)    1.00E-07 (Energy)
 MAX. NUMBER OF ITERATIONS:       60
 INTERPOLATION TYPE:            DIIS
 INTERPOLATION STEPS:              2 (START)      1 (STEP)
 LEVEL SHIFTS:                 -0.60 (CLOSED) -0.30 (OPEN) 

 Number of closed-shell orbitals:    3 (   1   1   0   0   1   0   0   0 )
 Number of open-shell orbitals:      1 (   0   0   1   0   0   0   0   0 )



   Atom=BR basis=ECP28MDF_GUESS    lmin=0  lmax=1

 Orbital guess generated from atomic densities. Full valence occupancy:    1   1   1   0   1   0   0   0


 Molecular orbital dump at record        2100.2

 ITERATION    DDIFF          GRAD             ENERGY        2-EL.EN.            DIPOLE MOMENTS         DIIS   ORB.
    1      0.000D+00      0.000D+00       -13.11813653     17.402220    0.00000    0.00000    0.00000    0    start
    2      0.000D+00      0.474D-02       -13.12106988     17.516335    0.00000    0.00000    0.00000    1    diag,B
    3      0.353D-02      0.134D-02       -13.12149845     17.558698    0.00000    0.00000    0.00000    2    diag,B
    4      0.978D-03      0.395D-03       -13.12154621     17.569118    0.00000    0.00000    0.00000    3    diag,B
    5      0.511D-03      0.979D-04       -13.12154934     17.570779    0.00000    0.00000    0.00000    4    diag,B
    6      0.144D-03      0.243D-04       -13.12154954     17.571234    0.00000    0.00000    0.00000    5    diag,B
    7      0.459D-04      0.728D-05       -13.12154956     17.571315    0.00000    0.00000    0.00000    6    fixocc
    8      0.225D-04      0.184D-05       -13.12154956     17.571343    0.00000    0.00000    0.00000    7    diag,B
    9      0.450D-05      0.429D-06       -13.12154956     17.571347    0.00000    0.00000    0.00000    0    orth

 Final alpha occupancy:   1   1   1   0   1   0   0   0
 Final beta  occupancy:   1   1   0   0   1   0   0   0

 !RHF STATE 1.3 Energy                -13.121549562948
 Nuclear energy                         0.00000000
 One-electron energy                  -21.90722282
 Two-electron energy                    8.78567325
 Virial quotient                       -2.85088586
 !RHF STATE 1.3 Dipole moment           0.00000000     0.00000000     0.00000000
 Dipole moment /Debye                   0.00000000     0.00000000     0.00000000
 

 !RHF expec          <1.3|EKIN|1.3>     4.602621859091
 
 !RHF expec           <1.3|POT|1.3>    -4.025267410340

 ELECTRON ORBITALS
 =================


   Orb  Occ    Energy  Couls-En    Coefficients

                                   1 1s      1 1s      1 1s      1 1s      1 1s      1 1s      1 3d0     1 3d2+    1 3d0     1 3d2+ 
                                   1 3d0     1 3d2+    1 3d0     1 3d2+    1 3d0     1 3d2+    1 5g0     1 5g4+    1 5g2+    1 5g0  
                                   1 5g4+    1 5g2+    1 5g0     1 5g4+    1 5g2+ 

   1.1   2    -1.0195   -4.6423  1.000227  0.001039 -0.003980  0.007110 -0.006716  0.002717  0.000049  0.000084 -0.000055 -0.000095
                                -0.000043 -0.000074  0.002474  0.004285  0.000705  0.001221  0.000002  0.000004  0.000003 -0.000002
                                -0.000004 -0.000003 -0.000009 -0.000019 -0.000014

                                   1 2px     1 2px     1 2px     1 2px     1 2px     1 2px     1 4f1+    1 4f3+    1 4f1+    1 4f3+ 
                                   1 4f1+    1 4f3+    1 4f1+    1 4f3+    1 6h1+    1 6h3+    1 6h5+    1 6h1+    1 6h3+    1 6h5+ 


   1.2   2    -0.4448   -3.3714  1.001194  0.000447 -0.001721  0.002002 -0.003541  0.001896 -0.000409 -0.001583 -0.000867 -0.003356
                                -0.001067 -0.004134 -0.000377 -0.001462  0.000003  0.000011  0.000025  0.000006  0.000018  0.000041

                                   1 2py     1 2py     1 2py     1 2py     1 2py     1 2py     1 4f1-    1 4f3-    1 4f1-    1 4f3- 
                                   1 4f1-    1 4f3-    1 4f1-    1 4f3-    1 6h1-    1 6h3-    1 6h5-    1 6h1-    1 6h3-    1 6h5- 


   1.3   +    -0.5176   -3.4728  1.016637 -0.005223  0.017262  0.005138 -0.043275 -0.004515 -0.002802 -0.003618 -0.006116 -0.007896
                                -0.006780 -0.008753 -0.001929 -0.002490  0.000099  0.000107  0.000143  0.000127  0.000137  0.000183

                                   1 2pz     1 2pz     1 2pz     1 2pz     1 2pz     1 2pz     1 4f0     1 4f2+    1 4f0     1 4f2+ 
                                   1 4f0     1 4f2+    1 4f0     1 4f2+    1 6h2+    1 6h4+    1 6h0     1 6h2+    1 6h4+    1 6h0  


   1.5   2    -0.4448   -3.3714  1.001194  0.000447 -0.001721  0.002002 -0.003541  0.001896 -0.001001 -0.001292 -0.002123 -0.002740
                                -0.002615 -0.003376 -0.000925 -0.001194  0.000018  0.000016  0.000013  0.000030  0.000026  0.000022

 HOMO      1.2    -0.444837 =     -12.1046eV
 LUMO      2.1     0.074674 =       2.0320eV
 LUMO-HOMO         0.519510 =      14.1366eV


 **********************************************************************************************************************************
 DATASETS  * FILE   NREC   LENGTH (MB)   RECORD NAMES
              1      20       38.71       500      610      700      900      950      970     1000      129      960     1100   
                                          VAR    BASINP    GEOM    SYMINP    ZMAT    AOBASIS   BASIS     P2S    ABASIS      S 
                                         1400     1410     1420     1200     1210     1080     1600     1650     1300     1700   
                                         EKIN       V       ECP      H0       H01     AOSYM     SMH    MOLCAS    ERIS     OPER   

              2       4        2.83       700     1000      520     2100   
                                         GEOM     BASIS   MCVARS     RHF  

 PROGRAMS   *        TOTAL        HF       INT
 CPU TIMES  *         3.18      0.17      2.91
 REAL TIME  *        13.40 SEC
 DISK USED  *        89.02 MB      
 **********************************************************************************************************************************
 SETTING SCF(I)         =       -13.12154956  AU                              
 SETTING _CC_NORM_MAX   =         2.00000000                                  


 PROGRAM * CCSD (Restricted open-shell coupled cluster)     Authors: C. Hampel, H.-J. Werner, 1991, M. Deegan, P.J. Knowles, 1992


 Convergence thresholds:  THRVAR = 1.00D-08  THRDEN = 1.00D-06

 CCSD(T)     terms to be evaluated (factor= 1.000)


 Number of closed-shell orbitals:   3 (   1   1   0   0   1   0   0   0 )
 Number of active  orbitals:        1 (   0   0   1   0   0   0   0   0 )
 Number of external orbitals:     122 (  24  19  19  11  19  11  11   8 )

 Memory could be reduced to 2.82 Mwords without degradation in triples

 Number of N-1 electron functions:               7
 Number of N-2 electron functions:              21
 Number of singly external CSFs:               144
 Number of doubly external CSFs:             31947
 Total number of CSFs:                       32091

 Molecular orbitals read from record     2100.2  Type=RHF/CANONICAL (state 1.3)

 Integral transformation finished. Total CPU:   0.03 sec, npass=  1  Memory used:   0.44 MW

 Starting RMP2 calculation

 Wavefunction is spin-projected

 ITER.      SQ.NORM     CORR.ENERGY   TOTAL ENERGY   ENERGY CHANGE        DEN1      VAR(S)    VAR(P)  DIIS     TIME
   1      1.05957731    -0.17014626   -13.29169582    -0.17014626    -0.00066120  0.82D-05  0.28D-03  1  1     0.04
   2      1.06026920    -0.17086037   -13.29240993    -0.00071411    -0.00000069  0.59D-08  0.33D-06  2  2     0.04
   3      1.06028394    -0.17086872   -13.29241828    -0.00000835    -0.00000000  0.13D-10  0.64D-09  3  3     0.04
   4      1.06028410    -0.17086876   -13.29241832    -0.00000004    -0.00000000  0.76D-13  0.23D-11  4  4     0.05

 Norm of t1 vector:      0.03814953      S-energy:    -0.00289320      T1 diagnostic:  0.00006921
 Norm of t2 vector:      0.24254632      P-energy:    -0.16797556
                                         Alpha-Beta:  -0.13445674
                                         Alpha-Alpha: -0.02263060
                                         Beta-Beta:   -0.01088822

 Spin contamination <S**2-Sz**2-Sz>     0.00000000
  Reference energy                    -13.121549562948
  RHF-RMP2 correlation energy          -0.170868757395
 !RHF-RMP2 energy                     -13.292418320342
 (NB above energy spin projected)

 Starting RCCSD calculation

 ITER.      SQ.NORM     CORR.ENERGY   TOTAL ENERGY   ENERGY CHANGE        DEN1      VAR(S)    VAR(P)  DIIS     TIME
   1      1.06783784    -0.17953992   -13.30108948    -0.17953992    -0.00437431  0.25D-03  0.14D-02  1  1     0.12
   2      1.07314068    -0.18442487   -13.30597444    -0.00488496    -0.00012161  0.66D-05  0.43D-04  2  2     0.18
   3      1.07391496    -0.18482556   -13.30637513    -0.00040069    -0.00000644  0.71D-06  0.24D-05  3  3     0.25
   4      1.07408470    -0.18489178   -13.30644134    -0.00006622    -0.00000040  0.66D-07  0.17D-06  4  4     0.32
   5      1.07412343    -0.18490479   -13.30645435    -0.00001301    -0.00000002  0.58D-08  0.10D-07  5  5     0.37
   6      1.07412683    -0.18490452   -13.30645408     0.00000027    -0.00000000  0.49D-09  0.79D-09  6  6     0.43

 Norm of t1 vector:      0.04875237      S-energy:    -0.00337826      T1 diagnostic:  0.00465750
                                                                       D1 diagnostic:  0.00979256
 Norm of t2 vector:      0.26786197      P-energy:    -0.18152626
                                         Alpha-Beta:  -0.14879508
                                         Alpha-Alpha: -0.02208711
                                         Beta-Beta:   -0.01064407

 Spin contamination <S**2-Sz**2-Sz>     0.00000000

 Memory could be reduced to 2.88 Mwords without degradation in triples
 

 RESULTS
 =======

  Reference energy                    -13.121549562948
  RCCSD singles energy                 -0.003378260301
  RCCSD pair energy                    -0.181526260958
  RCCSD correlation energy             -0.184904521259
  Triples (T) contribution             -0.006702146137
  Total correlation energy             -0.191606667396
 
  RHF-RCCSD energy                    -13.306454084207
  RHF-RCCSD[T] energy                 -13.313097013264
  RHF-RCCSD-T energy                  -13.313155304582
 !RHF-RCCSD(T) energy                 -13.313156230344

 Program statistics:

 Available memory in ccsd:              7999999732
 Min. memory needed in ccsd:                147251
 Max. memory used in ccsd:                  179224
 Max. memory used in cckext:                174001 ( 6 integral passes)
 Max. memory used in cckint:                443719 ( 1 integral passes)



 **********************************************************************************************************************************
 DATASETS  * FILE   NREC   LENGTH (MB)   RECORD NAMES
              1      20       38.71       500      610      700      900      950      970     1000      129      960     1100   
                                          VAR    BASINP    GEOM    SYMINP    ZMAT    AOBASIS   BASIS     P2S    ABASIS      S 
                                         1400     1410     1420     1200     1210     1080     1600     1650     1300     1700   
                                         EKIN       V       ECP      H0       H01     AOSYM     SMH    MOLCAS    ERIS     OPER   

              2       4        2.83       700     1000      520     2100   
                                         GEOM     BASIS   MCVARS     RHF  

 PROGRAMS   *        TOTAL  RCCSD(T)        HF       INT
 CPU TIMES  *         3.89      0.71      0.17      2.91
 REAL TIME  *        15.22 SEC
 DISK USED  *        89.02 MB      
 **********************************************************************************************************************************
 SETTING POSTHF(I)      =       -13.31315623  AU                              
                                                                                                                                                                                                                                                                

        SCF            POSTHF       EKIN          POT
    -13.12154956   -13.31315623   4.60262186   -4.02526741
                                                  

 RCCSD(T)/USERDEF energy=    -13.313156230344

        RCCSD(T)        HF-SCF  
    -13.31315623    -13.12154956
 **********************************************************************************************************************************
 Molpro calculation terminated
 Variable memory released
