
 Primary working directories    : /global/cscratch1/sd/aannabe
 Secondary working directories  : /global/cscratch1/sd/aannabe
 Wavefunction directory         : /global/homes/a/aannabe/wfu/
 Main file repository           : /global/cscratch1/sd/aannabe/

 SHA1      : 2873118e99aab1bc19f5b6fc1784693c06d15c95
 NAME      : 2015.1.8
 ARCHNAME  : linux/x86_64
 FC        : /opt/cray/pe/craype/2.5.5/bin/ftn
 BLASLIB   : -Wl,-_start-group /opt/intel/compilers_and_libraries_2016.3.210/linux/mkl/lib/intel64/libmkl_intel_ilp64.a /opt/intel/compilers_and_libraries_2016.3.210/linux/mkl/lib/intel64/libmkl_intel_thread.a /opt/intel/compilers_and_libraries_2016.3.210/linux/mkl/lib/intel64/libmkl_core.a -Wl,-_end-group
 id        : lbl

 Nodes     nprocs
 nid00491     1

 Using customized tuning parameters: mindgm=8; mindgv=16; mindgc=4; mindgr=1; noblas=0; minvec=7
 default implementation of scratch files=df  

 ***,Zn
 memory,512,m
 gthresh,twoint=1.e-12
 
 gprint,basis,orbitals
 gexpec,ekin,pot
 
 angstrom
 geometry={
 1                                                                               ! Number of atoms
 Zn 0.0 0.0 0.0
 }
 
 basis={
 Including file /global/homes/a/aannabe/docs/accurate/ccECP_Kh/pps/Zn.pp
                                              !include,/global/homes/a/aannabe/docs/accurate/ccECP_Kh/basis/aug-cc-pVnZ/Zn_qz.basis
 Including file /global/homes/a/aannabe/docs/accurate/ccECP_Kh/basis/cc-pVnZ/Zn_qz.basis
 }
 
 {rhf
  start,5202.2
  wf,20,1,0
  occ,4,1,1,1,1,1,1,0
 }
 
 scf(i)=energy
 
 _CC_NORM_MAX=2.0
 {ci
 maxit,100
 core
 }
 posthf(i)=energy
 
 table,scf,posthf,ekin,pot
 save,4.csv,new
 
 

 Variables initialized (889), CPU time= 0.01 sec
 Commands  initialized (702), CPU time= 0.02 sec, 572 directives.
 Default parameters read. Elapsed time= 0.25 sec

 Checking input...
 Passed
1


                                         ***  PROGRAM SYSTEM MOLPRO  ***
                                       Copyright, TTI GmbH Stuttgart, 2015
                                    Version 2015.1 linked Sep  7 2016 23:09:38


 **********************************************************************************************************************************
 LABEL *   Zn                                                                            
  64 bit serial version                                                                  DATE: 13-Nov-18          TIME: 22:26:11  
 **********************************************************************************************************************************

 SHA1:             2873118e99aab1bc19f5b6fc1784693c06d15c95
 **********************************************************************************************************************************

 THRESHOLDS:

 ZERO    =  1.00D-12  ONEINT  =  1.00D-12  TWOINT  =  1.00D-12  PREFAC  =  1.00D-14  LOCALI  =  1.00D-09  EORDER  =  1.00D-04
 ENERGY  =  0.00D+00  ETEST   =  0.00D+00  EDENS   =  0.00D+00  THRDEDEF=  1.00D-06  GRADIENT=  1.00D-02  STEP    =  1.00D-03
 ORBITAL =  1.00D-05  CIVEC   =  1.00D-05  COEFF   =  1.00D-04  PRINTCI =  5.00D-02  PUNCHCI =  9.90D+01  OPTGRAD =  3.00D-04
 OPTENERG=  1.00D-06  OPTSTEP =  3.00D-04  THRGRAD =  1.00D-10  COMPRESS=  1.00D-11  VARMIN  =  1.00D-07  VARMAX  =  1.00D-03
 THRDOUB =  0.00D+00  THRDIV  =  1.00D-05  THRRED  =  1.00D-07  THRPSP  =  1.00D+00  THRDC   =  1.00D-10  THRCS   =  1.00D-10
 THRNRM  =  1.00D-08  THREQ   =  0.00D+00  THRDE   =  1.00D+00  THRREF  =  1.00D-05  SPARFAC =  1.00D+00  THRDLP  =  1.00D-07
 THRDIA  =  1.00D-10  THRDLS  =  1.00D-07  THRGPS  =  0.00D+00  THRKEX  =  0.00D+00  THRDIS  =  2.00D-01  THRVAR  =  1.00D-10
 THRLOC  =  1.00D-06  THRGAP  =  1.00D-06  THRLOCT = -1.00D+00  THRGAPT = -1.00D+00  THRORB  =  1.00D-06  THRMLTP =  0.00D+00
 THRCPQCI=  1.00D-10  KEXTA   =  0.00D+00  THRCOARS=  0.00D+00  SYMTOL  =  1.00D-06  GRADTOL =  1.00D-06  THROVL  =  1.00D-08
 THRORTH =  1.00D-08  GRID    =  1.00D-06  GRIDMAX =  1.00D-03  DTMAX   =  0.00D+00  THROCCDE=  1.00D-01  THROCCDE=  1.00D-01



 ZUNIT=ANG
 

Geometry recognized as XYZ


 Variable memory set to  512000000 words,  buffer space   230000 words

 SETTING BASIS          =    USERDEF


 Recomputing integrals since basis changed


 Using spherical harmonics



 PROGRAM * SEWARD (Integral evaluation for generally contracted gaussian basis sets)     Author: Roland Lindh, 1990

 Geometry written to block  1 of record 700

 Orientation using atomic masses  
 Molecule type: Atom
 Symmetry elements: X,Y,Z
 Rotational constants:       0.0000000      0.0000000      0.0000000 GHz  (calculated with average atomic masses)

 Point group  D2h 



 ATOMIC COORDINATES

 NR  ATOM    CHARGE       X              Y              Z

   1  ZN     20.00    0.000000000    0.000000000    0.000000000


          ZN  CORE POTENTIAL

          d POTENTIAL

 POWERS             1              3              2              2
 EXPONENTIALS   35.80798       34.53646       28.62830       7.962397    
 COEFFICIENTS   20.00000       716.1595      -204.6839      0.7602661    

          s - d POTENTIAL

 POWERS             2              2
 EXPONENTIALS   14.63499       35.02141    
 COEFFICIENTS   95.87640       431.7080    

          p - d POTENTIAL

 POWERS             2              2
 EXPONENTIALS   14.57429       42.22979    
 COEFFICIENTS   74.01270       313.5777    


 BASIS DATA

   Nr Sym  Nuc  Type         Exponents   Contraction coefficients

    1.1 Ag    1  1s         114.485022     0.000429   -0.000109    0.000666    0.000704    0.005614    0.000000
    2.1 Ag                   61.996430    -0.019339    0.004459    0.006269    0.012841   -0.066590    0.000000
    3.1 Ag                   40.117132     0.086254   -0.020067   -0.046603   -0.085910    0.242763    0.000000
    4.1 Ag                   20.119649    -0.088955    0.022338    0.050399    0.117982   -0.433968    0.000000
    5.1 Ag                   10.171676    -0.402671    0.096698    0.363493    0.630164   -0.799712    0.000000
    6.1 Ag                    5.601641     0.067304   -0.021966   -0.242840   -0.600344    1.542151    0.000000
                              2.864122     0.479215   -0.128768   -0.382281   -1.249060    3.080299    0.000000
                              1.592779     0.503960   -0.181706   -0.861567   -0.329498   -6.198250    0.000000
                              0.826525     0.222088   -0.162311    0.706077    2.592469    2.581766    0.000000
                              0.263975     0.012203    0.116264    1.495001   -1.004481    3.211988    0.000000
                              0.145302    -0.004300    0.411314   -0.453994   -1.379514   -4.767457    0.000000
                              0.068195     0.001243    0.494257   -0.597822    1.046842    1.676561    0.000000
                              0.031465    -0.000267    0.138103   -0.256117    0.324676    0.270909    1.000000
    7.1 Ag    1  1s           3.627705     1.000000
    8.1 Ag    1  1s           4.596407     1.000000
    9.1 Ag    1  3d0        270.014061    -0.000016
                            100.161579     0.000696
                             43.530609     0.013536
                             21.262419     0.069350
                             10.577821     0.149559
                              5.343620     0.239588
                              2.704857     0.286744
                              1.353018     0.271459
                              0.660873     0.202426
                              0.309149     0.103307
                              0.133879     0.023211
   10.1 Ag    1  3d2+       270.014061    -0.000016
                            100.161579     0.000696
                             43.530609     0.013536
                             21.262419     0.069350
                             10.577821     0.149559
                              5.343620     0.239588
                              2.704857     0.286744
                              1.353018     0.271459
                              0.660873     0.202426
                              0.309149     0.103307
                              0.133879     0.023211
   11.1 Ag    1  3d0        270.014061     0.000013
                            100.161579    -0.000889
                             43.530609    -0.018640
                             21.262419    -0.094646
                             10.577821    -0.215659
                              5.343620    -0.322469
                              2.704857    -0.197529
                              1.353018     0.164448
                              0.660873     0.410017
                              0.309149     0.327838
                              0.133879     0.105749
   12.1 Ag    1  3d2+       270.014061     0.000013
                            100.161579    -0.000889
                             43.530609    -0.018640
                             21.262419    -0.094646
                             10.577821    -0.215659
                              5.343620    -0.322469
                              2.704857    -0.197529
                              1.353018     0.164448
                              0.660873     0.410017
                              0.309149     0.327838
                              0.133879     0.105749
   13.1 Ag    1  3d0        270.014061     0.000007
                            100.161579     0.000868
                             43.530609     0.021631
                             21.262419     0.107748
                             10.577821     0.278997
                              5.343620     0.314543
                              2.704857    -0.241926
                              1.353018    -0.602415
                              0.660873    -0.118013
                              0.309149     0.545482
                              0.133879     0.363829
   14.1 Ag    1  3d2+       270.014061     0.000007
                            100.161579     0.000868
                             43.530609     0.021631
                             21.262419     0.107748
                             10.577821     0.278997
                              5.343620     0.314543
                              2.704857    -0.241926
                              1.353018    -0.602415
                              0.660873    -0.118013
                              0.309149     0.545482
                              0.133879     0.363829
   15.1 Ag    1  3d0        270.014061    -0.000088
                            100.161579    -0.000674
                             43.530609    -0.030726
                             21.262419    -0.143218
                             10.577821    -0.445330
                              5.343620    -0.136693
                              2.704857     0.927823
                              1.353018     0.143204
                              0.660873    -1.060202
                              0.309149     0.160452
                              0.133879     0.658542
   16.1 Ag    1  3d2+       270.014061    -0.000088
                            100.161579    -0.000674
                             43.530609    -0.030726
                             21.262419    -0.143218
                             10.577821    -0.445330
                              5.343620    -0.136693
                              2.704857     0.927823
                              1.353018     0.143204
                              0.660873    -1.060202
                              0.309149     0.160452
                              0.133879     0.658542
   17.1 Ag    1  3d0        270.014061     0.000000
                            100.161579     0.000000
                             43.530609     0.000000
                             21.262419     0.000000
                             10.577821     0.000000
                              5.343620     0.000000
                              2.704857     0.000000
                              1.353018     0.000000
                              0.660873     0.000000
                              0.309149     0.000000
                              0.133879     1.000000
   18.1 Ag    1  3d2+       270.014061     0.000000
                            100.161579     0.000000
                             43.530609     0.000000
                             21.262419     0.000000
                             10.577821     0.000000
                              5.343620     0.000000
                              2.704857     0.000000
                              1.353018     0.000000
                              0.660873     0.000000
                              0.309149     0.000000
                              0.133879     1.000000
   19.1 Ag    1  3d0          6.223852     1.000000
   20.1 Ag    1  3d2+         6.223852     1.000000
   21.1 Ag    1  3d0          5.872018     1.000000
   22.1 Ag    1  3d2+         5.872018     1.000000
   23.1 Ag    1  5g0          2.097503     1.000000
   24.1 Ag    1  5g4+         2.097503     1.000000
   25.1 Ag    1  5g2+         2.097503     1.000000
   26.1 Ag    1  5g0          7.061991     1.000000
   27.1 Ag    1  5g4+         7.061991     1.000000
   28.1 Ag    1  5g2+         7.061991     1.000000
   29.1 Ag    1  5g0          7.952907     1.000000
   30.1 Ag    1  5g4+         7.952907     1.000000
   31.1 Ag    1  5g2+         7.952907     1.000000
    1.2 B3u   1  2px        158.770986    -0.000153    0.000053   -0.000170   -0.000781   -0.000304    0.000000
    2.2 B3u                  75.802876     0.001893   -0.000571    0.000604    0.007855    0.000060    0.000000
    3.2 B3u                  44.547824     0.010461   -0.001073   -0.019987   -0.008671   -0.036931    0.000000
    4.2 B3u                  31.445269    -0.045141    0.007463    0.061153   -0.040553    0.146019    0.000000
    5.2 B3u                  13.080125    -0.084201    0.018676    0.067317   -0.200062    0.222104    0.000000
    6.2 B3u                   7.788616     0.104973   -0.028090   -0.139211    0.528599   -1.206310    0.000000
                              4.195040     0.307714   -0.054438   -0.527041    0.528552   -0.644084    0.000000
                              2.362276     0.368563   -0.093744   -0.176194    0.243576    2.398136    0.000000
                              1.302584     0.286336   -0.054169    0.037129   -1.807182   -0.304441    0.000000
                              0.660704     0.095156   -0.007972    1.079322    0.629496   -1.960894    0.000000
                              0.249042     0.005851    0.356198   -0.050149    1.137613    1.895400    0.000000
                              0.091781    -0.000034    0.412399   -0.688971   -1.067150   -0.821577    0.000000
                              0.048931     0.000252    0.361321    0.037331    0.022190   -0.132471    1.000000
    7.2 B3u   1  2px          3.439684     1.000000
    8.2 B3u   1  2px         10.763329     1.000000
    9.2 B3u   1  4f1+         0.881237     1.000000
   10.2 B3u   1  4f3+         0.881237     1.000000
   11.2 B3u   1  4f1+         2.855136     1.000000
   12.2 B3u   1  4f3+         2.855136     1.000000
   13.2 B3u   1  4f1+         9.250405     1.000000
   14.2 B3u   1  4f3+         9.250405     1.000000
   15.2 B3u   1  4f1+         5.193386     1.000000
   16.2 B3u   1  4f3+         5.193386     1.000000
   17.2 B3u   1  6h1+         4.405055     1.000000
   18.2 B3u   1  6h3+         4.405055     1.000000
   19.2 B3u   1  6h5+         4.405055     1.000000
   20.2 B3u   1  6h1+         9.808424     1.000000
   21.2 B3u   1  6h3+         9.808424     1.000000
   22.2 B3u   1  6h5+         9.808424     1.000000
    1.3 B2u   1  2py        158.770986    -0.000153    0.000053   -0.000170   -0.000781   -0.000304    0.000000
    2.3 B2u                  75.802876     0.001893   -0.000571    0.000604    0.007855    0.000060    0.000000
    3.3 B2u                  44.547824     0.010461   -0.001073   -0.019987   -0.008671   -0.036931    0.000000
    4.3 B2u                  31.445269    -0.045141    0.007463    0.061153   -0.040553    0.146019    0.000000
    5.3 B2u                  13.080125    -0.084201    0.018676    0.067317   -0.200062    0.222104    0.000000
    6.3 B2u                   7.788616     0.104973   -0.028090   -0.139211    0.528599   -1.206310    0.000000
                              4.195040     0.307714   -0.054438   -0.527041    0.528552   -0.644084    0.000000
                              2.362276     0.368563   -0.093744   -0.176194    0.243576    2.398136    0.000000
                              1.302584     0.286336   -0.054169    0.037129   -1.807182   -0.304441    0.000000
                              0.660704     0.095156   -0.007972    1.079322    0.629496   -1.960894    0.000000
                              0.249042     0.005851    0.356198   -0.050149    1.137613    1.895400    0.000000
                              0.091781    -0.000034    0.412399   -0.688971   -1.067150   -0.821577    0.000000
                              0.048931     0.000252    0.361321    0.037331    0.022190   -0.132471    1.000000
    7.3 B2u   1  2py          3.439684     1.000000
    8.3 B2u   1  2py         10.763329     1.000000
    9.3 B2u   1  4f1-         0.881237     1.000000
   10.3 B2u   1  4f3-         0.881237     1.000000
   11.3 B2u   1  4f1-         2.855136     1.000000
   12.3 B2u   1  4f3-         2.855136     1.000000
   13.3 B2u   1  4f1-         9.250405     1.000000
   14.3 B2u   1  4f3-         9.250405     1.000000
   15.3 B2u   1  4f1-         5.193386     1.000000
   16.3 B2u   1  4f3-         5.193386     1.000000
   17.3 B2u   1  6h1-         4.405055     1.000000
   18.3 B2u   1  6h3-         4.405055     1.000000
   19.3 B2u   1  6h5-         4.405055     1.000000
   20.3 B2u   1  6h1-         9.808424     1.000000
   21.3 B2u   1  6h3-         9.808424     1.000000
   22.3 B2u   1  6h5-         9.808424     1.000000
    1.4 B1g   1  3d2-       270.014061    -0.000016    0.000013    0.000007   -0.000088    0.000000
    2.4 B1g                 100.161579     0.000696   -0.000889    0.000868   -0.000674    0.000000
    3.4 B1g                  43.530609     0.013536   -0.018640    0.021631   -0.030726    0.000000
    4.4 B1g                  21.262419     0.069350   -0.094646    0.107748   -0.143218    0.000000
    5.4 B1g                  10.577821     0.149559   -0.215659    0.278997   -0.445330    0.000000
                              5.343620     0.239588   -0.322469    0.314543   -0.136693    0.000000
                              2.704857     0.286744   -0.197529   -0.241926    0.927823    0.000000
                              1.353018     0.271459    0.164448   -0.602415    0.143204    0.000000
                              0.660873     0.202426    0.410017   -0.118013   -1.060202    0.000000
                              0.309149     0.103307    0.327838    0.545482    0.160452    0.000000
                              0.133879     0.023211    0.105749    0.363829    0.658542    1.000000
    6.4 B1g   1  3d2-         6.223852     1.000000
    7.4 B1g   1  3d2-         5.872018     1.000000
    8.4 B1g   1  5g2-         2.097503     1.000000
    9.4 B1g   1  5g4-         2.097503     1.000000
   10.4 B1g   1  5g2-         7.061991     1.000000
   11.4 B1g   1  5g4-         7.061991     1.000000
   12.4 B1g   1  5g2-         7.952907     1.000000
   13.4 B1g   1  5g4-         7.952907     1.000000
    1.5 B1u   1  2pz        158.770986    -0.000153    0.000053   -0.000170   -0.000781   -0.000304    0.000000
    2.5 B1u                  75.802876     0.001893   -0.000571    0.000604    0.007855    0.000060    0.000000
    3.5 B1u                  44.547824     0.010461   -0.001073   -0.019987   -0.008671   -0.036931    0.000000
    4.5 B1u                  31.445269    -0.045141    0.007463    0.061153   -0.040553    0.146019    0.000000
    5.5 B1u                  13.080125    -0.084201    0.018676    0.067317   -0.200062    0.222104    0.000000
    6.5 B1u                   7.788616     0.104973   -0.028090   -0.139211    0.528599   -1.206310    0.000000
                              4.195040     0.307714   -0.054438   -0.527041    0.528552   -0.644084    0.000000
                              2.362276     0.368563   -0.093744   -0.176194    0.243576    2.398136    0.000000
                              1.302584     0.286336   -0.054169    0.037129   -1.807182   -0.304441    0.000000
                              0.660704     0.095156   -0.007972    1.079322    0.629496   -1.960894    0.000000
                              0.249042     0.005851    0.356198   -0.050149    1.137613    1.895400    0.000000
                              0.091781    -0.000034    0.412399   -0.688971   -1.067150   -0.821577    0.000000
                              0.048931     0.000252    0.361321    0.037331    0.022190   -0.132471    1.000000
    7.5 B1u   1  2pz          3.439684     1.000000
    8.5 B1u   1  2pz         10.763329     1.000000
    9.5 B1u   1  4f0          0.881237     1.000000
   10.5 B1u   1  4f2+         0.881237     1.000000
   11.5 B1u   1  4f0          2.855136     1.000000
   12.5 B1u   1  4f2+         2.855136     1.000000
   13.5 B1u   1  4f0          9.250405     1.000000
   14.5 B1u   1  4f2+         9.250405     1.000000
   15.5 B1u   1  4f0          5.193386     1.000000
   16.5 B1u   1  4f2+         5.193386     1.000000
   17.5 B1u   1  6h2+         4.405055     1.000000
   18.5 B1u   1  6h4+         4.405055     1.000000
   19.5 B1u   1  6h0          4.405055     1.000000
   20.5 B1u   1  6h2+         9.808424     1.000000
   21.5 B1u   1  6h4+         9.808424     1.000000
   22.5 B1u   1  6h0          9.808424     1.000000
    1.6 B2g   1  3d1+       270.014061    -0.000016    0.000013    0.000007   -0.000088    0.000000
    2.6 B2g                 100.161579     0.000696   -0.000889    0.000868   -0.000674    0.000000
    3.6 B2g                  43.530609     0.013536   -0.018640    0.021631   -0.030726    0.000000
    4.6 B2g                  21.262419     0.069350   -0.094646    0.107748   -0.143218    0.000000
    5.6 B2g                  10.577821     0.149559   -0.215659    0.278997   -0.445330    0.000000
                              5.343620     0.239588   -0.322469    0.314543   -0.136693    0.000000
                              2.704857     0.286744   -0.197529   -0.241926    0.927823    0.000000
                              1.353018     0.271459    0.164448   -0.602415    0.143204    0.000000
                              0.660873     0.202426    0.410017   -0.118013   -1.060202    0.000000
                              0.309149     0.103307    0.327838    0.545482    0.160452    0.000000
                              0.133879     0.023211    0.105749    0.363829    0.658542    1.000000
    6.6 B2g   1  3d1+         6.223852     1.000000
    7.6 B2g   1  3d1+         5.872018     1.000000
    8.6 B2g   1  5g1+         2.097503     1.000000
    9.6 B2g   1  5g3+         2.097503     1.000000
   10.6 B2g   1  5g1+         7.061991     1.000000
   11.6 B2g   1  5g3+         7.061991     1.000000
   12.6 B2g   1  5g1+         7.952907     1.000000
   13.6 B2g   1  5g3+         7.952907     1.000000
    1.7 B3g   1  3d1-       270.014061    -0.000016    0.000013    0.000007   -0.000088    0.000000
    2.7 B3g                 100.161579     0.000696   -0.000889    0.000868   -0.000674    0.000000
    3.7 B3g                  43.530609     0.013536   -0.018640    0.021631   -0.030726    0.000000
    4.7 B3g                  21.262419     0.069350   -0.094646    0.107748   -0.143218    0.000000
    5.7 B3g                  10.577821     0.149559   -0.215659    0.278997   -0.445330    0.000000
                              5.343620     0.239588   -0.322469    0.314543   -0.136693    0.000000
                              2.704857     0.286744   -0.197529   -0.241926    0.927823    0.000000
                              1.353018     0.271459    0.164448   -0.602415    0.143204    0.000000
                              0.660873     0.202426    0.410017   -0.118013   -1.060202    0.000000
                              0.309149     0.103307    0.327838    0.545482    0.160452    0.000000
                              0.133879     0.023211    0.105749    0.363829    0.658542    1.000000
    6.7 B3g   1  3d1-         6.223852     1.000000
    7.7 B3g   1  3d1-         5.872018     1.000000
    8.7 B3g   1  5g1-         2.097503     1.000000
    9.7 B3g   1  5g3-         2.097503     1.000000
   10.7 B3g   1  5g1-         7.061991     1.000000
   11.7 B3g   1  5g3-         7.061991     1.000000
   12.7 B3g   1  5g1-         7.952907     1.000000
   13.7 B3g   1  5g3-         7.952907     1.000000
    1.8 Au    1  4f2-         0.881237     1.000000
    2.8 Au    1  4f2-         2.855136     1.000000
    3.8 Au    1  4f2-         9.250405     1.000000
    4.8 Au    1  4f2-         5.193386     1.000000
    5.8 Au    1  6h4-         4.405055     1.000000
    6.8 Au    1  6h2-         4.405055     1.000000
    7.8 Au    1  6h4-         9.808424     1.000000
    8.8 Au    1  6h2-         9.808424     1.000000

 NUCLEAR CHARGE:                   20
 NUMBER OF PRIMITIVE AOS:         265
 NUMBER OF SYMMETRY AOS:          202
 NUMBER OF CONTRACTIONS:          144   (  31Ag  +  22B3u +  22B2u +  13B1g +  22B1u +  13B2g +  13B3g +   8Au  )
 NUMBER OF CORE ORBITALS:           4   (   1Ag  +   1B3u +   1B2u +   0B1g +   1B1u +   0B2g +   0B3g +   0Au  )
 NUMBER OF VALENCE ORBITALS:        6   (   3Ag  +   0B3u +   0B2u +   1B1g +   0B1u +   1B2g +   1B3g +   0Au  )


 NUCLEAR REPULSION ENERGY    0.00000000

 EXTRA SYMMETRY OF AOS IN SYMMETRY 1:   1 1 1 1 1 1 1 1 2 3   2 3 2 3 2 3 2 3 2 3   2 3 4 5 6 4 5 6 4 5   6
 EXTRA SYMMETRY OF AOS IN SYMMETRY 2:   1 1 1 1 1 1 1 1 2 3   2 3 2 3 2 3 4 5 6 4   5 6
 EXTRA SYMMETRY OF AOS IN SYMMETRY 3:   1 1 1 1 1 1 1 1 2 3   2 3 2 3 2 3 4 5 6 4   5 6
 EXTRA SYMMETRY OF AOS IN SYMMETRY 4:   1 1 1 1 1 1 1 2 3 2   3 2 3
 EXTRA SYMMETRY OF AOS IN SYMMETRY 5:   1 1 1 1 1 1 1 1 2 3   2 3 2 3 2 3 4 5 6 4   5 6
 EXTRA SYMMETRY OF AOS IN SYMMETRY 6:   1 1 1 1 1 1 1 2 3 2   3 2 3
 EXTRA SYMMETRY OF AOS IN SYMMETRY 7:   1 1 1 1 1 1 1 2 3 2   3 2 3
 EXTRA SYMMETRY OF AOS IN SYMMETRY 8:   1 1 1 1 2 3 2 3

 Eigenvalues of metric

         1 0.173E-03 0.173E-03 0.176E-03 0.725E-02 0.725E-02 0.725E-02 0.196E-01 0.227E-01
         2 0.150E-02 0.375E-01 0.375E-01 0.395E-01 0.140E+00 0.373E+00 0.373E+00 0.398E+00
         3 0.150E-02 0.375E-01 0.375E-01 0.395E-01 0.140E+00 0.373E+00 0.373E+00 0.398E+00
         4 0.173E-03 0.725E-02 0.725E-02 0.227E-01 0.491E-01 0.795E+00 0.795E+00 0.998E+00
         5 0.150E-02 0.375E-01 0.375E-01 0.395E-01 0.140E+00 0.373E+00 0.373E+00 0.398E+00
         6 0.173E-03 0.725E-02 0.725E-02 0.227E-01 0.491E-01 0.795E+00 0.795E+00 0.998E+00
         7 0.173E-03 0.725E-02 0.725E-02 0.227E-01 0.491E-01 0.795E+00 0.795E+00 0.998E+00
         8 0.375E-01 0.373E+00 0.398E+00 0.398E+00 0.103E+01 0.160E+01 0.160E+01 0.256E+01


 Contracted 2-electron integrals neglected if value below      1.0D-12
 AO integral compression algorithm  1   Integral accuracy      1.0D-12

     55.050 MB (compressed) written to integral file ( 59.5%)


 NUMBER OF SORTED TWO-ELECTRON INTEGRALS:    7063297.     BUFFER LENGTH:  32768
 NUMBER OF SEGMENTS:   1  SEGMENT LENGTH:    7063297      RECORD LENGTH: 524288

 Memory used in sort:       7.62 MW

 SORT1 READ    11599838. AND WROTE     4948094. INTEGRALS IN     15 RECORDS. CPU TIME:     0.37 SEC, REAL TIME:     0.53 SEC
 SORT2 READ     4948094. AND WROTE     7063297. INTEGRALS IN    210 RECORDS. CPU TIME:     0.30 SEC, REAL TIME:     0.56 SEC

 FILE SIZES:   FILE 1:    74.6 MBYTE,  FILE 4:    62.9 MBYTE,   TOTAL:    137.6 MBYTE

 OPERATOR DM      FOR CENTER  0  COORDINATES:    0.000000    0.000000    0.000000
 OPERATOR EKIN    FOR CENTER  0  COORDINATES:    0.000000    0.000000    0.000000
 OPERATOR POT     FOR CENTER  0  COORDINATES:    0.000000    0.000000    0.000000


 **********************************************************************************************************************************
 DATASETS  * FILE   NREC   LENGTH (MB)   RECORD NAMES
              1      20       52.30       500      610      700      900      950      970     1000      129      960     1100   
                                          VAR    BASINP    GEOM    SYMINP    ZMAT    AOBASIS   BASIS     P2S    ABASIS      S 
                                         1400     1410     1420     1200     1210     1080     1600     1650     1300     1700   
                                         EKIN       V       ECP      H0       H01     AOSYM     SMH    MOLCAS    ERIS     OPER   

 PROGRAMS   *        TOTAL       INT
 CPU TIMES  *         4.45      4.30
 REAL TIME  *         6.80 SEC
 DISK USED  *       137.91 MB      
 **********************************************************************************************************************************


 PROGRAM * RHF-SCF (CLOSED SHELL)       Authors: W. Meyer, H.-J. Werner


 NUMBER OF ELECTRONS:      10+   10-    SPACE SYMMETRY=1    SPIN SYMMETRY: Singlet 
 CONVERGENCE THRESHOLDS:    1.00E-05 (Density)    1.00E-07 (Energy)
 MAX. NUMBER OF ITERATIONS:       60
 INTERPOLATION TYPE:            DIIS
 INTERPOLATION STEPS:              2 (START)      1 (STEP)
 LEVEL SHIFTS:                  0.00 (CLOSED)  0.00 (OPEN) 

 Number of closed-shell orbitals:   10 (   4   1   1   1   1   1   1   0 )



   Atom=ZN basis=cc-pVTZ-PP        lmin=0  lmax=2

 Orbital guess generated from atomic densities. Full valence occupancy:    4   1   1   1   1   1   1   0


 Molecular orbital dump at record        2100.2

 ITERATION    DDIFF          GRAD             ENERGY        2-EL.EN.            DIPOLE MOMENTS         DIIS   ORB.
    1      0.000D+00      0.000D+00      -225.27256550    362.196854    0.00000    0.00000    0.00000    0    start
    2      0.000D+00      0.792D-02      -225.27220552    365.280068    0.00000    0.00000    0.00000    1    diag
    3      0.174D-02      0.801D-02      -225.27506196    363.600415    0.00000    0.00000    0.00000    2    diag
    4      0.880D-03      0.251D-03      -225.27506488    363.651255    0.00000    0.00000    0.00000    3    diag
    5      0.454D-04      0.110D-04      -225.27506489    363.648384    0.00000    0.00000    0.00000    4    diag
    6      0.127D-04      0.109D-05      -225.27506489    363.648139    0.00000    0.00000    0.00000    5    diag
    7      0.541D-05      0.345D-06      -225.27506489    363.647993    0.00000    0.00000    0.00000    0    orth

 Final occupancy:   4   1   1   1   1   1   1   0

 !RHF STATE 1.1 Energy               -225.275064894284
 Nuclear energy                         0.00000000
 One-electron energy                 -407.09906137
 Two-electron energy                  181.82399648
 Virial quotient                       -1.50081708
 !RHF STATE 1.1 Dipole moment           0.00000000     0.00000000     0.00000000
 Dipole moment /Debye                   0.00000000     0.00000000     0.00000000
 

 !RHF expec          <1.1|EKIN|1.1>   150.101612945117
 
 !RHF expec           <1.1|POT|1.1>   -28.852516724785

 ELECTRON ORBITALS
 =================


   Orb  Occ    Energy  Couls-En    Coefficients

                                   1 1s      1 1s      1 1s      1 1s      1 1s      1 1s      1 1s      1 1s      1 3d0     1 3d2+ 
                                   1 3d0     1 3d2+    1 3d0     1 3d2+    1 3d0     1 3d2+    1 3d0     1 3d2+    1 3d0     1 3d2+ 
                                   1 3d0     1 3d2+    1 5g0     1 5g4+    1 5g2+    1 5g0     1 5g4+    1 5g2+    1 5g0     1 5g4+ 
                                   1 5g2+ 

   1.1   2    -5.8440  -31.7532  0.999971  0.000009  0.000002  0.000005  0.000003 -0.000008  0.000143 -0.000118 -0.000000 -0.000000
                                -0.000000 -0.000000 -0.000000 -0.000000 -0.000000 -0.000000  0.000000  0.000000 -0.000000 -0.000000
                                 0.000000  0.000000  0.000000 -0.000000  0.000000 -0.000000  0.000000 -0.000000  0.000000 -0.000000
                                 0.000000

   2.1   2    -0.7633  -20.3819 -0.000000  0.000000 -0.000000  0.000000  0.000000 -0.000000  0.000000 -0.000000  0.999991 -0.004715
                                 0.000004 -0.000000  0.000002 -0.000000  0.000003 -0.000000 -0.000004  0.000000  0.000025 -0.000000
                                -0.000026  0.000000  0.000000  0.000000 -0.000000 -0.000000 -0.000000  0.000000  0.000000  0.000000
                                -0.000000

   3.1   2    -0.7633  -20.3819 -0.000000  0.000000  0.000000  0.000000  0.000000 -0.000000  0.000000 -0.000000  0.004715  0.999991
                                 0.000000  0.000004  0.000000  0.000002  0.000000  0.000003 -0.000000 -0.000004  0.000000  0.000025
                                -0.000000 -0.000026  0.000000 -0.000000  0.000000 -0.000000 -0.000000 -0.000000  0.000000  0.000000
                                 0.000000

   4.1   2    -0.2984   -8.3520  0.000008  0.999992  0.000004 -0.000004 -0.000003  0.000008 -0.000054  0.000047 -0.000000 -0.000000
                                -0.000000 -0.000000 -0.000000 -0.000000 -0.000000  0.000000  0.000000  0.000000 -0.000000  0.000000
                                 0.000000 -0.000000 -0.000000  0.000000 -0.000000  0.000000 -0.000000  0.000000 -0.000000  0.000000
                                -0.000000

                                   1 2px     1 2px     1 2px     1 2px     1 2px     1 2px     1 2px     1 2px     1 4f1+    1 4f3+ 
                                   1 4f1+    1 4f3+    1 4f1+    1 4f3+    1 4f1+    1 4f3+    1 6h1+    1 6h3+    1 6h5+    1 6h1+ 
                                   1 6h3+    1 6h5+ 

   1.2   2    -3.9222  -27.7534  0.999952  0.014574  0.010735 -0.000333 -0.001041 -0.005848  0.000542 -0.000112 -0.000000  0.000000
                                -0.000000  0.000000 -0.000000  0.000000  0.000000 -0.000000  0.000000 -0.000000  0.000000 -0.000000
                                 0.000000 -0.000000

                                   1 2py     1 2py     1 2py     1 2py     1 2py     1 2py     1 2py     1 2py     1 4f1-    1 4f3- 
                                   1 4f1-    1 4f3-    1 4f1-    1 4f3-    1 4f1-    1 4f3-    1 6h1-    1 6h3-    1 6h5-    1 6h1- 
                                   1 6h3-    1 6h5- 

   1.3   2    -3.9222  -27.7534  0.999952  0.014574  0.010735 -0.000333 -0.001041 -0.005848  0.000542 -0.000112 -0.000000 -0.000000
                                -0.000000 -0.000000 -0.000000 -0.000000  0.000000  0.000000  0.000000 -0.000000  0.000000 -0.000000
                                -0.000000 -0.000000

                                   1 3d2-    1 3d2-    1 3d2-    1 3d2-    1 3d2-    1 3d2-    1 3d2-    1 5g2-    1 5g4-    1 5g2- 
                                   1 5g4-    1 5g2-    1 5g4- 

   1.4   2    -0.7633  -20.3819  1.000002  0.000004  0.000002  0.000003 -0.000004  0.000025 -0.000026  0.000000 -0.000000 -0.000000
                                -0.000000  0.000000 -0.000000

                                   1 2pz     1 2pz     1 2pz     1 2pz     1 2pz     1 2pz     1 2pz     1 2pz     1 4f0     1 4f2+ 
                                   1 4f0     1 4f2+    1 4f0     1 4f2+    1 4f0     1 4f2+    1 6h2+    1 6h4+    1 6h0     1 6h2+ 
                                   1 6h4+    1 6h0  

   1.5   2    -3.9222  -27.7534  0.999952  0.014574  0.010735 -0.000333 -0.001041 -0.005848  0.000542 -0.000112  0.000000 -0.000000
                                -0.000000  0.000000 -0.000000  0.000000  0.000000 -0.000000 -0.000000 -0.000000  0.000000  0.000000
                                 0.000000 -0.000000

                                   1 3d1+    1 3d1+    1 3d1+    1 3d1+    1 3d1+    1 3d1+    1 3d1+    1 5g1+    1 5g3+    1 5g1+ 
                                   1 5g3+    1 5g1+    1 5g3+ 

   1.6   2    -0.7633  -20.3819  1.000002  0.000004  0.000002  0.000003 -0.000004  0.000025 -0.000026 -0.000000  0.000000  0.000000
                                -0.000000 -0.000000  0.000000

                                   1 3d1-    1 3d1-    1 3d1-    1 3d1-    1 3d1-    1 3d1-    1 3d1-    1 5g1-    1 5g3-    1 5g1- 
                                   1 5g3-    1 5g1-    1 5g3- 

   1.7   2    -0.7633  -20.3819  1.000002  0.000004  0.000002  0.000003 -0.000004  0.000025 -0.000026 -0.000000 -0.000000  0.000000
                                 0.000000 -0.000000 -0.000000

 HOMO      4.1    -0.298375 =      -8.1192eV
 LUMO      2.2     0.055814 =       1.5188eV
 LUMO-HOMO         0.354189 =       9.6380eV


 **********************************************************************************************************************************
 DATASETS  * FILE   NREC   LENGTH (MB)   RECORD NAMES
              1      20       52.30       500      610      700      900      950      970     1000      129      960     1100   
                                          VAR    BASINP    GEOM    SYMINP    ZMAT    AOBASIS   BASIS     P2S    ABASIS      S 
                                         1400     1410     1420     1200     1210     1080     1600     1650     1300     1700   
                                         EKIN       V       ECP      H0       H01     AOSYM     SMH    MOLCAS    ERIS     OPER   

              2       4        2.84       700     1000      520     2100   
                                         GEOM     BASIS   MCVARS     RHF  

 PROGRAMS   *        TOTAL       RHF       INT
 CPU TIMES  *         4.68      0.23      4.30
 REAL TIME  *         7.22 SEC
 DISK USED  *       137.91 MB      
 **********************************************************************************************************************************
 SETTING SCF(I)         =      -225.27506489  AU                              
 SETTING _CC_NORM_MAX   =         2.00000000                                  


 PROGRAM * CI (Multireference internally contracted CI)     Authors: H.-J. Werner, P.J. Knowles, 1987


 Convergence thresholds:  THRVAR = 1.00D-08  THRDEN = 1.00D-06

 Number of optimized states:  1  Roots:   1
 Number of reference states:  1  Roots:   1

 Reference symmetry:                   1   Singlet 
 Number of electrons:                 20
 Maximum number of shells:             3
 Maximum number of spin couplings:     2

 Reference space:        1 conf        1 CSFs
 N elec internal:        1 conf        1 CSFs
 N-1 el internal:       10 conf       10 CSFs
 N-2 el internal:       55 conf      100 CSFs

 Number of electrons in valence space:                     20
 Maximum number of open shell orbitals in reference space:  0
 Maximum number of open shell orbitals in internal spaces:  4


 Number of closed-shell orbitals:  10 (   4   1   1   1   1   1   1   0 )
 Number of external orbitals:     134 (  27  21  21  12  21  12  12   8 )

 Molecular orbitals read from record     2100.2  Type=RHF/CANONICAL (state 1.1)

 Integral transformation finished. Total CPU:   0.09 sec, npass=  1  Memory used:   0.21 MW

 Number of p-space configurations:   1

 Reference wavefunction optimized for reference space (refopt=1)

 State     Reference Energy 
   1        -225.27506489

 Number of blocks in overlap matrix:   100   Smallest eigenvalue:  0.10D+01
 Number of N-2 electron functions:     100
 Number of N-1 electron functions:      10

 Number of internal configurations:                    1
 Number of singly external configurations:           207
 Number of doubly external configurations:        115314
 Total number of contracted configurations:       115522
 Total number of uncontracted configurations:     115522

 Diagonal Coupling coefficients finished.               Storage:    8706 words, CPU-Time:      0.00 seconds.
 Energy denominators for pairs finished in 1 passes.    Storage:   65092 words, CPU-time:      0.00 seconds.

  ITER. STATE  ROOT     SQ.NORM     CORR.ENERGY   TOTAL ENERGY   ENERGY CHANGE       DEN1      VAR(S)    VAR(P)      TIME
    1     1     1     1.00000000     0.00000000  -225.27506489    -0.00000000    -1.12121650  0.68D-11  0.13D+00     0.12
    2     1     1     1.08223200    -0.87671392  -226.15177881    -0.87671392    -0.03896680  0.19D-02  0.48D-02     0.36
    3     1     1     1.07119969    -0.91000062  -226.18506551    -0.03328670    -0.00132975  0.13D-03  0.27D-03     0.60
    4     1     1     1.06934237    -0.91116369  -226.18622858    -0.00116307    -0.00006656  0.78D-05  0.11D-04     0.82
    5     1     1     1.06918086    -0.91122734  -226.18629224    -0.00006365    -0.00000265  0.10D-06  0.41D-06     1.04
    6     1     1     1.06924097    -0.91122992  -226.18629481    -0.00000257    -0.00000006  0.25D-08  0.90D-08     1.26
    7     1     1     1.06924648    -0.91122998  -226.18629487    -0.00000006    -0.00000000  0.13D-09  0.30D-09     1.49


 =====================================
 Analysis of CPU times by interactions
 =====================================

       I      S      P

 I   0.0%
 S   0.0%   0.7%
 P   0.7%   0.7%  29.5%

 Initialization:   8.1%
 Other:           60.4%

 Total CPU:        1.5 seconds
 =====================================



 Reference coefficients greater than 0.0500000
 =============================================
 2222222222           0.9670771



 RESULTS FOR STATE 1.1
 =====================

 Coefficient of reference function:   C(0) = 0.96707707 (fixed)   0.96707707 (relaxed)

 Energy contributions of configuration classes

 CLASS          SQ.NORM        ECORR1        ECORR2
 +++++++++++++++++++++++++++++++++++++++++++++++++++
 Internals    0.00000000    0.00000000    0.00000000
 Singles      0.00138220    0.00000006   -0.00117797
 Pairs        0.06786428   -0.91123003   -0.91005201
 Total        1.06924648   -0.91122998   -0.91122998
 +++++++++++++++++++++++++++++++++++++++++++++++++++


 Reference energy                    -225.27506489
 Nuclear energy                         0.00000000
 Kinetic energy                       150.56314977
 One electron energy                 -406.03042157
 Two electron energy                  179.84412670
 Virial quotient                       -1.50226862
 Correlation energy                    -0.91122998
 !CI(SD) STATE 1.1 Energy            -226.186294870602

 Properties without orbital relaxation:

 !CI(SD) STATE 1.1 Dipole moment        0.00000000     0.00000000     0.00000000
 Dipole moment /Debye                   0.00000000     0.00000000     0.00000000

 Cluster corrected energies          -226.24939434 (Davidson, fixed reference)
 Cluster corrected energies          -226.24939434 (Davidson, relaxed reference)

 Cluster corrected energies          -226.24638582 (Pople, fixed reference)
 Cluster corrected energies          -226.24638582 (Pople, relaxed reference)

 

 !CI(SD) expec       <1.1|EKIN|1.1>   150.563149765373
 
 !CI(SD) expec        <1.1|POT|1.1>   -28.827064875624


 **********************************************************************************************************************************
 DATASETS  * FILE   NREC   LENGTH (MB)   RECORD NAMES
              1      21       54.20       500      610      700      900      950      970     1000      129      960     1100   
                                          VAR    BASINP    GEOM    SYMINP    ZMAT    AOBASIS   BASIS     P2S    ABASIS      S 
                                         1400     1410     1420     1200     1210     1080     1600     1650     1300     1700   
                                         EKIN       V       ECP      H0       H01     AOSYM     SMH    MOLCAS    ERIS     OPER   
                                         1380   
                                         JKOP   

              2       4        2.84       700     1000      520     2100   
                                         GEOM     BASIS   MCVARS     RHF  

 PROGRAMS   *        TOTAL        CI       RHF       INT
 CPU TIMES  *         6.25      1.56      0.23      4.30
 REAL TIME  *         9.66 SEC
 DISK USED  *       137.91 MB      
 **********************************************************************************************************************************
 SETTING POSTHF(I)      =      -226.18629487  AU                              
                                                                                                                                                                                                                                                                

         SCF            POSTHF        EKIN          POT
    -225.2750649   -226.1862949   150.5631498   -28.82706488
                                                  

 CI/USERDEF energy=   -226.186294870602

        CI              RHF-SCF 
   -226.18629487   -225.27506489
 **********************************************************************************************************************************
 Variable memory released
