
 Primary working directories    : /global/cscratch1/sd/aannabe
 Secondary working directories  : /global/cscratch1/sd/aannabe
 Wavefunction directory         : /global/homes/a/aannabe/wfu/
 Main file repository           : /global/cscratch1/sd/aannabe/

 SHA1      : 2873118e99aab1bc19f5b6fc1784693c06d15c95
 NAME      : 2015.1.8
 ARCHNAME  : linux/x86_64
 FC        : /opt/cray/pe/craype/2.5.5/bin/ftn
 BLASLIB   : -Wl,-_start-group /opt/intel/compilers_and_libraries_2016.3.210/linux/mkl/lib/intel64/libmkl_intel_ilp64.a /opt/intel/compilers_and_libraries_2016.3.210/linux/mkl/lib/intel64/libmkl_intel_thread.a /opt/intel/compilers_and_libraries_2016.3.210/linux/mkl/lib/intel64/libmkl_core.a -Wl,-_end-group
 id        : lbl

 Nodes     nprocs
 nid00456     1

 Using customized tuning parameters: mindgm=8; mindgv=16; mindgc=4; mindgr=1; noblas=0; minvec=7
 default implementation of scratch files=df  

 ***,Cl
 memory,512,m
 gthresh,twoint=1.e-12
 
 gprint,basis,orbitals
 gexpec,ekin,pot
 
 angstrom
 geometry={
 1                                                                               ! Number of atoms
 Cl 0.0 0.0 0.0
 }
 
 basis={
 Including file /global/homes/a/aannabe/docs/accurate/ccECP_Kh/pps/Cl.pp
 Including file /global/homes/a/aannabe/docs/accurate/ccECP_Kh/basis/aug-cc-pVnZ/Cl_dz.basis
 }
 
 {rhf
  start,atden
  wf,7,3,1
  occ,1,1,1,0,1,0,0,0
  open,1.3
  orbital,4202.2
 }
 {multi
  maxiter,40
  start,4202.2
  occ,1,1,1,0,1,0,0,0
  closed,1,0,0,0,0,0,0
  wf,7,3,1;state,1
  wf,7,5,1;state,1
  wf,7,2,1;state,1
  natorb,ci,print
  orbital,5202.2
 }
 {rhf,nitord=1,maxit=0
  start,5202.2
  wf,7,3,1
  occ,1,1,1,0,1,0,0,0
  open,1.3
 }
 
 scf(i)=energy
 
 _CC_NORM_MAX=2.0
 {rccsd(t)
 maxit,100
 core
 }
 posthf(i)=energy
 
 table,scf,posthf,ekin,pot
 save,2.csv,new
 
 

 Variables initialized (889), CPU time= 0.00 sec
 Commands  initialized (702), CPU time= 0.01 sec, 572 directives.
 Default parameters read. Elapsed time= 0.19 sec

 Checking input...
 Passed
1


                                         ***  PROGRAM SYSTEM MOLPRO  ***
                                       Copyright, TTI GmbH Stuttgart, 2015
                                    Version 2015.1 linked Sep  7 2016 23:09:38


 **********************************************************************************************************************************
 LABEL *   Cl                                                                            
  64 bit serial version                                                                  DATE: 30-Oct-18          TIME: 20:20:53  
 **********************************************************************************************************************************

 SHA1:             2873118e99aab1bc19f5b6fc1784693c06d15c95
 **********************************************************************************************************************************

 THRESHOLDS:

 ZERO    =  1.00D-12  ONEINT  =  1.00D-12  TWOINT  =  1.00D-12  PREFAC  =  1.00D-14  LOCALI  =  1.00D-09  EORDER  =  1.00D-04
 ENERGY  =  0.00D+00  ETEST   =  0.00D+00  EDENS   =  0.00D+00  THRDEDEF=  1.00D-06  GRADIENT=  1.00D-02  STEP    =  1.00D-03
 ORBITAL =  1.00D-05  CIVEC   =  1.00D-05  COEFF   =  1.00D-04  PRINTCI =  5.00D-02  PUNCHCI =  9.90D+01  OPTGRAD =  3.00D-04
 OPTENERG=  1.00D-06  OPTSTEP =  3.00D-04  THRGRAD =  1.00D-10  COMPRESS=  1.00D-11  VARMIN  =  1.00D-07  VARMAX  =  1.00D-03
 THRDOUB =  0.00D+00  THRDIV  =  1.00D-05  THRRED  =  1.00D-07  THRPSP  =  1.00D+00  THRDC   =  1.00D-10  THRCS   =  1.00D-10
 THRNRM  =  1.00D-08  THREQ   =  0.00D+00  THRDE   =  1.00D+00  THRREF  =  1.00D-05  SPARFAC =  1.00D+00  THRDLP  =  1.00D-07
 THRDIA  =  1.00D-10  THRDLS  =  1.00D-07  THRGPS  =  0.00D+00  THRKEX  =  0.00D+00  THRDIS  =  2.00D-01  THRVAR  =  1.00D-10
 THRLOC  =  1.00D-06  THRGAP  =  1.00D-06  THRLOCT = -1.00D+00  THRGAPT = -1.00D+00  THRORB  =  1.00D-06  THRMLTP =  0.00D+00
 THRCPQCI=  1.00D-10  KEXTA   =  0.00D+00  THRCOARS=  0.00D+00  SYMTOL  =  1.00D-06  GRADTOL =  1.00D-06  THROVL  =  1.00D-08
 THRORTH =  1.00D-08  GRID    =  1.00D-06  GRIDMAX =  1.00D-03  DTMAX   =  0.00D+00  THROCCDE=  1.00D-01  THROCCDE=  1.00D-01



 ZUNIT=ANG
 

Geometry recognized as XYZ


 Variable memory set to  512000000 words,  buffer space   230000 words

 SETTING BASIS          =    USERDEF


 Recomputing integrals since basis changed


 Using spherical harmonics



 PROGRAM * SEWARD (Integral evaluation for generally contracted gaussian basis sets)     Author: Roland Lindh, 1990

 Geometry written to block  1 of record 700

 Orientation using atomic masses  
 Molecule type: Atom
 Symmetry elements: X,Y,Z
 Rotational constants:       0.0000000      0.0000000      0.0000000 GHz  (calculated with average atomic masses)

 Point group  D2h 



 ATOMIC COORDINATES

 NR  ATOM    CHARGE       X              Y              Z

   1  CL      7.00    0.000000000    0.000000000    0.000000000


          CL  CORE POTENTIAL

          d POTENTIAL

 POWERS             1              3              2
 EXPONENTIALS   7.944352       12.80126       6.296744    
 COEFFICIENTS   7.000000       55.61046      -22.86078    

          s - d POTENTIAL

 POWERS             2              2
 EXPONENTIALS   17.90843       4.159880    
 COEFFICIENTS   15.83923       44.46950    

          p - d POTENTIAL

 POWERS             2              2
 EXPONENTIALS   7.931763       3.610412    
 COEFFICIENTS   8.321946       24.04474    


 BASIS DATA

   Nr Sym  Nuc  Type         Exponents   Contraction coefficients

    1.1 Ag    1  1s          15.583847     0.002501
                              8.858485    -0.010046
                              5.035519     0.085810
                              2.862391    -0.290136
                              1.627098    -0.140314
                              0.924908     0.146839
                              0.525755     0.392484
                              0.298860     0.425061
                              0.169884     0.227195
                              0.096569     0.059828
    2.1 Ag    1  1s           0.648040     1.000000
    3.1 Ag    1  1s           0.151979     1.000000
    4.1 Ag    1  3d0          0.633222     1.000000
    5.1 Ag    1  3d2+         0.633222     1.000000
    6.1 Ag    1  3d0          0.211734     1.000000
    7.1 Ag    1  3d2+         0.211734     1.000000
    1.2 B3u   1  2px          7.682894    -0.004609
                              4.507558    -0.001798
                              2.644587    -0.068614
                              1.551581     0.062352
                              0.910313     0.166337
                              0.534081     0.282292
                              0.313346     0.275967
                              0.183840     0.241328
                              0.107859     0.110223
                              0.063281     0.040289
    2.2 B3u   1  2px          0.633351     1.000000
    3.2 B3u   1  2px          0.405005     1.000000
    1.3 B2u   1  2py          7.682894    -0.004609
                              4.507558    -0.001798
                              2.644587    -0.068614
                              1.551581     0.062352
                              0.910313     0.166337
                              0.534081     0.282292
                              0.313346     0.275967
                              0.183840     0.241328
                              0.107859     0.110223
                              0.063281     0.040289
    2.3 B2u   1  2py          0.633351     1.000000
    3.3 B2u   1  2py          0.405005     1.000000
    1.4 B1g   1  3d2-         0.633222     1.000000
    2.4 B1g   1  3d2-         0.211734     1.000000
    1.5 B1u   1  2pz          7.682894    -0.004609
                              4.507558    -0.001798
                              2.644587    -0.068614
                              1.551581     0.062352
                              0.910313     0.166337
                              0.534081     0.282292
                              0.313346     0.275967
                              0.183840     0.241328
                              0.107859     0.110223
                              0.063281     0.040289
    2.5 B1u   1  2pz          0.633351     1.000000
    3.5 B1u   1  2pz          0.405005     1.000000
    1.6 B2g   1  3d1+         0.633222     1.000000
    2.6 B2g   1  3d1+         0.211734     1.000000
    1.7 B3g   1  3d1-         0.633222     1.000000
    2.7 B3g   1  3d1-         0.211734     1.000000

 NUCLEAR CHARGE:                    7
 NUMBER OF PRIMITIVE AOS:          60
 NUMBER OF SYMMETRY AOS:           58
 NUMBER OF CONTRACTIONS:           22   (   7Ag  +   3B3u +   3B2u +   2B1g +   3B1u +   2B2g +   2B3g +   0Au  )
 NUMBER OF CORE ORBITALS:           0   (   0Ag  +   0B3u +   0B2u +   0B1g +   0B1u +   0B2g +   0B3g +   0Au  )
 NUMBER OF VALENCE ORBITALS:        4   (   1Ag  +   1B3u +   1B2u +   0B1g +   1B1u +   0B2g +   0B3g +   0Au  )


 NUCLEAR REPULSION ENERGY    0.00000000

 EXTRA SYMMETRY OF AOS IN SYMMETRY 1:   1 1 1 2 3 2 3

 Eigenvalues of metric

         1 0.392E-01 0.316E+00 0.394E+00 0.394E+00 0.161E+01 0.161E+01 0.265E+01
         2 0.185E-01 0.108E+00 0.287E+01
         3 0.185E-01 0.108E+00 0.287E+01
         4 0.394E+00 0.161E+01
         5 0.185E-01 0.108E+00 0.287E+01
         6 0.394E+00 0.161E+01
         7 0.394E+00 0.161E+01


 Contracted 2-electron integrals neglected if value below      1.0D-12
 AO integral compression algorithm  1   Integral accuracy      1.0D-12

     0.262 MB (compressed) written to integral file (100.0%)


 NUMBER OF SORTED TWO-ELECTRON INTEGRALS:       5272.     BUFFER LENGTH:  32768
 NUMBER OF SEGMENTS:   1  SEGMENT LENGTH:       5272      RECORD LENGTH: 524288

 Memory used in sort:       0.56 MW

 SORT1 READ       12220. AND WROTE        4734. INTEGRALS IN      1 RECORDS. CPU TIME:     0.00 SEC, REAL TIME:     0.01 SEC
 SORT2 READ        4734. AND WROTE        5272. INTEGRALS IN      1 RECORDS. CPU TIME:     0.00 SEC, REAL TIME:     0.01 SEC

 FILE SIZES:   FILE 1:    19.3 MBYTE,  FILE 4:     4.2 MBYTE,   TOTAL:     23.6 MBYTE

 OPERATOR DM      FOR CENTER  0  COORDINATES:    0.000000    0.000000    0.000000
 OPERATOR EKIN    FOR CENTER  0  COORDINATES:    0.000000    0.000000    0.000000
 OPERATOR POT     FOR CENTER  0  COORDINATES:    0.000000    0.000000    0.000000


 **********************************************************************************************************************************
 DATASETS  * FILE   NREC   LENGTH (MB)   RECORD NAMES
              1      20       19.12       500      610      700      900      950      970     1000      129      960     1100   
                                          VAR    BASINP    GEOM    SYMINP    ZMAT    AOBASIS   BASIS     P2S    ABASIS      S 
                                         1400     1410     1420     1200     1210     1080     1600     1650     1300     1700   
                                         EKIN       V       ECP      H0       H01     AOSYM     SMH    MOLCAS    ERIS     OPER   

 PROGRAMS   *        TOTAL       INT
 CPU TIMES  *         0.36      0.23
 REAL TIME  *         2.08 SEC
 DISK USED  *        23.83 MB      
 **********************************************************************************************************************************


 PROGRAM * RHF-SCF (OPEN SHELL)       Authors: W. Meyer, H.-J. Werner


 NUMBER OF ELECTRONS:       4+    3-    SPACE SYMMETRY=3    SPIN SYMMETRY: Doublet 
 CONVERGENCE THRESHOLDS:    1.00E-05 (Density)    1.00E-07 (Energy)
 MAX. NUMBER OF ITERATIONS:       60
 INTERPOLATION TYPE:            DIIS
 INTERPOLATION STEPS:              2 (START)      1 (STEP)
 LEVEL SHIFTS:                 -0.60 (CLOSED) -0.30 (OPEN) 


 Singly occupied orbitals:      1.3

   Atom=CL basis=ECP10MWB_GUESS    lmin=0  lmax=1

 Orbital guess generated from atomic densities. Full valence occupancy:    1   1   1   0   1   0   0   0


 Molecular orbital dump at record        4202.2

 ITERATION    DDIFF          GRAD             ENERGY        2-EL.EN.            DIPOLE MOMENTS         DIIS   ORB.
    1      0.000D+00      0.000D+00       -14.68816423     19.829451    0.00000    0.00000    0.00000    0    start
    2      0.000D+00      0.880D-02       -14.68976780     19.962720    0.00000    0.00000    0.00000    1    diag,B
    3      0.248D-01      0.215D-02       -14.68991037     19.993510    0.00000    0.00000    0.00000    2    diag,B
    4      0.922D-02      0.603D-03       -14.68992151     19.995567    0.00000    0.00000    0.00000    3    diag,B
    5      0.272D-02      0.789D-04       -14.68992169     19.995315    0.00000    0.00000    0.00000    4    diag,B
    6      0.275D-03      0.145D-04       -14.68992169     19.995179    0.00000    0.00000    0.00000    5    diag,B
    7      0.872D-04      0.209D-05       -14.68992169     19.995170    0.00000    0.00000    0.00000    6    fixocc
    8      0.140D-04      0.262D-06       -14.68992169     19.995173    0.00000    0.00000    0.00000    7    diag,B
    9      0.743D-06      0.359D-07       -14.68992169     19.995172    0.00000    0.00000    0.00000    0    orth

 Final alpha occupancy:   1   1   1   0   1   0   0
 Final beta  occupancy:   1   1   0   0   1   0   0

 !RHF STATE 1.3 Energy                -14.689921690246
 Nuclear energy                         0.00000000
 One-electron energy                  -24.68750768
 Two-electron energy                    9.99758599
 Virial quotient                       -2.67272336
 !RHF STATE 1.3 Dipole moment           0.00000000     0.00000000     0.00000000
 Dipole moment /Debye                   0.00000000     0.00000000     0.00000000
 

 !RHF expec          <1.3|EKIN|1.3>     5.496237247914
 
 !RHF expec           <1.3|POT|1.3>    -4.697999571120

 ELECTRON ORBITALS
 =================


   Orb  Occ    Energy  Couls-En    Coefficients

                                   1 1s      1 1s      1 1s      1 3d0     1 3d2+    1 3d0     1 3d2+ 

   1.1   2    -1.0799   -5.0931  1.000059  0.000030 -0.000104  0.000071  0.000123  0.002526  0.004376

                                   1 2px     1 2px     1 2px  

   1.2   2    -0.4905   -3.8175  1.016263 -0.006048 -0.011155

                                   1 2py     1 2py     1 2py  

   1.3   +    -0.5704   -3.9235  0.935559  0.025001  0.043009

                                   1 2pz     1 2pz     1 2pz  

   1.5   2    -0.4905   -3.8175  1.016263 -0.006048 -0.011155

 HOMO      1.2    -0.490498 =     -13.3471eV
 LUMO      2.1     0.441204 =      12.0058eV
 LUMO-HOMO         0.931702 =      25.3529eV


 **********************************************************************************************************************************
 DATASETS  * FILE   NREC   LENGTH (MB)   RECORD NAMES
              1      20       19.12       500      610      700      900      950      970     1000      129      960     1100   
                                          VAR    BASINP    GEOM    SYMINP    ZMAT    AOBASIS   BASIS     P2S    ABASIS      S 
                                         1400     1410     1420     1200     1210     1080     1600     1650     1300     1700   
                                         EKIN       V       ECP      H0       H01     AOSYM     SMH    MOLCAS    ERIS     OPER   

              2       4        2.75       700     1000      520     4202   
                                         GEOM     BASIS   MCVARS     RHF  

 PROGRAMS   *        TOTAL       RHF       INT
 CPU TIMES  *         0.41      0.05      0.23
 REAL TIME  *         2.34 SEC
 DISK USED  *        23.83 MB      
 **********************************************************************************************************************************


 PROGRAM * MULTI (Direct Multiconfiguration SCF)       Authors: P.J. Knowles, H.-J. Werner (1984)     S.T. Elbert (1988)


 Number of closed-shell orbitals:   1 (   1   0   0   0   0   0   0   0 )
 Number of active  orbitals:        3 (   0   1   1   0   1   0   0   0 )
 Number of external orbitals:      18 (   6   2   2   2   2   2   2   0 )

 State symmetry 1

 Number of electrons:     5    Spin symmetry=Doublet   Space symmetry=3
 Number of states:        1
 Number of CSFs:          1   (1 determinants, 3 intermediate states)

 State symmetry 2

 Number of electrons:     5    Spin symmetry=Doublet   Space symmetry=5
 Number of states:        1
 Number of CSFs:          1   (1 determinants, 3 intermediate states)

 State symmetry 3

 Number of electrons:     5    Spin symmetry=Doublet   Space symmetry=2
 Number of states:        1
 Number of CSFs:          1   (1 determinants, 3 intermediate states)

 Iteration controls:
             1  2  3  4  5  6  7  8  9 10 11 12 13 14 15 16 17 18 19 20 21 22 23 24 25 26 27 28 29 30 31 32 33 34 35 36 37 38 39
 DIAGCI      T  T  T  T  T  T  T  T  T  T  T  T  T  T  T  T  T  T  T  T  T  T  T  T  T  T  T  T  T  T  T  T  T  T  T  T  T  T  T
 WERNER      T  T  T  T  T  T  T  T  T  T  T  T  T  T  T  T  T  T  T  T  T  T  T  T  T  T  T  T  T  T  T  T  T  T  T  T  T  T  T
 INTERNAL    F  T  T  T  T  T  T  T  T  T  T  T  T  T  T  T  T  T  T  T  T  T  T  T  T  T  T  T  T  T  T  T  T  T  T  T  T  T  T

 Molecular orbitals read from record     4202.2  Type=RHF/CANONICAL (state 1.3)
 *** IN SYMMETRY 1 ORBITAL  1 SYMMETRY CONTAMINATION OF 0.704D-02 HAS BEEN REMOVED

 EXTRA SYMMETRY OF MOS IN SYMMETRY 1:   1 3 2 1 3 2 1

 Wavefunction dump at record             5202.2

 Convergence thresholds  0.10E-01 (gradient)  0.10E-05 (energy)  0.10E-02 (step length)

 Weight factors for state symmetry  1:    0.33333
 Weight factors for state symmetry  2:    0.33333
 Weight factors for state symmetry  3:    0.33333

 Number of orbital rotations:       12   (     0 Core/Active      6 Core/Virtual   0 Active/Active      6 Active/Virtual)
 Total number of variables:         15


 ITER. MIC  NCI  NEG     ENERGY(VAR)     ENERGY(PROJ)   ENERGY CHANGE     GRAD(0)  GRAD(ORB)   GRAD(CI)     STEP       TIME

   1   21   12    0     -14.68885678     -14.68946967   -0.00061290    0.03045681 0.00000000 0.00000000  0.20D-01      0.01
   2   12   12    0     -14.68946978     -14.68946978   -0.00000000    0.00006853 0.00000000 0.00000000  0.26D-04      0.02

 ** WVFN ****  CONVERGENCE REACHED, FINAL GRADIENT:  0.59D-09



 Results for state 1.3
 =====================

 !MCSCF STATE 1.3 Energy              -14.689469779224
 Nuclear energy                         0.00000000
 Kinetic energy                         5.49577933
 One electron energy                  -24.68811760
 Two electron energy                    9.99864782
 Virial ratio                           3.67286383

 !MCSCF STATE 1.3 Dipole moment         0.00000000     0.00000000     0.00000000
 Dipole moment /Debye                   0.00000000     0.00000000     0.00000000



 Results for state 1.5
 =====================

 !MCSCF STATE 1.5 Energy              -14.689469779224
 Nuclear energy                         0.00000000
 Kinetic energy                         5.49577933
 One electron energy                  -24.68811760
 Two electron energy                    9.99864782
 Virial ratio                           3.67286383

 !MCSCF STATE 1.5 Dipole moment         0.00000000     0.00000000     0.00000000
 Dipole moment /Debye                   0.00000000     0.00000000     0.00000000



 Results for state 1.2
 =====================

 !MCSCF STATE 1.2 Energy              -14.689469779224
 Nuclear energy                         0.00000000
 Kinetic energy                         5.49577933
 One electron energy                  -24.68811760
 Two electron energy                    9.99864782
 Virial ratio                           3.67286383

 !MCSCF STATE 1.2 Dipole moment         0.00000000     0.00000000     0.00000000
 Dipole moment /Debye                   0.00000000     0.00000000     0.00000000

 State-averaged charge density matrix saved on record  5202.2 (density set 1)

 !MCSCF expec        <1.3|EKIN|1.3>     5.495779325902
 !MCSCF expec        <1.5|EKIN|1.5>     5.495779325912
 !MCSCF expec        <1.2|EKIN|1.2>     5.495779325912

 !MCSCF expec         <1.3|POT|1.3>    -4.697965755324
 !MCSCF expec         <1.5|POT|1.5>    -4.697965755328
 !MCSCF expec         <1.2|POT|1.2>    -4.697965755328


 NATURAL ORBITALS (state averaged)
 =================================

   Orb     Occ        Energy       Coefficients

                                   1 1s      1 1s      1 1s      1 3d0     1 3d2+    1 3d0     1 3d2+ 

   1.1  2.00000    -1.079897     1.000005  0.000001 -0.000006  0.000000  0.000000  0.000000  0.000000

                                   1 2px     1 2px     1 2px  

   1.2  1.66667    -0.427664     1.000002  0.000003 -0.000005

                                   1 2py     1 2py     1 2py  

   1.3  1.66667    -0.427664     1.000002  0.000003 -0.000005

                                   1 2pz     1 2pz     1 2pz  

   1.5  1.66667    -0.427664     1.000002  0.000003 -0.000005
 

 Natural orbital dump (state averaged) at molpro section  5202.2    (Orbital set 2)


 CI vector for state symmetry 1
 ==============================

 2 a 2           1.0000000

 TOTAL ENERGIES                       -14.68946978

 CI vector for state symmetry 2
 ==============================

 2 2 a           1.0000000

 TOTAL ENERGIES                       -14.68946978

 CI vector for state symmetry 3
 ==============================

 a 2 2           1.0000000

 TOTAL ENERGIES                       -14.68946978



 **********************************************************************************************************************************
 DATASETS  * FILE   NREC   LENGTH (MB)   RECORD NAMES
              1      21       19.13       500      610      700      900      950      970     1000      129      960     1100   
                                          VAR    BASINP    GEOM    SYMINP    ZMAT    AOBASIS   BASIS     P2S    ABASIS      S 
                                         1400     1410     1420     1200     1210     1080     1600     1650     1300     1700   
                                         EKIN       V       ECP      H0       H01     AOSYM     SMH    MOLCAS    ERIS     OPER   
                                         1380   
                                         JKOP   

              2       5        5.24       700     1000      520     4202     5202   
                                         GEOM     BASIS   MCVARS     RHF     MCSCF   

 PROGRAMS   *        TOTAL     MULTI       RHF       INT
 CPU TIMES  *         0.46      0.05      0.05      0.23
 REAL TIME  *         8.05 SEC
 DISK USED  *        33.51 MB      
 **********************************************************************************************************************************


 PROGRAM * RHF-SCF (OPEN SHELL)       Authors: W. Meyer, H.-J. Werner


 NUMBER OF ELECTRONS:       4+    3-    SPACE SYMMETRY=3    SPIN SYMMETRY: Doublet 
 CONVERGENCE THRESHOLDS:    1.00E-05 (Density)    1.00E-07 (Energy)
 MAX. NUMBER OF ITERATIONS:        0
 INTERPOLATION TYPE:            DIIS
 INTERPOLATION STEPS:              2 (START)      1 (STEP)
 LEVEL SHIFTS:                 -0.60 (CLOSED) -0.30 (OPEN) 


 Singly occupied orbitals:      1.3
 Molecular orbitals read from record     5202.2  Type=MCSCF/NATURAL (state averaged)

 Molecular orbital dump at record        2101.2

 ITERATION    DDIFF          GRAD             ENERGY        2-EL.EN.            DIPOLE MOMENTS         DIIS   ORB.
    1      0.000D+00      0.000D+00       -14.68946978     19.997296    0.00000    0.00000    0.00000    0    start

 Final alpha occupancy:   1   1   1   0   1   0   0
 Final beta  occupancy:   1   1   0   0   1   0   0

 !RHF STATE 1.3 Energy                -14.689469779224
 Nuclear energy                         0.00000000
 One-electron energy                  -24.68811760
 Two-electron energy                    9.99864782
 Virial quotient                       -2.67286383
 !RHF STATE 1.3 Dipole moment           0.00000000     0.00000000     0.00000000
 Dipole moment /Debye                   0.00000000     0.00000000     0.00000000
 

 !RHF expec          <1.3|EKIN|1.3>     5.495779325902
 
 !RHF expec           <1.3|POT|1.3>    -4.697965755324

 ELECTRON ORBITALS
 =================


   Orb  Occ    Energy  Couls-En    Coefficients

                                   1 1s      1 1s      1 1s      1 3d0     1 3d2+    1 3d0     1 3d2+ 

   1.1   2    -1.0799   -5.0931  1.000005  0.000001 -0.000006  0.000000  0.000000  0.000000  0.000000

                                   1 2px     1 2px     1 2px  

   1.2   2    -0.4277   -3.7600  1.000002  0.000003 -0.000005

                                   1 2py     1 2py     1 2py  

   1.3   +    -0.4277   -3.7600  1.000002  0.000003 -0.000005

                                   1 2pz     1 2pz     1 2pz  

   1.5   2    -0.4277   -3.7600  1.000002  0.000003 -0.000005

 HOMO      1.2    -0.427664 =     -11.6373eV
 LUMO      2.1     0.482782 =      13.1372eV
 LUMO-HOMO         0.910446 =      24.7745eV


 **********************************************************************************************************************************
 DATASETS  * FILE   NREC   LENGTH (MB)   RECORD NAMES
              1      21       19.13       500      610      700      900      950      970     1000      129      960     1100   
                                          VAR    BASINP    GEOM    SYMINP    ZMAT    AOBASIS   BASIS     P2S    ABASIS      S 
                                         1400     1410     1420     1200     1210     1080     1600     1650     1300     1700   
                                         EKIN       V       ECP      H0       H01     AOSYM     SMH    MOLCAS    ERIS     OPER   
                                         1380   
                                         JKOP   

              2       6        7.74       700     1000      520     4202     5202     2101   
                                         GEOM     BASIS   MCVARS     RHF     MCSCF     RHF  

 PROGRAMS   *        TOTAL       RHF     MULTI       RHF       INT
 CPU TIMES  *         0.49      0.02      0.05      0.05      0.23
 REAL TIME  *         8.22 SEC
 DISK USED  *        33.51 MB      
 **********************************************************************************************************************************
 SETTING SCF(I)         =       -14.68946978  AU                              
 SETTING _CC_NORM_MAX   =         2.00000000                                  


 PROGRAM * CCSD (Restricted open-shell coupled cluster)     Authors: C. Hampel, H.-J. Werner, 1991, M. Deegan, P.J. Knowles, 1992


 Convergence thresholds:  THRVAR = 1.00D-08  THRDEN = 1.00D-06

 CCSD(T)     terms to be evaluated (factor= 1.000)


 Number of closed-shell orbitals:   3 (   1   1   0   0   1   0   0 )
 Number of active  orbitals:        1 (   0   0   1   0   0   0   0 )
 Number of external orbitals:      18 (   6   2   2   2   2   2   2 )

 Memory could be reduced to 0.30 Mwords without degradation in triples

 Number of N-1 electron functions:               7
 Number of N-2 electron functions:              21
 Number of singly external CSFs:                23
 Number of doubly external CSFs:               789
 Total number of CSFs:                         812

 Molecular orbitals read from record     2101.2  Type=RHF/CANONICAL (state 1.3)

 Integral transformation finished. Total CPU:   0.00 sec, npass=  1  Memory used:   0.07 MW

 Starting RMP2 calculation

 Wavefunction is spin-projected

 ITER.      SQ.NORM     CORR.ENERGY   TOTAL ENERGY   ENERGY CHANGE        DEN1      VAR(S)    VAR(P)  DIIS     TIME
   1      1.04868918    -0.13090995   -14.82037973    -0.13090995    -0.00061955  0.10D-04  0.23D-03  1  1     0.00
   2      1.04926701    -0.13158104   -14.82105082    -0.00067109    -0.00000030  0.59D-08  0.11D-06  2  2     0.00
   3      1.04927258    -0.13158445   -14.82105423    -0.00000341    -0.00000000  0.43D-11  0.47D-10  3  3     0.00
   4      1.04927260    -0.13158446   -14.82105424    -0.00000001    -0.00000000  0.26D-14  0.42D-13  4  4     0.00

 Norm of t1 vector:      0.03858032      S-energy:    -0.00294478      T1 diagnostic:  0.00424141
 Norm of t2 vector:      0.21859589      P-energy:    -0.12863968
                                         Alpha-Beta:  -0.09737662
                                         Alpha-Alpha: -0.02111949
                                         Beta-Beta:   -0.01014357

 Spin contamination <S**2-Sz**2-Sz>     0.00000000
  Reference energy                    -14.689469779224
  RHF-RMP2 correlation energy          -0.131584459556
 !RHF-RMP2 energy                     -14.821054238780
 (NB above energy spin projected)

 Starting RCCSD calculation

 ITER.      SQ.NORM     CORR.ENERGY   TOTAL ENERGY   ENERGY CHANGE        DEN1      VAR(S)    VAR(P)  DIIS     TIME
   1      1.05837136    -0.14314538   -14.83261515    -0.14314538    -0.00430275  0.14D-03  0.14D-02  1  1     0.01
   2      1.06309445    -0.14798279   -14.83745257    -0.00483742    -0.00012945  0.98D-05  0.41D-04  2  2     0.01
   3      1.06382954    -0.14844727   -14.83791705    -0.00046448    -0.00000267  0.16D-06  0.88D-06  3  3     0.01
   4      1.06390813    -0.14848786   -14.83795763    -0.00004059    -0.00000007  0.89D-08  0.21D-07  4  4     0.01
   5      1.06390812    -0.14848483   -14.83795461     0.00000303    -0.00000000  0.12D-09  0.61D-09  5  5     0.01
   6      1.06390927    -0.14848592   -14.83795570    -0.00000109    -0.00000000  0.98D-11  0.17D-10  6  6     0.02
   7      1.06390901    -0.14848569   -14.83795547     0.00000023    -0.00000000  0.35D-12  0.85D-12  6  1     0.02

 Norm of t1 vector:      0.04763016      S-energy:    -0.00344614      T1 diagnostic:  0.00611216
                                                                       D1 diagnostic:  0.01327771
 Norm of t2 vector:      0.24827480      P-energy:    -0.14503955
                                         Alpha-Beta:  -0.11432483
                                         Alpha-Alpha: -0.02086875
                                         Beta-Beta:   -0.00984597

 Spin contamination <S**2-Sz**2-Sz>     0.00000000

 Memory could be reduced to 0.30 Mwords without degradation in triples
 

 RESULTS
 =======

  Reference energy                    -14.689469779224
  RCCSD singles energy                 -0.003446140816
  RCCSD pair energy                    -0.145039548551
  RCCSD correlation energy             -0.148485689367
  Triples (T) contribution             -0.002474778375
  Total correlation energy             -0.150960467743
 
  RHF-RCCSD energy                    -14.837955468591
  RHF-RCCSD[T] energy                 -14.840355308588
  RHF-RCCSD-T energy                  -14.840426623948
 !RHF-RCCSD(T) energy                 -14.840430246967

 Program statistics:

 Available memory in ccsd:               511999732
 Min. memory needed in ccsd:                  4816
 Max. memory used in ccsd:                    5519
 Max. memory used in cckext:                 38154 ( 7 integral passes)
 Max. memory used in cckint:                 68372 ( 1 integral passes)



 **********************************************************************************************************************************
 DATASETS  * FILE   NREC   LENGTH (MB)   RECORD NAMES
              1      21       19.13       500      610      700      900      950      970     1000      129      960     1100   
                                          VAR    BASINP    GEOM    SYMINP    ZMAT    AOBASIS   BASIS     P2S    ABASIS      S 
                                         1400     1410     1420     1200     1210     1080     1600     1650     1300     1700   
                                         EKIN       V       ECP      H0       H01     AOSYM     SMH    MOLCAS    ERIS     OPER   
                                         1380   
                                         JKOP   

              2       6        7.74       700     1000      520     4202     5202     2101   
                                         GEOM     BASIS   MCVARS     RHF     MCSCF     RHF  

 PROGRAMS   *        TOTAL  RCCSD(T)       RHF     MULTI       RHF       INT
 CPU TIMES  *         0.56      0.06      0.02      0.05      0.05      0.23
 REAL TIME  *         8.82 SEC
 DISK USED  *        33.51 MB      
 **********************************************************************************************************************************
 SETTING POSTHF(I)      =       -14.84043025  AU                              
                                                                                                                                                                                                                                                                

        SCF            POSTHF       EKIN          POT
    -14.68946978   -14.84043025   5.49577933   -4.69796576
                                                  

 RCCSD(T)/USERDEF energy=    -14.840430246967

        RCCSD(T)        RHF-SCF         MULTI           RHF-SCF 
    -14.84043025    -14.68946978    -14.68946978    -14.68992169
 **********************************************************************************************************************************
 Variable memory released
