
 Primary working directories    : /global/cscratch1/sd/aannabe
 Secondary working directories  : /global/cscratch1/sd/aannabe
 Wavefunction directory         : /global/homes/a/aannabe/wfu/
 Main file repository           : /global/cscratch1/sd/aannabe/

 SHA1      : 19cd028119e0e09f93f0674bd8af7968d9b3eff6
 NAME      : 2015.1.36
 ARCHNAME  : linux/x86_64
 FC        : /opt/cray/pe/craype/2.5.14/bin/ftn
 BLASLIB   : -L/opt/intel/compilers_and_libraries_2018.1.163/linux/mkl/lib/intel64 -Wl,-_start-group -lmkl_intel_ilp64 -lmkl_intel_thread -lmkl_core -Wl,-_end-group -liomp5
 id        : lbl

 Nodes     nprocs
 nid00693     1

 Using customized tuning parameters: mindgm=7; mindgv=16; mindgc=1; mindgr=1; noblas=0; minvec=7
 default implementation of scratch files=df  

 ***,Na
 memory,512,m
 gthresh,twoint=1.e-12
 
 gprint,basis,orbitals
 gexpec,ekin,pot
 
 angstrom
 geometry={
 1                                                                               ! Number of atoms
 Na 0.0 0.0 0.0
 }
 
 basis={
 Including file /global/homes/a/aannabe/repos/pseudopotentiallibrary/recipes/Na/ccECP_He_core/Na.ccECP.molpro
 Including file /global/homes/a/aannabe/repos/pseudopotentiallibrary/recipes/Na/ccECP_He_core/cc-pCVQZ.molpro
 }
 
 {hf
 wf,9,1,1
 occ,2,1,1,0,1,0,0,0
 open,2.1
 }
 scf(i)=energy
 
 _CC_NORM_MAX=2.0
 {ci
 maxit,100
 core
 }
 posthf(i)=energy
 
 table,scf,posthf,ekin,pot
 save,4.csv,new
 
 

 Variables initialized (889), CPU time= 0.01 sec
 Commands  initialized (702), CPU time= 0.01 sec, 572 directives.
 Default parameters read. Elapsed time= 0.15 sec

 Checking input...
 Passed
1


                                         ***  PROGRAM SYSTEM MOLPRO  ***
                                       Copyright, TTI GmbH Stuttgart, 2015
                                    Version 2015.1 linked Dec 29 2018 15:55:43


 **********************************************************************************************************************************
 LABEL *   Na                                                                            
  64 bit serial version                                                                  DATE: 03-Jan-19          TIME: 10:05:25  
 **********************************************************************************************************************************

 SHA1:             19cd028119e0e09f93f0674bd8af7968d9b3eff6
 **********************************************************************************************************************************

 THRESHOLDS:

 ZERO    =  1.00D-12  ONEINT  =  1.00D-12  TWOINT  =  1.00D-12  PREFAC  =  1.00D-14  LOCALI  =  1.00D-09  EORDER  =  1.00D-04
 ENERGY  =  0.00D+00  ETEST   =  0.00D+00  EDENS   =  0.00D+00  THRDEDEF=  1.00D-06  GRADIENT=  1.00D-02  STEP    =  1.00D-03
 ORBITAL =  1.00D-05  CIVEC   =  1.00D-05  COEFF   =  1.00D-04  PRINTCI =  5.00D-02  PUNCHCI =  9.90D+01  OPTGRAD =  3.00D-04
 OPTENERG=  1.00D-06  OPTSTEP =  3.00D-04  THRGRAD =  1.00D-10  COMPRESS=  1.00D-11  VARMIN  =  1.00D-07  VARMAX  =  1.00D-03
 THRDOUB =  0.00D+00  THRDIV  =  1.00D-05  THRRED  =  1.00D-07  THRPSP  =  1.00D+00  THRDC   =  1.00D-10  THRCS   =  1.00D-10
 THRNRM  =  1.00D-08  THREQ   =  0.00D+00  THRDE   =  1.00D+00  THRREF  =  1.00D-05  SPARFAC =  1.00D+00  THRDLP  =  1.00D-07
 THRDIA  =  1.00D-10  THRDLS  =  1.00D-07  THRGPS  =  0.00D+00  THRKEX  =  0.00D+00  THRDIS  =  2.00D-01  THRVAR  =  1.00D-10
 THRLOC  =  1.00D-06  THRGAP  =  1.00D-06  THRLOCT = -1.00D+00  THRGAPT = -1.00D+00  THRORB  =  1.00D-06  THRMLTP =  0.00D+00
 THRCPQCI=  1.00D-10  KEXTA   =  0.00D+00  THRCOARS=  0.00D+00  SYMTOL  =  1.00D-06  GRADTOL =  1.00D-06  THROVL  =  1.00D-08
 THRORTH =  1.00D-08  GRID    =  1.00D-06  GRIDMAX =  1.00D-03  DTMAX   =  0.00D+00  THROCCDE=  1.00D-01  THROCCDE=  1.00D-01



 ZUNIT=ANG
 

Geometry recognized as XYZ


 Variable memory set to  512000000 words,  buffer space   230000 words

 SETTING BASIS          =    USERDEF


 Recomputing integrals since basis changed


 Using spherical harmonics



 PROGRAM * SEWARD (Integral evaluation for generally contracted gaussian basis sets)     Author: Roland Lindh, 1990

 Geometry written to block  1 of record 700

 Orientation using atomic masses  
 Molecule type: Atom
 Symmetry elements: X,Y,Z
 Rotational constants:       0.0000000      0.0000000      0.0000000 GHz  (calculated with average atomic masses)

 Point group  D2h 



 ATOMIC COORDINATES

 NR  ATOM    CHARGE       X              Y              Z

   1  NA      1.00    0.000000000    0.000000000    0.000000000


          NA  CORE POTENTIAL

          d POTENTIAL

 POWERS             1              3              2              1              1
 EXPONENTIALS   8.997115       8.958240       8.691287       0.000000       0.000000    
 COEFFICIENTS   9.000000       80.97404      -57.11799       1.000000      -9.000000    

          s - d POTENTIAL

 POWERS             2              2
 EXPONENTIALS   61.00436       14.82952    
 COEFFICIENTS   25.19460       60.93358    

          p - d POTENTIAL

 POWERS             2
 EXPONENTIALS   1.000000    
 COEFFICIENTS   0.000000    


 BASIS DATA

   Nr Sym  Nuc  Type         Exponents   Contraction coefficients

    1.1 Ag    1  1s          50.364926    -0.001449    0.000212
    2.1 Ag                   24.480199    -0.000590    0.000379
                             11.898760    -0.118818    0.019582
                              5.783470    -0.010856    0.000623
                              2.811093     0.250783   -0.045781
                              1.366350     0.447276   -0.088728
                              0.664123     0.347254   -0.112952
                              0.322801     0.080652   -0.108396
                              0.156900     0.001208    0.009901
                              0.076262     0.000409    0.355418
                              0.037068     0.000112    0.561451
                              0.018017     0.000072    0.198998
    3.1 Ag    1  1s          13.489726     1.000000
    4.1 Ag    1  1s           6.108025     1.000000
    5.1 Ag    1  1s           2.765658     1.000000
    6.1 Ag    1  1s           1.171050     1.000000
    7.1 Ag    1  1s           0.304809     1.000000
    8.1 Ag    1  1s           0.079338     1.000000
    9.1 Ag    1  3d0         11.049216     1.000000
   10.1 Ag    1  3d2+        11.049216     1.000000
   11.1 Ag    1  3d0          4.573413     1.000000
   12.1 Ag    1  3d2+         4.573413     1.000000
   13.1 Ag    1  3d0          1.892995     1.000000
   14.1 Ag    1  3d2+         1.892995     1.000000
   15.1 Ag    1  3d0          0.671851     1.000000
   16.1 Ag    1  3d2+         0.671851     1.000000
   17.1 Ag    1  3d0          0.217686     1.000000
   18.1 Ag    1  3d2+         0.217686     1.000000
   19.1 Ag    1  3d0          0.070532     1.000000
   20.1 Ag    1  3d2+         0.070532     1.000000
   21.1 Ag    1  5g0          4.105663     1.000000
   22.1 Ag    1  5g4+         4.105663     1.000000
   23.1 Ag    1  5g2+         4.105663     1.000000
   24.1 Ag    1  5g0          0.169674     1.000000
   25.1 Ag    1  5g4+         0.169674     1.000000
   26.1 Ag    1  5g2+         0.169674     1.000000
    1.2 B3u   1  2px         77.769943     0.000054   -0.000656
    2.2 B3u                  42.060816    -0.000016    0.003137
                             22.748020     0.012571   -0.011004
                             12.302957     0.079601    0.009376
                              6.653887     0.140442   -0.066479
                              3.598664     0.212141    0.058959
                              1.946289     0.261799   -0.221050
                              1.052624     0.255820    0.303491
                              0.569297     0.180359   -0.671705
                              0.307897     0.072165    1.064360
                              0.166522     0.010663   -1.530489
                              0.090061     0.001538    1.843167
    3.2 B3u   1  2px         14.383163     1.000000
    4.2 B3u   1  2px          6.093559     1.000000
    5.2 B3u   1  2px          2.581592     1.000000
    6.2 B3u   1  2px          0.375990     1.000000
    7.2 B3u   1  2px          0.119184     1.000000
    8.2 B3u   1  2px          0.037780     1.000000
    9.2 B3u   1  4f1+         6.311251     1.000000
   10.2 B3u   1  4f3+         6.311251     1.000000
   11.2 B3u   1  4f1+         2.149597     1.000000
   12.2 B3u   1  4f3+         2.149597     1.000000
   13.2 B3u   1  4f1+         0.210906     1.000000
   14.2 B3u   1  4f3+         0.210906     1.000000
   15.2 B3u   1  4f1+         0.102314     1.000000
   16.2 B3u   1  4f3+         0.102314     1.000000
    1.3 B2u   1  2py         77.769943     0.000054   -0.000656
    2.3 B2u                  42.060816    -0.000016    0.003137
                             22.748020     0.012571   -0.011004
                             12.302957     0.079601    0.009376
                              6.653887     0.140442   -0.066479
                              3.598664     0.212141    0.058959
                              1.946289     0.261799   -0.221050
                              1.052624     0.255820    0.303491
                              0.569297     0.180359   -0.671705
                              0.307897     0.072165    1.064360
                              0.166522     0.010663   -1.530489
                              0.090061     0.001538    1.843167
    3.3 B2u   1  2py         14.383163     1.000000
    4.3 B2u   1  2py          6.093559     1.000000
    5.3 B2u   1  2py          2.581592     1.000000
    6.3 B2u   1  2py          0.375990     1.000000
    7.3 B2u   1  2py          0.119184     1.000000
    8.3 B2u   1  2py          0.037780     1.000000
    9.3 B2u   1  4f1-         6.311251     1.000000
   10.3 B2u   1  4f3-         6.311251     1.000000
   11.3 B2u   1  4f1-         2.149597     1.000000
   12.3 B2u   1  4f3-         2.149597     1.000000
   13.3 B2u   1  4f1-         0.210906     1.000000
   14.3 B2u   1  4f3-         0.210906     1.000000
   15.3 B2u   1  4f1-         0.102314     1.000000
   16.3 B2u   1  4f3-         0.102314     1.000000
    1.4 B1g   1  3d2-        11.049216     1.000000
    2.4 B1g   1  3d2-         4.573413     1.000000
    3.4 B1g   1  3d2-         1.892995     1.000000
    4.4 B1g   1  3d2-         0.671851     1.000000
    5.4 B1g   1  3d2-         0.217686     1.000000
    6.4 B1g   1  3d2-         0.070532     1.000000
    7.4 B1g   1  5g2-         4.105663     1.000000
    8.4 B1g   1  5g4-         4.105663     1.000000
    9.4 B1g   1  5g2-         0.169674     1.000000
   10.4 B1g   1  5g4-         0.169674     1.000000
    1.5 B1u   1  2pz         77.769943     0.000054   -0.000656
    2.5 B1u                  42.060816    -0.000016    0.003137
                             22.748020     0.012571   -0.011004
                             12.302957     0.079601    0.009376
                              6.653887     0.140442   -0.066479
                              3.598664     0.212141    0.058959
                              1.946289     0.261799   -0.221050
                              1.052624     0.255820    0.303491
                              0.569297     0.180359   -0.671705
                              0.307897     0.072165    1.064360
                              0.166522     0.010663   -1.530489
                              0.090061     0.001538    1.843167
    3.5 B1u   1  2pz         14.383163     1.000000
    4.5 B1u   1  2pz          6.093559     1.000000
    5.5 B1u   1  2pz          2.581592     1.000000
    6.5 B1u   1  2pz          0.375990     1.000000
    7.5 B1u   1  2pz          0.119184     1.000000
    8.5 B1u   1  2pz          0.037780     1.000000
    9.5 B1u   1  4f0          6.311251     1.000000
   10.5 B1u   1  4f2+         6.311251     1.000000
   11.5 B1u   1  4f0          2.149597     1.000000
   12.5 B1u   1  4f2+         2.149597     1.000000
   13.5 B1u   1  4f0          0.210906     1.000000
   14.5 B1u   1  4f2+         0.210906     1.000000
   15.5 B1u   1  4f0          0.102314     1.000000
   16.5 B1u   1  4f2+         0.102314     1.000000
    1.6 B2g   1  3d1+        11.049216     1.000000
    2.6 B2g   1  3d1+         4.573413     1.000000
    3.6 B2g   1  3d1+         1.892995     1.000000
    4.6 B2g   1  3d1+         0.671851     1.000000
    5.6 B2g   1  3d1+         0.217686     1.000000
    6.6 B2g   1  3d1+         0.070532     1.000000
    7.6 B2g   1  5g1+         4.105663     1.000000
    8.6 B2g   1  5g3+         4.105663     1.000000
    9.6 B2g   1  5g1+         0.169674     1.000000
   10.6 B2g   1  5g3+         0.169674     1.000000
    1.7 B3g   1  3d1-        11.049216     1.000000
    2.7 B3g   1  3d1-         4.573413     1.000000
    3.7 B3g   1  3d1-         1.892995     1.000000
    4.7 B3g   1  3d1-         0.671851     1.000000
    5.7 B3g   1  3d1-         0.217686     1.000000
    6.7 B3g   1  3d1-         0.070532     1.000000
    7.7 B3g   1  5g1-         4.105663     1.000000
    8.7 B3g   1  5g3-         4.105663     1.000000
    9.7 B3g   1  5g1-         0.169674     1.000000
   10.7 B3g   1  5g3-         0.169674     1.000000
    1.8 Au    1  4f2-         6.311251     1.000000
    2.8 Au    1  4f2-         2.149597     1.000000
    3.8 Au    1  4f2-         0.210906     1.000000
    4.8 Au    1  4f2-         0.102314     1.000000

 NUCLEAR CHARGE:                    1
 NUMBER OF PRIMITIVE AOS:         178
 NUMBER OF SYMMETRY AOS:          148
 NUMBER OF CONTRACTIONS:          108   (  26Ag  +  16B3u +  16B2u +  10B1g +  16B1u +  10B2g +  10B3g +   4Au  )
 NUMBER OF CORE ORBITALS:           0   (   0Ag  +   0B3u +   0B2u +   0B1g +   0B1u +   0B2g +   0B3g +   0Au  )
 NUMBER OF VALENCE ORBITALS:        4   (   1Ag  +   1B3u +   1B2u +   0B1g +   1B1u +   0B2g +   0B3g +   0Au  )


 NUCLEAR REPULSION ENERGY    0.00000000

 EXTRA SYMMETRY OF AOS IN SYMMETRY 1:   1 1 1 1 1 1 1 1 2 3   2 3 2 3 2 3 2 3 2 3   4 5 6 4 5 6
 EXTRA SYMMETRY OF AOS IN SYMMETRY 2:   1 1 1 1 1 1 1 1 2 3   2 3 2 3 2 3
 EXTRA SYMMETRY OF AOS IN SYMMETRY 3:   1 1 1 1 1 1 1 1 2 3   2 3 2 3 2 3
 EXTRA SYMMETRY OF AOS IN SYMMETRY 4:   1 1 1 1 1 1 2 3 2 3
 EXTRA SYMMETRY OF AOS IN SYMMETRY 5:   1 1 1 1 1 1 1 1 2 3   2 3 2 3 2 3
 EXTRA SYMMETRY OF AOS IN SYMMETRY 6:   1 1 1 1 1 1 2 3 2 3
 EXTRA SYMMETRY OF AOS IN SYMMETRY 7:   1 1 1 1 1 1 2 3 2 3

 Eigenvalues of metric

         1 0.144E-03 0.602E-02 0.281E-01 0.665E-01 0.665E-01 0.687E-01 0.204E+00 0.204E+00
         2 0.553E-02 0.219E-01 0.642E-01 0.179E+00 0.246E+00 0.246E+00 0.466E+00 0.466E+00
         3 0.553E-02 0.219E-01 0.642E-01 0.179E+00 0.246E+00 0.246E+00 0.466E+00 0.466E+00
         4 0.665E-01 0.204E+00 0.475E+00 0.980E+00 0.994E+00 0.994E+00 0.101E+01 0.101E+01
         5 0.553E-02 0.219E-01 0.642E-01 0.179E+00 0.246E+00 0.246E+00 0.466E+00 0.466E+00
         6 0.665E-01 0.204E+00 0.475E+00 0.980E+00 0.994E+00 0.994E+00 0.101E+01 0.101E+01
         7 0.665E-01 0.204E+00 0.475E+00 0.980E+00 0.994E+00 0.994E+00 0.101E+01 0.101E+01
         8 0.246E+00 0.466E+00 0.152E+01 0.176E+01


 Contracted 2-electron integrals neglected if value below      1.0D-12
 AO integral compression algorithm  1   Integral accuracy      1.0D-12

     17.564 MB (compressed) written to integral file ( 52.9%)


 NUMBER OF SORTED TWO-ELECTRON INTEGRALS:    2285089.     BUFFER LENGTH:  32768
 NUMBER OF SEGMENTS:   1  SEGMENT LENGTH:    2285089      RECORD LENGTH: 524288

 Memory used in sort:       2.84 MW

 SORT1 READ     4189600. AND WROTE     1738785. INTEGRALS IN      5 RECORDS. CPU TIME:     0.07 SEC, REAL TIME:     0.10 SEC
 SORT2 READ     1738785. AND WROTE     2285089. INTEGRALS IN     67 RECORDS. CPU TIME:     0.12 SEC, REAL TIME:     0.18 SEC

 FILE SIZES:   FILE 1:    37.7 MBYTE,  FILE 4:    21.0 MBYTE,   TOTAL:     58.7 MBYTE

 OPERATOR DM      FOR CENTER  0  COORDINATES:    0.000000    0.000000    0.000000
 OPERATOR EKIN    FOR CENTER  0  COORDINATES:    0.000000    0.000000    0.000000
 OPERATOR POT     FOR CENTER  0  COORDINATES:    0.000000    0.000000    0.000000


 **********************************************************************************************************************************
 DATASETS  * FILE   NREC   LENGTH (MB)   RECORD NAMES
              1      20       29.70       500      610      700      900      950      970     1000      129      960     1100   
                                          VAR    BASINP    GEOM    SYMINP    ZMAT    AOBASIS   BASIS     P2S    ABASIS      S 
                                         1400     1410     1420     1200     1210     1080     1600     1650     1300     1700   
                                         EKIN       V       ECP      H0       H01     AOSYM     SMH    MOLCAS    ERIS     OPER   

 PROGRAMS   *        TOTAL       INT
 CPU TIMES  *         1.33      1.23
 REAL TIME  *         4.46 SEC
 DISK USED  *        59.03 MB      
 **********************************************************************************************************************************


 PROGRAM * RHF-SCF (OPEN SHELL)       Authors: W. Meyer, H.-J. Werner


 NUMBER OF ELECTRONS:       5+    4-    SPACE SYMMETRY=1    SPIN SYMMETRY: Doublet 
 CONVERGENCE THRESHOLDS:    1.00E-05 (Density)    1.00E-07 (Energy)
 MAX. NUMBER OF ITERATIONS:       60
 INTERPOLATION TYPE:            DIIS
 INTERPOLATION STEPS:              2 (START)      1 (STEP)
 LEVEL SHIFTS:                 -0.60 (CLOSED) -0.30 (OPEN) 


 Singly occupied orbitals:      2.1

   Atom=NA basis=ECP10SDF_GUESS    lmin=0  lmax=0

 Orbital guess generated from atomic densities. Full valence occupancy:    1   0   0   0   0   0   0   0


 Molecular orbital dump at record        2100.2

 ITERATION    DDIFF          GRAD             ENERGY        2-EL.EN.            DIPOLE MOMENTS         DIIS   ORB.
    1      0.000D+00      0.000D+00       -40.22699054     95.321330    0.00000    0.00000    0.00000    0    start
    2      0.000D+00      0.466D+00       -46.60460888     55.794920    0.00000    0.00000    0.00000    1    diag,B
    3      0.882D+00      0.145D+00       -47.34229513     64.479422    0.00000    0.00000    0.00000    2    diag,B
    4      0.623D-01      0.134D-01       -47.35499514     64.675327    0.00000    0.00000    0.00000    3    diag,B
    5      0.248D-01      0.325D-02       -47.35668492     64.762041    0.00000    0.00000    0.00000    4    diag,B
    6      0.180D-01      0.574D-03       -47.35698749     64.824742    0.00000    0.00000    0.00000    5    diag,B
    7      0.761D-02      0.278D-03       -47.35712919     64.880676    0.00000    0.00000    0.00000    6    fixocc
    8      0.480D-02      0.124D-03       -47.35715937     64.918903    0.00000    0.00000    0.00000    7    diag,B
    9      0.277D-02      0.116D-04       -47.35715947     64.921241    0.00000    0.00000    0.00000    8    diag,B
   10      0.132D-03      0.143D-05       -47.35715947     64.921311    0.00000    0.00000    0.00000    9    orth
   11      0.150D-04      0.201D-06       -47.35715947     64.921315    0.00000    0.00000    0.00000    9    diag,B
   12      0.275D-05      0.217D-07       -47.35715947     64.921316    0.00000    0.00000    0.00000    0    orth

 Final alpha occupancy:   2   1   1   0   1   0   0   0
 Final beta  occupancy:   1   1   1   0   1   0   0   0

 !RHF STATE 1.1 Energy                -47.357159467649
 Nuclear energy                         0.00000000
 One-electron energy                  -79.81781770
 Two-electron energy                   32.46065824
 Virial quotient                       -1.29648181
 !RHF STATE 1.1 Dipole moment           0.00000000     0.00000000     0.00000000
 Dipole moment /Debye                   0.00000000     0.00000000     0.00000000
 

 !RHF expec          <1.1|EKIN|1.1>    36.527438375043
 
 !RHF expec           <1.1|POT|1.1>   -13.342647857176

 ELECTRON ORBITALS
 =================


   Orb  Occ    Energy  Couls-En    Coefficients

                                   1 1s      1 1s      1 1s      1 1s      1 1s      1 1s      1 1s      1 1s      1 3d0     1 3d2+ 
                                   1 3d0     1 3d2+    1 3d0     1 3d2+    1 3d0     1 3d2+    1 3d0     1 3d2+    1 3d0     1 3d2+ 
                                   1 5g0     1 5g4+    1 5g2+    1 5g0     1 5g4+    1 5g2+ 

   1.1   2    -2.7672  -13.1809  0.999504  0.000015 -0.000051 -0.000013  0.000120  0.000343  0.000116 -0.000032  0.000000 -0.000000
                                 0.000000  0.000000  0.000000 -0.000000  0.000000 -0.000000 -0.000000  0.000000 -0.000000 -0.000000
                                 0.000000 -0.000000  0.000000  0.000000 -0.000000 -0.000000

   2.1   +    -0.1822   -2.6440 -0.000149  1.000017 -0.000012 -0.000010  0.000044  0.000098  0.000045 -0.000028  0.000000 -0.000000
                                -0.000000 -0.000000  0.000000  0.000000 -0.000000 -0.000000  0.000000  0.000000 -0.000000 -0.000000
                                 0.000000 -0.000000 -0.000000 -0.000000 -0.000000 -0.000000

                                   1 2px     1 2px     1 2px     1 2px     1 2px     1 2px     1 2px     1 2px     1 4f1+    1 4f3+ 
                                   1 4f1+    1 4f3+    1 4f1+    1 4f3+    1 4f1+    1 4f3+ 

   1.2   2    -1.5300  -10.9514  0.999979 -0.000289 -0.000003 -0.000003 -0.000012 -0.000035  0.000134  0.000212 -0.000000 -0.000000
                                 0.000000  0.000000 -0.000000 -0.000000 -0.000000  0.000000

                                   1 2py     1 2py     1 2py     1 2py     1 2py     1 2py     1 2py     1 2py     1 4f1-    1 4f3- 
                                   1 4f1-    1 4f3-    1 4f1-    1 4f3-    1 4f1-    1 4f3- 

   1.3   2    -1.5300  -10.9514  0.999979 -0.000289 -0.000003 -0.000003 -0.000012 -0.000035  0.000134  0.000212 -0.000000  0.000000
                                 0.000000 -0.000000 -0.000000  0.000000 -0.000000 -0.000000

                                   1 2pz     1 2pz     1 2pz     1 2pz     1 2pz     1 2pz     1 2pz     1 2pz     1 4f0     1 4f2+ 
                                   1 4f0     1 4f2+    1 4f0     1 4f2+    1 4f0     1 4f2+ 

   1.5   2    -1.5300  -10.9514  0.999979 -0.000289 -0.000003 -0.000003 -0.000012 -0.000035  0.000134  0.000212  0.000000 -0.000000
                                -0.000000  0.000000  0.000000  0.000000 -0.000000 -0.000000

 HOMO      2.1    -0.182225 =      -4.9586eV
 LUMO      2.2     0.036521 =       0.9938eV
 LUMO-HOMO         0.218746 =       5.9524eV


 **********************************************************************************************************************************
 DATASETS  * FILE   NREC   LENGTH (MB)   RECORD NAMES
              1      20       29.70       500      610      700      900      950      970     1000      129      960     1100   
                                          VAR    BASINP    GEOM    SYMINP    ZMAT    AOBASIS   BASIS     P2S    ABASIS      S 
                                         1400     1410     1420     1200     1210     1080     1600     1650     1300     1700   
                                         EKIN       V       ECP      H0       H01     AOSYM     SMH    MOLCAS    ERIS     OPER   

              2       4        2.81       700     1000      520     2100   
                                         GEOM     BASIS   MCVARS     RHF  

 PROGRAMS   *        TOTAL        HF       INT
 CPU TIMES  *         1.45      0.12      1.23
 REAL TIME  *         5.51 SEC
 DISK USED  *        59.03 MB      
 **********************************************************************************************************************************
 SETTING SCF(I)         =       -47.35715947  AU                              
 SETTING _CC_NORM_MAX   =         2.00000000                                  


 PROGRAM * CI (Multireference internally contracted CI)     Authors: H.-J. Werner, P.J. Knowles, 1987


 Convergence thresholds:  THRVAR = 1.00D-08  THRDEN = 1.00D-06

 Number of optimized states:  1  Roots:   1
 Number of reference states:  1  Roots:   1

 Reference symmetry:                   1   Doublet 
 Number of electrons:                  9
 Maximum number of shells:             3
 Maximum number of spin couplings:     5

 Reference space:        1 conf        1 CSFs
 N elec internal:        5 conf        5 CSFs
 N-1 el internal:       15 conf       25 CSFs
 N-2 el internal:       14 conf       46 CSFs

 Number of electrons in valence space:                      9
 Maximum number of open shell orbitals in reference space:  1
 Maximum number of open shell orbitals in internal spaces:  5


 Number of closed-shell orbitals:   4 (   1   1   1   0   1   0   0   0 )
 Number of active  orbitals:        1 (   1   0   0   0   0   0   0   0 )
 Number of external orbitals:     103 (  24  15  15  10  15  10  10   4 )

 Molecular orbitals read from record     2100.2  Type=RHF/CANONICAL (state 1.1)

 Integral transformation finished. Total CPU:   0.01 sec, npass=  1  Memory used:   0.10 MW

 Number of p-space configurations:   1

 Reference wavefunction optimized for reference space (refopt=1)

 State     Reference Energy 
   1         -47.35715947

 Number of blocks in overlap matrix:    24   Smallest eigenvalue:  0.10D+01
 Number of N-2 electron functions:      24
 Number of N-1 electron functions:      25

 Number of internal configurations:                    2
 Number of singly external configurations:           408
 Number of doubly external configurations:         17057
 Total number of contracted configurations:        17467
 Total number of uncontracted configurations:      32320

 Diagonal Coupling coefficients finished.               Storage:    1729 words, CPU-Time:      0.00 seconds.
 Energy denominators for pairs finished in 1 passes.    Storage:   16433 words, CPU-time:      0.00 seconds.

  ITER. STATE  ROOT     SQ.NORM     CORR.ENERGY   TOTAL ENERGY   ENERGY CHANGE       DEN1      VAR(S)    VAR(P)      TIME
    1     1     1     1.00000000     0.00000000   -47.35715947    -0.00000000    -0.30965571  0.26D-03  0.27D-01     0.02
    2     1     1     1.02475917    -0.29326890   -47.65042837    -0.29326890    -0.00194937  0.19D-03  0.12D-03     0.04
    3     1     1     1.02539803    -0.29537479   -47.65253426    -0.00210589    -0.00005721  0.36D-05  0.61D-05     0.07
    4     1     1     1.02577653    -0.29544210   -47.65260157    -0.00006731    -0.00000161  0.24D-06  0.11D-06     0.10
    5     1     1     1.02580631    -0.29544385   -47.65260332    -0.00000174    -0.00000004  0.29D-08  0.38D-08     0.13
    6     1     1     1.02580659    -0.29544390   -47.65260336    -0.00000005    -0.00000000  0.15D-09  0.79D-10     0.16


 =====================================
 Analysis of CPU times by interactions
 =====================================

       I      S      P

 I   0.0%
 S   0.0%   0.0%
 P   0.0%   0.0%  12.5%

 Initialization:  12.5%
 Other:           75.0%

 Total CPU:        0.2 seconds
 =====================================



 Reference coefficients greater than 0.0500000
 =============================================
 2/222           0.9873400



 RESULTS FOR STATE 1.1
 =====================

 Coefficient of reference function:   C(0) = 0.98733996 (fixed)   0.98733996 (relaxed)

 Energy contributions of configuration classes

 CLASS          SQ.NORM        ECORR1        ECORR2
 +++++++++++++++++++++++++++++++++++++++++++++++++++
 Internals    0.00000250   -0.00000000   -0.00000072
 Singles      0.00057901   -0.00151190   -0.00164063
 Pairs        0.02522765   -0.29393200   -0.29380255
 Total        1.02580915   -0.29544390   -0.29544390
 +++++++++++++++++++++++++++++++++++++++++++++++++++


 Reference energy                     -47.35715947
 Nuclear energy                         0.00000000
 Kinetic energy                        36.73737044
 One electron energy                  -79.52595130
 Two electron energy                   31.87334794
 Virial quotient                       -1.29711525
 Correlation energy                    -0.29544390
 !CI(SD) STATE 1.1 Energy             -47.652603363685

 Properties without orbital relaxation:

 !CI(SD) STATE 1.1 Dipole moment        0.00000000     0.00000000     0.00000000
 Dipole moment /Debye                   0.00000000     0.00000000     0.00000000

 Cluster corrected energies           -47.66022852 (Davidson, fixed reference)
 Cluster corrected energies           -47.66022852 (Davidson, relaxed reference)

 Cluster corrected energies           -47.65839625 (Pople, fixed reference)
 Cluster corrected energies           -47.65839625 (Pople, relaxed reference)

 

 !CI(SD) expec       <1.1|EKIN|1.1>    36.737370436690
 
 !CI(SD) expec        <1.1|POT|1.1>   -13.336486721540


 **********************************************************************************************************************************
 DATASETS  * FILE   NREC   LENGTH (MB)   RECORD NAMES
              1      21       30.05       500      610      700      900      950      970     1000      129      960     1100   
                                          VAR    BASINP    GEOM    SYMINP    ZMAT    AOBASIS   BASIS     P2S    ABASIS      S 
                                         1400     1410     1420     1200     1210     1080     1600     1650     1300     1700   
                                         EKIN       V       ECP      H0       H01     AOSYM     SMH    MOLCAS    ERIS     OPER   
                                         1380   
                                         JKOP   

              2       4        2.81       700     1000      520     2100   
                                         GEOM     BASIS   MCVARS     RHF  

 PROGRAMS   *        TOTAL        CI        HF       INT
 CPU TIMES  *         1.64      0.19      0.12      1.23
 REAL TIME  *         7.38 SEC
 DISK USED  *        59.03 MB      
 **********************************************************************************************************************************
 SETTING POSTHF(I)      =       -47.65260336  AU                              
                                                                                                                                                                                                                                                                

        SCF            POSTHF        EKIN           POT
    -47.35715947   -47.65260336   36.73737044   -13.33648672
                                                  

 CI/USERDEF energy=    -47.652603363685

        CI              HF-SCF  
    -47.65260336    -47.35715947
 **********************************************************************************************************************************
 Molpro calculation terminated
 Variable memory released
