
 Primary working directories    : /global/cscratch1/sd/aannabe
 Secondary working directories  : /global/cscratch1/sd/aannabe
 Wavefunction directory         : /global/homes/a/aannabe/wfu/
 Main file repository           : /global/cscratch1/sd/aannabe/

 SHA1      : 2873118e99aab1bc19f5b6fc1784693c06d15c95
 NAME      : 2015.1.8
 ARCHNAME  : linux/x86_64
 FC        : /opt/cray/pe/craype/2.5.5/bin/ftn
 BLASLIB   : -Wl,-_start-group /opt/intel/compilers_and_libraries_2016.3.210/linux/mkl/lib/intel64/libmkl_intel_ilp64.a /opt/intel/compilers_and_libraries_2016.3.210/linux/mkl/lib/intel64/libmkl_intel_thread.a /opt/intel/compilers_and_libraries_2016.3.210/linux/mkl/lib/intel64/libmkl_core.a -Wl,-_end-group
 id        : lbl

 Nodes     nprocs
 nid00521     1

 Using customized tuning parameters: mindgm=8; mindgv=16; mindgc=4; mindgr=1; noblas=0; minvec=7
 default implementation of scratch files=df  

 ***,Ni
 memory,512,m
 gthresh,twoint=1.e-12
 
 gprint,basis,orbitals
 gexpec,ekin,pot
 
 angstrom
 geometry={
 1                                                                               ! Number of atoms
 Ni 0.0 0.0 0.0
 }
 
 basis={
 Including file /global/homes/a/aannabe/docs/accurate/ccECP_D2h/pps/Ni.pp
                                             !include,/global/homes/a/aannabe/docs/accurate/ccECP_D2h/basis/aug-cc-pVnZ/Ni_qz.basis
 Including file /global/homes/a/aannabe/docs/accurate/ccECP_D2h/basis/cc-pVnZ/Ni_qz.basis
 }
 
 {hf
 wf,18,6,2
 occ,4,1,1,1,1,1,1,0
 open,1.4,1.7
 sym,1,1,1,3,2
 }
 scf(i)=energy
 
 _CC_NORM_MAX=2.0
 {uccsd(t)
 maxit,100
 core
 }
 posthf(i)=energy
 
 table,scf,posthf,ekin,pot
 save,4.csv,new
 
 

 Variables initialized (889), CPU time= 0.00 sec
 Commands  initialized (702), CPU time= 0.02 sec, 572 directives.
 Default parameters read. Elapsed time= 0.37 sec

 Checking input...
 Passed
1


                                         ***  PROGRAM SYSTEM MOLPRO  ***
                                       Copyright, TTI GmbH Stuttgart, 2015
                                    Version 2015.1 linked Sep  7 2016 23:09:38


 **********************************************************************************************************************************
 LABEL *   Ni                                                                            
  64 bit serial version                                                                  DATE: 13-Nov-18          TIME: 22:26:48  
 **********************************************************************************************************************************

 SHA1:             2873118e99aab1bc19f5b6fc1784693c06d15c95
 **********************************************************************************************************************************

 THRESHOLDS:

 ZERO    =  1.00D-12  ONEINT  =  1.00D-12  TWOINT  =  1.00D-12  PREFAC  =  1.00D-14  LOCALI  =  1.00D-09  EORDER  =  1.00D-04
 ENERGY  =  0.00D+00  ETEST   =  0.00D+00  EDENS   =  0.00D+00  THRDEDEF=  1.00D-06  GRADIENT=  1.00D-02  STEP    =  1.00D-03
 ORBITAL =  1.00D-05  CIVEC   =  1.00D-05  COEFF   =  1.00D-04  PRINTCI =  5.00D-02  PUNCHCI =  9.90D+01  OPTGRAD =  3.00D-04
 OPTENERG=  1.00D-06  OPTSTEP =  3.00D-04  THRGRAD =  1.00D-10  COMPRESS=  1.00D-11  VARMIN  =  1.00D-07  VARMAX  =  1.00D-03
 THRDOUB =  0.00D+00  THRDIV  =  1.00D-05  THRRED  =  1.00D-07  THRPSP  =  1.00D+00  THRDC   =  1.00D-10  THRCS   =  1.00D-10
 THRNRM  =  1.00D-08  THREQ   =  0.00D+00  THRDE   =  1.00D+00  THRREF  =  1.00D-05  SPARFAC =  1.00D+00  THRDLP  =  1.00D-07
 THRDIA  =  1.00D-10  THRDLS  =  1.00D-07  THRGPS  =  0.00D+00  THRKEX  =  0.00D+00  THRDIS  =  2.00D-01  THRVAR  =  1.00D-10
 THRLOC  =  1.00D-06  THRGAP  =  1.00D-06  THRLOCT = -1.00D+00  THRGAPT = -1.00D+00  THRORB  =  1.00D-06  THRMLTP =  0.00D+00
 THRCPQCI=  1.00D-10  KEXTA   =  0.00D+00  THRCOARS=  0.00D+00  SYMTOL  =  1.00D-06  GRADTOL =  1.00D-06  THROVL  =  1.00D-08
 THRORTH =  1.00D-08  GRID    =  1.00D-06  GRIDMAX =  1.00D-03  DTMAX   =  0.00D+00  THROCCDE=  1.00D-01  THROCCDE=  1.00D-01



 ZUNIT=ANG
 

Geometry recognized as XYZ


 Variable memory set to  512000000 words,  buffer space   230000 words

 SETTING BASIS          =    USERDEF


 Recomputing integrals since basis changed


 Using spherical harmonics



 PROGRAM * SEWARD (Integral evaluation for generally contracted gaussian basis sets)     Author: Roland Lindh, 1990

 Geometry written to block  1 of record 700

 Orientation using atomic masses  
 Molecule type: Atom
 Symmetry elements: X,Y,Z
 Rotational constants:       0.0000000      0.0000000      0.0000000 GHz  (calculated with average atomic masses)

 Point group  D2h 



 ATOMIC COORDINATES

 NR  ATOM    CHARGE       X              Y              Z

   1  NI     18.00    0.000000000    0.000000000    0.000000000


          NI  CORE POTENTIAL

          d POTENTIAL

 POWERS             1              3              2              2
 EXPONENTIALS   28.26300       26.93603       27.08601       12.21300    
 COEFFICIENTS   18.00000       508.7340      -220.1000      -2.134933    

          s - d POTENTIAL

 POWERS             2              2
 EXPONENTIALS   26.43202       11.74897    
 COEFFICIENTS   321.2400       60.34701    

          p - d POTENTIAL

 POWERS             2              2
 EXPONENTIALS   29.49300       11.55698    
 COEFFICIENTS   236.5400       44.39699    


 BASIS DATA

   Nr Sym  Nuc  Type         Exponents   Contraction coefficients

    1.1 Ag    1  1s          97.161835     0.000709   -0.000140    0.000121    0.000434    0.002461    0.000000
    2.1 Ag                   51.187866    -0.012399    0.002756    0.003322    0.004848   -0.023460    0.000000
    3.1 Ag                   26.996725     0.107220   -0.025482   -0.045785   -0.087818    0.198590    0.000000
    4.1 Ag                   15.523536    -0.124556    0.032182    0.053415    0.121852   -0.402525    0.000000
    5.1 Ag                    8.916168    -0.351023    0.086226    0.222270    0.454218   -0.405568    0.000000
    6.1 Ag                    4.795806    -0.025758    0.001104   -0.073065   -0.245765    0.387893    0.000000
                              2.619926     0.498948   -0.135790   -0.293998   -0.997345    2.684679    0.000000
                              1.330111     0.568986   -0.215724   -0.668938   -0.834586   -2.955956    0.000000
                              0.668901     0.191121   -0.158367    0.297504    2.285675   -0.667467    0.000000
                              0.230439     0.010278    0.143499    1.233748    0.251538    4.094074    0.000000
                              0.121518    -0.003627    0.443672    0.129317   -1.988796   -3.103355    0.000000
                              0.057951     0.001295    0.472558   -0.603407    0.347602   -0.768728    0.000000
                              0.027201    -0.000307    0.110173   -0.533062    0.824150    1.331217    1.000000
    7.1 Ag    1  1s           2.749235     1.000000
    8.1 Ag    1  1s           3.424032     1.000000
    9.1 Ag    1  3d0        177.900125     0.000049
                             57.372112     0.007519
                             29.881432     0.036455
                             13.971757     0.086901
                              6.841152     0.180568
                              3.379983     0.268187
                              1.651827     0.296756
                              0.799251     0.251558
                              0.388057     0.162319
                              0.191191     0.072119
                              0.093358     0.023689
   10.1 Ag    1  3d2+       177.900125     0.000049
                             57.372112     0.007519
                             29.881432     0.036455
                             13.971757     0.086901
                              6.841152     0.180568
                              3.379983     0.268187
                              1.651827     0.296756
                              0.799251     0.251558
                              0.388057     0.162319
                              0.191191     0.072119
                              0.093358     0.023689
   11.1 Ag    1  3d0        177.900125    -0.000053
                             57.372112    -0.008850
                             29.881432    -0.041916
                             13.971757    -0.104691
                              6.841152    -0.219464
                              3.379983    -0.283712
                              1.651827    -0.122127
                              0.799251     0.190123
                              0.388057     0.376598
                              0.191191     0.295122
                              0.093358     0.178252
   12.1 Ag    1  3d2+       177.900125    -0.000053
                             57.372112    -0.008850
                             29.881432    -0.041916
                             13.971757    -0.104691
                              6.841152    -0.219464
                              3.379983    -0.283712
                              1.651827    -0.122127
                              0.799251     0.190123
                              0.388057     0.376598
                              0.191191     0.295122
                              0.093358     0.178252
   13.1 Ag    1  3d0        177.900125     0.000079
                             57.372112     0.011442
                             29.881432     0.053972
                             13.971757     0.141068
                              6.841152     0.302294
                              3.379983     0.236558
                              1.651827    -0.291311
                              0.799251    -0.581758
                              0.388057    -0.024063
                              0.191191     0.389387
                              0.093358     0.430833
   14.1 Ag    1  3d2+       177.900125     0.000079
                             57.372112     0.011442
                             29.881432     0.053972
                             13.971757     0.141068
                              6.841152     0.302294
                              3.379983     0.236558
                              1.651827    -0.291311
                              0.799251    -0.581758
                              0.388057    -0.024063
                              0.191191     0.389387
                              0.093358     0.430833
   15.1 Ag    1  3d0        177.900125    -0.000124
                             57.372112    -0.016602
                             29.881432    -0.077533
                             13.971757    -0.221826
                              6.841152    -0.481658
                              3.379983     0.182447
                              1.651827     0.945626
                              0.799251    -0.334241
                              0.388057    -0.761164
                              0.191191     0.136816
                              0.093358     0.600785
   16.1 Ag    1  3d2+       177.900125    -0.000124
                             57.372112    -0.016602
                             29.881432    -0.077533
                             13.971757    -0.221826
                              6.841152    -0.481658
                              3.379983     0.182447
                              1.651827     0.945626
                              0.799251    -0.334241
                              0.388057    -0.761164
                              0.191191     0.136816
                              0.093358     0.600785
   17.1 Ag    1  3d0        177.900125     0.000000
                             57.372112     0.000000
                             29.881432     0.000000
                             13.971757     0.000000
                              6.841152     0.000000
                              3.379983     0.000000
                              1.651827     0.000000
                              0.799251     0.000000
                              0.388057     0.000000
                              0.191191     0.000000
                              0.093358     1.000000
   18.1 Ag    1  3d2+       177.900125     0.000000
                             57.372112     0.000000
                             29.881432     0.000000
                             13.971757     0.000000
                              6.841152     0.000000
                              3.379983     0.000000
                              1.651827     0.000000
                              0.799251     0.000000
                              0.388057     0.000000
                              0.191191     0.000000
                              0.093358     1.000000
   19.1 Ag    1  3d0          4.388587     1.000000
   20.1 Ag    1  3d2+         4.388587     1.000000
   21.1 Ag    1  3d0          5.303761     1.000000
   22.1 Ag    1  3d2+         5.303761     1.000000
   23.1 Ag    1  5g0          1.549000     1.000000
   24.1 Ag    1  5g4+         1.549000     1.000000
   25.1 Ag    1  5g2+         1.549000     1.000000
   26.1 Ag    1  5g0          5.290163     1.000000
   27.1 Ag    1  5g4+         5.290163     1.000000
   28.1 Ag    1  5g2+         5.290163     1.000000
   29.1 Ag    1  5g0          7.523045     1.000000
   30.1 Ag    1  5g4+         7.523045     1.000000
   31.1 Ag    1  5g2+         7.523045     1.000000
    1.2 B3u   1  2px        148.087630     0.000055    0.000027   -0.000237   -0.000260    0.000080    0.000000
    2.2 B3u                  77.452187    -0.000548   -0.000088    0.001456    0.001071   -0.000101    0.000000
    3.2 B3u                  40.915636     0.006979   -0.000773   -0.009745    0.002322   -0.006492    0.000000
    4.2 B3u                  22.575667    -0.023658    0.003345    0.037799   -0.032140    0.083129    0.000000
    5.2 B3u                  13.218268    -0.075682    0.019405    0.052521   -0.134136    0.195393    0.000000
    6.2 B3u                   7.232093     0.027253   -0.014288   -0.035006    0.229062   -0.765806    0.000000
                              4.054870     0.284778   -0.054527   -0.455577    0.752239   -1.206017    0.000000
                              2.122089     0.427632   -0.116454   -0.368306    0.205535    2.424444    0.000000
                              1.092769     0.309937   -0.060236    0.100392   -1.692910   -0.079387    0.000000
                              0.548240     0.088535   -0.023928    1.076652    0.436295   -2.325449    0.000000
                              0.238886     0.006427    0.347869   -0.045326    1.219514    2.129133    0.000000
                              0.084667     0.000708    0.522626   -0.703186   -0.945516   -0.733585    0.000000
                              0.038921     0.000186    0.276471    0.004580   -0.062232   -0.180444    1.000000
    7.2 B3u   1  2px          2.987946     1.000000
    8.2 B3u   1  2px          9.332016     1.000000
    9.2 B3u   1  4f1+         0.659980     1.000000
   10.2 B3u   1  4f3+         0.659980     1.000000
   11.2 B3u   1  4f1+         2.182234     1.000000
   12.2 B3u   1  4f3+         2.182234     1.000000
   13.2 B3u   1  4f1+         7.215589     1.000000
   14.2 B3u   1  4f3+         7.215589     1.000000
   15.2 B3u   1  4f1+         4.238774     1.000000
   16.2 B3u   1  4f3+         4.238774     1.000000
   17.2 B3u   1  6h1+         3.361535     1.000000
   18.2 B3u   1  6h3+         3.361535     1.000000
   19.2 B3u   1  6h5+         3.361535     1.000000
   20.2 B3u   1  6h1+         7.787971     1.000000
   21.2 B3u   1  6h3+         7.787971     1.000000
   22.2 B3u   1  6h5+         7.787971     1.000000
    1.3 B2u   1  2py        148.087630     0.000055    0.000027   -0.000237   -0.000260    0.000080    0.000000
    2.3 B2u                  77.452187    -0.000548   -0.000088    0.001456    0.001071   -0.000101    0.000000
    3.3 B2u                  40.915636     0.006979   -0.000773   -0.009745    0.002322   -0.006492    0.000000
    4.3 B2u                  22.575667    -0.023658    0.003345    0.037799   -0.032140    0.083129    0.000000
    5.3 B2u                  13.218268    -0.075682    0.019405    0.052521   -0.134136    0.195393    0.000000
    6.3 B2u                   7.232093     0.027253   -0.014288   -0.035006    0.229062   -0.765806    0.000000
                              4.054870     0.284778   -0.054527   -0.455577    0.752239   -1.206017    0.000000
                              2.122089     0.427632   -0.116454   -0.368306    0.205535    2.424444    0.000000
                              1.092769     0.309937   -0.060236    0.100392   -1.692910   -0.079387    0.000000
                              0.548240     0.088535   -0.023928    1.076652    0.436295   -2.325449    0.000000
                              0.238886     0.006427    0.347869   -0.045326    1.219514    2.129133    0.000000
                              0.084667     0.000708    0.522626   -0.703186   -0.945516   -0.733585    0.000000
                              0.038921     0.000186    0.276471    0.004580   -0.062232   -0.180444    1.000000
    7.3 B2u   1  2py          2.987946     1.000000
    8.3 B2u   1  2py          9.332016     1.000000
    9.3 B2u   1  4f1-         0.659980     1.000000
   10.3 B2u   1  4f3-         0.659980     1.000000
   11.3 B2u   1  4f1-         2.182234     1.000000
   12.3 B2u   1  4f3-         2.182234     1.000000
   13.3 B2u   1  4f1-         7.215589     1.000000
   14.3 B2u   1  4f3-         7.215589     1.000000
   15.3 B2u   1  4f1-         4.238774     1.000000
   16.3 B2u   1  4f3-         4.238774     1.000000
   17.3 B2u   1  6h1-         3.361535     1.000000
   18.3 B2u   1  6h3-         3.361535     1.000000
   19.3 B2u   1  6h5-         3.361535     1.000000
   20.3 B2u   1  6h1-         7.787971     1.000000
   21.3 B2u   1  6h3-         7.787971     1.000000
   22.3 B2u   1  6h5-         7.787971     1.000000
    1.4 B1g   1  3d2-       177.900125     0.000049   -0.000053    0.000079   -0.000124    0.000000
    2.4 B1g                  57.372112     0.007519   -0.008850    0.011442   -0.016602    0.000000
    3.4 B1g                  29.881432     0.036455   -0.041916    0.053972   -0.077533    0.000000
    4.4 B1g                  13.971757     0.086901   -0.104691    0.141068   -0.221826    0.000000
    5.4 B1g                   6.841152     0.180568   -0.219464    0.302294   -0.481658    0.000000
                              3.379983     0.268187   -0.283712    0.236558    0.182447    0.000000
                              1.651827     0.296756   -0.122127   -0.291311    0.945626    0.000000
                              0.799251     0.251558    0.190123   -0.581758   -0.334241    0.000000
                              0.388057     0.162319    0.376598   -0.024063   -0.761164    0.000000
                              0.191191     0.072119    0.295122    0.389387    0.136816    0.000000
                              0.093358     0.023689    0.178252    0.430833    0.600785    1.000000
    6.4 B1g   1  3d2-         4.388587     1.000000
    7.4 B1g   1  3d2-         5.303761     1.000000
    8.4 B1g   1  5g2-         1.549000     1.000000
    9.4 B1g   1  5g4-         1.549000     1.000000
   10.4 B1g   1  5g2-         5.290163     1.000000
   11.4 B1g   1  5g4-         5.290163     1.000000
   12.4 B1g   1  5g2-         7.523045     1.000000
   13.4 B1g   1  5g4-         7.523045     1.000000
    1.5 B1u   1  2pz        148.087630     0.000055    0.000027   -0.000237   -0.000260    0.000080    0.000000
    2.5 B1u                  77.452187    -0.000548   -0.000088    0.001456    0.001071   -0.000101    0.000000
    3.5 B1u                  40.915636     0.006979   -0.000773   -0.009745    0.002322   -0.006492    0.000000
    4.5 B1u                  22.575667    -0.023658    0.003345    0.037799   -0.032140    0.083129    0.000000
    5.5 B1u                  13.218268    -0.075682    0.019405    0.052521   -0.134136    0.195393    0.000000
    6.5 B1u                   7.232093     0.027253   -0.014288   -0.035006    0.229062   -0.765806    0.000000
                              4.054870     0.284778   -0.054527   -0.455577    0.752239   -1.206017    0.000000
                              2.122089     0.427632   -0.116454   -0.368306    0.205535    2.424444    0.000000
                              1.092769     0.309937   -0.060236    0.100392   -1.692910   -0.079387    0.000000
                              0.548240     0.088535   -0.023928    1.076652    0.436295   -2.325449    0.000000
                              0.238886     0.006427    0.347869   -0.045326    1.219514    2.129133    0.000000
                              0.084667     0.000708    0.522626   -0.703186   -0.945516   -0.733585    0.000000
                              0.038921     0.000186    0.276471    0.004580   -0.062232   -0.180444    1.000000
    7.5 B1u   1  2pz          2.987946     1.000000
    8.5 B1u   1  2pz          9.332016     1.000000
    9.5 B1u   1  4f0          0.659980     1.000000
   10.5 B1u   1  4f2+         0.659980     1.000000
   11.5 B1u   1  4f0          2.182234     1.000000
   12.5 B1u   1  4f2+         2.182234     1.000000
   13.5 B1u   1  4f0          7.215589     1.000000
   14.5 B1u   1  4f2+         7.215589     1.000000
   15.5 B1u   1  4f0          4.238774     1.000000
   16.5 B1u   1  4f2+         4.238774     1.000000
   17.5 B1u   1  6h2+         3.361535     1.000000
   18.5 B1u   1  6h4+         3.361535     1.000000
   19.5 B1u   1  6h0          3.361535     1.000000
   20.5 B1u   1  6h2+         7.787971     1.000000
   21.5 B1u   1  6h4+         7.787971     1.000000
   22.5 B1u   1  6h0          7.787971     1.000000
    1.6 B2g   1  3d1+       177.900125     0.000049   -0.000053    0.000079   -0.000124    0.000000
    2.6 B2g                  57.372112     0.007519   -0.008850    0.011442   -0.016602    0.000000
    3.6 B2g                  29.881432     0.036455   -0.041916    0.053972   -0.077533    0.000000
    4.6 B2g                  13.971757     0.086901   -0.104691    0.141068   -0.221826    0.000000
    5.6 B2g                   6.841152     0.180568   -0.219464    0.302294   -0.481658    0.000000
                              3.379983     0.268187   -0.283712    0.236558    0.182447    0.000000
                              1.651827     0.296756   -0.122127   -0.291311    0.945626    0.000000
                              0.799251     0.251558    0.190123   -0.581758   -0.334241    0.000000
                              0.388057     0.162319    0.376598   -0.024063   -0.761164    0.000000
                              0.191191     0.072119    0.295122    0.389387    0.136816    0.000000
                              0.093358     0.023689    0.178252    0.430833    0.600785    1.000000
    6.6 B2g   1  3d1+         4.388587     1.000000
    7.6 B2g   1  3d1+         5.303761     1.000000
    8.6 B2g   1  5g1+         1.549000     1.000000
    9.6 B2g   1  5g3+         1.549000     1.000000
   10.6 B2g   1  5g1+         5.290163     1.000000
   11.6 B2g   1  5g3+         5.290163     1.000000
   12.6 B2g   1  5g1+         7.523045     1.000000
   13.6 B2g   1  5g3+         7.523045     1.000000
    1.7 B3g   1  3d1-       177.900125     0.000049   -0.000053    0.000079   -0.000124    0.000000
    2.7 B3g                  57.372112     0.007519   -0.008850    0.011442   -0.016602    0.000000
    3.7 B3g                  29.881432     0.036455   -0.041916    0.053972   -0.077533    0.000000
    4.7 B3g                  13.971757     0.086901   -0.104691    0.141068   -0.221826    0.000000
    5.7 B3g                   6.841152     0.180568   -0.219464    0.302294   -0.481658    0.000000
                              3.379983     0.268187   -0.283712    0.236558    0.182447    0.000000
                              1.651827     0.296756   -0.122127   -0.291311    0.945626    0.000000
                              0.799251     0.251558    0.190123   -0.581758   -0.334241    0.000000
                              0.388057     0.162319    0.376598   -0.024063   -0.761164    0.000000
                              0.191191     0.072119    0.295122    0.389387    0.136816    0.000000
                              0.093358     0.023689    0.178252    0.430833    0.600785    1.000000
    6.7 B3g   1  3d1-         4.388587     1.000000
    7.7 B3g   1  3d1-         5.303761     1.000000
    8.7 B3g   1  5g1-         1.549000     1.000000
    9.7 B3g   1  5g3-         1.549000     1.000000
   10.7 B3g   1  5g1-         5.290163     1.000000
   11.7 B3g   1  5g3-         5.290163     1.000000
   12.7 B3g   1  5g1-         7.523045     1.000000
   13.7 B3g   1  5g3-         7.523045     1.000000
    1.8 Au    1  4f2-         0.659980     1.000000
    2.8 Au    1  4f2-         2.182234     1.000000
    3.8 Au    1  4f2-         7.215589     1.000000
    4.8 Au    1  4f2-         4.238774     1.000000
    5.8 Au    1  6h4-         3.361535     1.000000
    6.8 Au    1  6h2-         3.361535     1.000000
    7.8 Au    1  6h4-         7.787971     1.000000
    8.8 Au    1  6h2-         7.787971     1.000000

 NUCLEAR CHARGE:                   18
 NUMBER OF PRIMITIVE AOS:         265
 NUMBER OF SYMMETRY AOS:          202
 NUMBER OF CONTRACTIONS:          144   (  31Ag  +  22B3u +  22B2u +  13B1g +  22B1u +  13B2g +  13B3g +   8Au  )
 NUMBER OF CORE ORBITALS:           4   (   1Ag  +   1B3u +   1B2u +   0B1g +   1B1u +   0B2g +   0B3g +   0Au  )
 NUMBER OF VALENCE ORBITALS:        6   (   3Ag  +   0B3u +   0B2u +   1B1g +   0B1u +   1B2g +   1B3g +   0Au  )


 NUCLEAR REPULSION ENERGY    0.00000000

 EXTRA SYMMETRY OF AOS IN SYMMETRY 1:   1 1 1 1 1 1 1 1 2 3   2 3 2 3 2 3 2 3 2 3   2 3 4 5 6 4 5 6 4 5   6
 EXTRA SYMMETRY OF AOS IN SYMMETRY 2:   1 1 1 1 1 1 1 1 2 3   2 3 2 3 2 3 4 5 6 4   5 6
 EXTRA SYMMETRY OF AOS IN SYMMETRY 3:   1 1 1 1 1 1 1 1 2 3   2 3 2 3 2 3 4 5 6 4   5 6
 EXTRA SYMMETRY OF AOS IN SYMMETRY 4:   1 1 1 1 1 1 1 2 3 2   3 2 3
 EXTRA SYMMETRY OF AOS IN SYMMETRY 5:   1 1 1 1 1 1 1 1 2 3   2 3 2 3 2 3 4 5 6 4   5 6
 EXTRA SYMMETRY OF AOS IN SYMMETRY 6:   1 1 1 1 1 1 1 2 3 2   3 2 3
 EXTRA SYMMETRY OF AOS IN SYMMETRY 7:   1 1 1 1 1 1 1 2 3 2   3 2 3
 EXTRA SYMMETRY OF AOS IN SYMMETRY 8:   1 1 1 1 2 3 2 3

 Eigenvalues of metric

         1 0.199E-03 0.211E-02 0.211E-02 0.307E-02 0.240E-01 0.240E-01 0.496E-01 0.496E-01
         2 0.126E-02 0.402E-01 0.402E-01 0.649E-01 0.152E+00 0.380E+00 0.380E+00 0.427E+00
         3 0.126E-02 0.402E-01 0.402E-01 0.649E-01 0.152E+00 0.380E+00 0.380E+00 0.427E+00
         4 0.211E-02 0.240E-01 0.496E-01 0.648E-01 0.648E-01 0.857E+00 0.857E+00 0.999E+00
         5 0.126E-02 0.402E-01 0.402E-01 0.649E-01 0.152E+00 0.380E+00 0.380E+00 0.427E+00
         6 0.211E-02 0.240E-01 0.496E-01 0.648E-01 0.648E-01 0.857E+00 0.857E+00 0.999E+00
         7 0.211E-02 0.240E-01 0.496E-01 0.648E-01 0.648E-01 0.857E+00 0.857E+00 0.999E+00
         8 0.402E-01 0.380E+00 0.427E+00 0.427E+00 0.105E+01 0.157E+01 0.157E+01 0.253E+01


 Contracted 2-electron integrals neglected if value below      1.0D-12
 AO integral compression algorithm  1   Integral accuracy      1.0D-12

     54.002 MB (compressed) written to integral file ( 58.2%)


 NUMBER OF SORTED TWO-ELECTRON INTEGRALS:    7063297.     BUFFER LENGTH:  32768
 NUMBER OF SEGMENTS:   1  SEGMENT LENGTH:    7063297      RECORD LENGTH: 524288

 Memory used in sort:       7.62 MW

 SORT1 READ    11599838. AND WROTE     4948094. INTEGRALS IN     15 RECORDS. CPU TIME:     0.37 SEC, REAL TIME:     0.53 SEC
 SORT2 READ     4948094. AND WROTE     7063297. INTEGRALS IN    206 RECORDS. CPU TIME:     0.32 SEC, REAL TIME:     0.56 SEC

 FILE SIZES:   FILE 1:    73.6 MBYTE,  FILE 4:    62.9 MBYTE,   TOTAL:    136.5 MBYTE

 OPERATOR DM      FOR CENTER  0  COORDINATES:    0.000000    0.000000    0.000000
 OPERATOR EKIN    FOR CENTER  0  COORDINATES:    0.000000    0.000000    0.000000
 OPERATOR POT     FOR CENTER  0  COORDINATES:    0.000000    0.000000    0.000000


 **********************************************************************************************************************************
 DATASETS  * FILE   NREC   LENGTH (MB)   RECORD NAMES
              1      20       51.65       500      610      700      900      950      970     1000      129      960     1100   
                                          VAR    BASINP    GEOM    SYMINP    ZMAT    AOBASIS   BASIS     P2S    ABASIS      S 
                                         1400     1410     1420     1200     1210     1080     1600     1650     1300     1700   
                                         EKIN       V       ECP      H0       H01     AOSYM     SMH    MOLCAS    ERIS     OPER   

 PROGRAMS   *        TOTAL       INT
 CPU TIMES  *         4.52      4.33
 REAL TIME  *         6.86 SEC
 DISK USED  *       136.86 MB      
 **********************************************************************************************************************************


 PROGRAM * RHF-SCF (OPEN SHELL)       Authors: W. Meyer, H.-J. Werner


 NUMBER OF ELECTRONS:      10+    8-    SPACE SYMMETRY=6    SPIN SYMMETRY: Triplet 
 CONVERGENCE THRESHOLDS:    1.00E-05 (Density)    1.00E-07 (Energy)
 MAX. NUMBER OF ITERATIONS:       60
 INTERPOLATION TYPE:            DIIS
 INTERPOLATION STEPS:              2 (START)      1 (STEP)
 LEVEL SHIFTS:                 -0.60 (CLOSED) -0.30 (OPEN) 


 Singly occupied orbitals:      1.4       1.7
 
 Extra symmetries of mos in symmetry 1:   1   1   3   2

   Atom=NI basis=ECP10MDF_GUESS    lmin=0  lmax=2

 Orbital guess generated from atomic densities. Full valence occupancy:    4   1   1   1   1   1   1   0


 Molecular orbital dump at record        2100.2

 ITERATION    DDIFF          GRAD             ENERGY        2-EL.EN.            DIPOLE MOMENTS         DIIS   ORB.
    1      0.000D+00      0.000D+00      -166.81335972    226.801702    0.00000    0.00000    0.00000    0    start
    2      0.000D+00      0.138D+00      -167.86141228    279.860852    0.00000    0.00000    0.00000    1    diag,B
    3      0.310D-01      0.111D+00      -168.43560659    265.057308    0.00000    0.00000    0.00000    2    diag,B
    4      0.976D-02      0.157D-01      -168.45719794    263.773398    0.00000    0.00000    0.00000    3    diag,B
    5      0.364D-02      0.272D-02      -168.46117479    264.242243    0.00000    0.00000    0.00000    4    diag,B
    6      0.580D-02      0.989D-03      -168.46212976    264.555812    0.00000    0.00000    0.00000    5    diag,B
    7      0.740D-02      0.446D-03      -168.46242712    264.675301    0.00000    0.00000    0.00000    6    fixocc
    8      0.788D-02      0.163D-03      -168.46246312    264.723265    0.00000    0.00000    0.00000    7    diag,B
    9      0.328D-02      0.421D-04      -168.46246418    264.730124    0.00000    0.00000    0.00000    8    diag,B
   10      0.170D-03      0.104D-04      -168.46246425    264.731280    0.00000    0.00000    0.00000    9    orth
   11      0.816D-04      0.281D-05      -168.46246425    264.731489    0.00000    0.00000    0.00000    9    diag,B
   12      0.344D-04      0.697D-06      -168.46246425    264.731676    0.00000    0.00000    0.00000    9    diag,B
   13      0.394D-05      0.178D-06      -168.46246425    264.731673    0.00000    0.00000    0.00000    0    orth

 Final alpha occupancy:   4   1   1   1   1   1   1   0
 Final beta  occupancy:   4   1   1   0   1   1   0   0

 !RHF STATE 1.6 Energy               -168.462464253771
 Nuclear energy                         0.00000000
 One-electron energy                 -300.82830081
 Two-electron energy                  132.36583656
 Virial quotient                       -1.57468722
 !RHF STATE 1.6 Dipole moment           0.00000000     0.00000000     0.00000000
 Dipole moment /Debye                   0.00000000     0.00000000     0.00000000
 

 !RHF expec          <1.6|EKIN|1.6>   106.981540164173
 
 !RHF expec           <1.6|POT|1.6>   -23.586577744520

 ELECTRON ORBITALS
 =================


   Orb  Occ    Energy  Couls-En    Coefficients

                                   1 1s      1 1s      1 1s      1 1s      1 1s      1 1s      1 1s      1 1s      1 3d0     1 3d2+ 
                                   1 3d0     1 3d2+    1 3d0     1 3d2+    1 3d0     1 3d2+    1 3d0     1 3d2+    1 3d0     1 3d2+ 
                                   1 3d0     1 3d2+    1 5g0     1 5g4+    1 5g2+    1 5g0     1 5g4+    1 5g2+    1 5g0     1 5g4+ 
                                   1 5g2+ 

   1.1   2    -5.0536  -26.4332  0.999915  0.000052  0.000007  0.000035 -0.000001 -0.000041  0.000359 -0.000303 -0.002708 -0.004691
                                 0.000850  0.001472 -0.000311 -0.000539 -0.000417 -0.000722  0.000351  0.000608 -0.000677 -0.001173
                                 0.000287  0.000497  0.000379  0.000747  0.000565  0.000046  0.000091  0.000069  0.000094  0.000185
                                 0.000140

   2.1   2    -0.2813   -7.0838  0.000007  1.000000  0.000127 -0.000045  0.000006 -0.000089  0.000063 -0.000054 -0.000827 -0.001432
                                -0.005265 -0.009120 -0.001610 -0.002788  0.000023  0.000041 -0.000660 -0.001143  0.000040  0.000069
                                 0.000015  0.000025 -0.000001 -0.000001 -0.000001  0.000075  0.000148  0.000112 -0.000039 -0.000076
                                -0.000058

   3.1   2    -0.7032  -16.6655  0.005853  0.001069  0.000872  0.000217 -0.000047  0.000220  0.000661 -0.000582  0.499378  0.864948
                                -0.019031 -0.032962 -0.006793 -0.011767 -0.000758 -0.001312 -0.000259 -0.000449  0.000028  0.000048
                                -0.000004 -0.000007 -0.001077 -0.002125 -0.001606 -0.000367 -0.000724 -0.000548 -0.000085 -0.000167
                                -0.000126

   4.1   2    -0.6438  -16.4979 -0.000000 -0.000000  0.000000 -0.000000 -0.000000  0.000000 -0.000000  0.000000  0.866170 -0.500083
                                -0.018587  0.010731 -0.007345  0.004241 -0.001424  0.000822 -0.002192  0.001266  0.000160 -0.000093
                                -0.000391  0.000226 -0.000575  0.000680 -0.000514 -0.000277  0.000328 -0.000248 -0.000004  0.000004
                                -0.000003

                                   1 2px     1 2px     1 2px     1 2px     1 2px     1 2px     1 2px     1 2px     1 4f1+    1 4f3+ 
                                   1 4f1+    1 4f3+    1 4f1+    1 4f3+    1 4f1+    1 4f3+    1 6h1+    1 6h3+    1 6h5+    1 6h1+ 
                                   1 6h3+    1 6h5+ 

   1.2   2    -3.3150  -22.8024  1.000666  0.015118  0.012541 -0.000228 -0.000959 -0.004697 -0.000409  0.000110  0.000473  0.001830
                                 0.000371  0.001437  0.000216  0.000837 -0.000127 -0.000493 -0.000023 -0.000076 -0.000169 -0.000011
                                -0.000036 -0.000080

                                   1 2py     1 2py     1 2py     1 2py     1 2py     1 2py     1 2py     1 2py     1 4f1-    1 4f3- 
                                   1 4f1-    1 4f3-    1 4f1-    1 4f3-    1 4f1-    1 4f3-    1 6h1-    1 6h3-    1 6h5-    1 6h1- 
                                   1 6h3-    1 6h5- 

   1.3   2    -3.3238  -22.8211  0.999707  0.012522  0.011054 -0.000738 -0.000678 -0.003952  0.000700 -0.000213 -0.002310 -0.002983
                                -0.004206 -0.005431 -0.001587 -0.002049 -0.000354 -0.000457 -0.000101 -0.000109 -0.000146 -0.000054
                                -0.000058 -0.000078

                                   1 3d2-    1 3d2-    1 3d2-    1 3d2-    1 3d2-    1 3d2-    1 3d2-    1 5g2-    1 5g4-    1 5g2- 
                                   1 5g4-    1 5g2-    1 5g4- 

   1.4   +    -0.7689  -16.8584  0.996703 -0.057911 -0.018605 -0.000434  0.001941  0.000002  0.000543 -0.000947 -0.002507 -0.000375
                                -0.000993 -0.000056 -0.000148

                                   1 2pz     1 2pz     1 2pz     1 2pz     1 2pz     1 2pz     1 2pz     1 2pz     1 4f0     1 4f2+ 
                                   1 4f0     1 4f2+    1 4f0     1 4f2+    1 4f0     1 4f2+    1 6h2+    1 6h4+    1 6h0     1 6h2+ 
                                   1 6h4+    1 6h0  

   1.5   2    -3.3150  -22.8024  1.000666  0.015118  0.012541 -0.000228 -0.000959 -0.004697 -0.000409  0.000110  0.001158  0.001495
                                 0.000909  0.001173  0.000530  0.000684 -0.000312 -0.000402 -0.000124 -0.000107 -0.000091 -0.000058
                                -0.000050 -0.000043

                                   1 3d1+    1 3d1+    1 3d1+    1 3d1+    1 3d1+    1 3d1+    1 3d1+    1 5g1+    1 5g3+    1 5g1+ 
                                   1 5g3+    1 5g1+    1 5g3+ 

   1.6   2    -0.6438  -16.4979  1.000167 -0.021463 -0.008482 -0.001644 -0.002531  0.000185 -0.000452 -0.000364 -0.000962 -0.000175
                                -0.000464 -0.000002 -0.000006

                                   1 3d1-    1 3d1-    1 3d1-    1 3d1-    1 3d1-    1 3d1-    1 3d1-    1 5g1-    1 5g3-    1 5g1- 
                                   1 5g3-    1 5g1-    1 5g3- 

   1.7   +    -0.7689  -16.8584  0.996703 -0.057911 -0.018605 -0.000434  0.001941  0.000002  0.000543 -0.002010 -0.001772 -0.000796
                                -0.000702 -0.000119 -0.000105

 HOMO      4.1    -0.643751 =     -17.5174eV
 LUMO      2.3     0.041165 =       1.1202eV
 LUMO-HOMO         0.684916 =      18.6375eV


 **********************************************************************************************************************************
 DATASETS  * FILE   NREC   LENGTH (MB)   RECORD NAMES
              1      20       51.65       500      610      700      900      950      970     1000      129      960     1100   
                                          VAR    BASINP    GEOM    SYMINP    ZMAT    AOBASIS   BASIS     P2S    ABASIS      S 
                                         1400     1410     1420     1200     1210     1080     1600     1650     1300     1700   
                                         EKIN       V       ECP      H0       H01     AOSYM     SMH    MOLCAS    ERIS     OPER   

              2       4        2.86       700     1000      520     2100   
                                         GEOM     BASIS   MCVARS     RHF  

 PROGRAMS   *        TOTAL        HF       INT
 CPU TIMES  *         4.97      0.44      4.33
 REAL TIME  *         7.59 SEC
 DISK USED  *       136.86 MB      
 **********************************************************************************************************************************
 SETTING SCF(I)         =      -168.46246425  AU                              
 SETTING _CC_NORM_MAX   =         2.00000000                                  


 PROGRAM * CCSD (Unrestricted open-shell coupled cluster)     Authors: C. Hampel, H.-J. Werner, 1991, M. Deegan, P.J. Knowles, 1992


 Convergence thresholds:  THRVAR = 1.00D-08  THRDEN = 1.00D-06

 CCSD(T)     terms to be evaluated (factor= 1.000)


 Number of closed-shell orbitals:   8 (   4   1   1   0   1   1   0   0 )
 Number of active  orbitals:        2 (   0   0   0   1   0   0   1   0 )
 Number of external orbitals:     134 (  27  21  21  12  21  12  12   8 )

 Memory could be reduced to 6.65 Mwords without degradation in triples

 Number of N-1 electron functions:              18
 Number of N-2 electron functions:             153
 Number of singly external CSFs:               392
 Number of doubly external CSFs:            275140
 Total number of CSFs:                      275532

 Molecular orbitals read from record     2100.2  Type=RHF/CANONICAL (state 1.6)

 Integral transformation finished. Total CPU:   0.14 sec, npass=  1  Memory used:   1.37 MW

 Starting RMP2 calculation

 ITER.      SQ.NORM     CORR.ENERGY   TOTAL ENERGY   ENERGY CHANGE        DEN1      VAR(S)    VAR(P)  DIIS     TIME
   1      1.11085383    -0.86422679  -169.32669104    -0.86422679    -0.00114583  0.11D-04  0.71D-03  1  1     0.18
   2      1.11267461    -0.86543107  -169.32789533    -0.00120428    -0.00001679  0.37D-06  0.16D-04  2  2     0.18
   3      1.11296196    -0.86554517  -169.32800942    -0.00011409    -0.00000017  0.10D-07  0.13D-06  3  3     0.21
   4      1.11298381    -0.86555187  -169.32801612    -0.00000670    -0.00000000  0.48D-09  0.18D-08  4  4     0.24
   5      1.11298420    -0.86555170  -169.32801595     0.00000017    -0.00000000  0.16D-10  0.26D-10  5  5     0.26

 Norm of t1 vector:      0.03522739      S-energy:    -0.00609091      T1 diagnostic:  0.00009738
 Norm of t2 vector:      0.33428017      P-energy:    -0.85946079
                                         Alpha-Beta:  -0.60662437
                                         Alpha-Alpha: -0.15823735
                                         Beta-Beta:   -0.09459906

 Spin contamination <S**2-Sz**2-Sz>     0.00347028
  Reference energy                   -168.462464253771
  RHF-RMP2 correlation energy          -0.865551697771
 !RHF-RMP2 energy                    -169.328015951541

 Starting UCCSD calculation

 ITER.      SQ.NORM     CORR.ENERGY   TOTAL ENERGY   ENERGY CHANGE        DEN1      VAR(S)    VAR(P)  DIIS     TIME
   1      1.10415732    -0.80474502  -169.26720927    -0.80474502    -0.02668230  0.47D-02  0.46D-02  0  0     1.02
   2      1.12100177    -0.82879556  -169.29125981    -0.02405055    -0.00302377  0.50D-03  0.10D-02  1  1     1.54
   3      1.12626031    -0.82695551  -169.28941976     0.00184005    -0.00063525  0.27D-03  0.25D-03  2  2     2.24
   4      1.13419439    -0.82947948  -169.29194373    -0.00252396    -0.00012213  0.27D-04  0.51D-04  3  3     2.74
   5      1.13881321    -0.83068228  -169.29314653    -0.00120280    -0.00003614  0.11D-05  0.16D-04  4  4     3.26
   6      1.14096091    -0.83096002  -169.29342427    -0.00027774    -0.00001580  0.42D-05  0.66D-05  5  5     3.76
   7      1.14123461    -0.83097813  -169.29344238    -0.00001810    -0.00000378  0.14D-05  0.13D-05  6  6     4.26
   8      1.14113122    -0.83095437  -169.29341862     0.00002376    -0.00000065  0.38D-06  0.16D-06  6  1     4.78
   9      1.14104025    -0.83093796  -169.29340221     0.00001641    -0.00000008  0.19D-07  0.37D-07  6  2     5.31
  10      1.14103744    -0.83094293  -169.29340719    -0.00000497    -0.00000001  0.38D-09  0.63D-08  6  4     5.82
  11      1.14104261    -0.83094104  -169.29340530     0.00000189    -0.00000000  0.27D-09  0.12D-08  6  3     6.31
  12      1.14104754    -0.83094247  -169.29340673    -0.00000143    -0.00000000  0.72D-10  0.34D-09  6  5     6.81
  13      1.14104791    -0.83094190  -169.29340615     0.00000057    -0.00000000  0.57D-11  0.10D-09  6  6     7.30

 Norm of t1 vector:      0.11902210      S-energy:    -0.00627541      T1 diagnostic:  0.01820808
                                                                       D1 diagnostic:  0.06368776
 Norm of t2 vector:      0.35620451      P-energy:    -0.82466649
                                         Alpha-Beta:  -0.60147719
                                         Alpha-Alpha: -0.13776710
                                         Beta-Beta:   -0.08542220

 Singles amplitudes (print threshold =  0.500E-01):

         I         SYM. A    A   T(IA) [Alpha-Alpha]

         2         1         1      0.05983296
         2         1         4      0.05151320

 Doubles amplitudes (print threshold =  0.500E-01):

         I         J         SYM. A    SYM. B    A         B      T(IJ, AB) [Beta-Beta]

         9         4         4         7         1         1     -0.07872628
         9         4         7         4         1         1      0.07872628
 
         I         J         SYM. A    SYM. B    A         B      T(IJ, AB) [Alpha-Beta]

         2         2         2         2         1         1     -0.06301543
         2         2         2         2         1         2      0.05041714
         2         2         2         2         2         1      0.05188578
         2         2         3         3         1         1     -0.07113925
         2         2         3         3         1         2      0.05365312
         2         2         3         3         2         1      0.05578973
         2         2         5         5         1         1     -0.06301543
         2         2         5         5         1         2      0.05041714
         2         2         5         5         2         1      0.05188578

 Spin contamination <S**2-Sz**2-Sz>     0.00344589

 Memory could be reduced to 7.04 Mwords without degradation in triples
 

  Correlated core orbitals:             1.1       1.2       1.3       1.5
  Orbital energies:                    -5.1574   -3.4146   -3.4985   -3.4146
 
  UCCSD core-core energy               -0.139726178938
  UCCSD core-valence energy            -0.343485824485
  UCCSD valence correlation energy     -0.347729895858
 

 RESULTS
 =======

  Reference energy                   -168.462464253771
  UCCSD singles energy                 -0.006275407899
  UCCSD pair energy                    -0.824666491382
  UCCSD correlation energy             -0.830941899280
  Triples (T) contribution             -0.026009292066
  Total correlation energy             -0.856951191346
 
  RHF-UCCSD energy                   -169.293406153051
  RHF-UCCSD[T] energy                -169.320964381064
  RHF-UCCSD-T energy                 -169.319080504224
 !RHF-UCCSD(T) energy                -169.319415445117

 Program statistics:

 Available memory in ccsd:               511999000
 Min. memory needed in ccsd:                836301
 Max. memory used in ccsd:                 1170263
 Max. memory used in cckext:                957303 (13 integral passes)
 Max. memory used in cckint:               1373619 ( 1 integral passes)



 **********************************************************************************************************************************
 DATASETS  * FILE   NREC   LENGTH (MB)   RECORD NAMES
              1      20       51.65       500      610      700      900      950      970     1000      129      960     1100   
                                          VAR    BASINP    GEOM    SYMINP    ZMAT    AOBASIS   BASIS     P2S    ABASIS      S 
                                         1400     1410     1420     1200     1210     1080     1600     1650     1300     1700   
                                         EKIN       V       ECP      H0       H01     AOSYM     SMH    MOLCAS    ERIS     OPER   

              2       4        2.86       700     1000      520     2100   
                                         GEOM     BASIS   MCVARS     RHF  

 PROGRAMS   *        TOTAL  UCCSD(T)        HF       INT
 CPU TIMES  *        23.46     18.49      0.44      4.33
 REAL TIME  *        36.19 SEC
 DISK USED  *       181.87 MB      
 **********************************************************************************************************************************
 SETTING POSTHF(I)      =      -169.31941545  AU                              
                                                                                                                                                                                                                                                                

         SCF            POSTHF        EKIN          POT
    -168.4624643   -169.3194154   106.9815402   -23.58657774
                                                  

 UCCSD(T)/USERDEF energy=   -169.319415445117

        UCCSD(T)        HF-SCF  
   -169.31941545   -168.46246425
 **********************************************************************************************************************************
 Variable memory released
