TACC:  Starting up job 2983008 
TACC:  Starting parallel tasks... 
  Input file(s): K.log.qmc.in-wfj.xml 

=====================================================
                    QMCPACK 3.6.0

       (c) Copyright 2003-  QMCPACK developers

                    Please cite:
 J. Kim et al. J. Phys. Cond. Mat. 30 195901 (2018)
      https://doi.org/10.1088/1361-648X/aab9c3

  Git branch: develop
  Last git commit: 278b2da505fe49852d465a6e4d7961918d794c87
  Last git commit date: Thu Feb 14 11:22:02 2019 -0500
  Last git commit subject: Merge pull request #1379 from ye-luo/raise-boost-version
=====================================================
  Global options 

  MPI Nodes             = 1024
  MPI Nodes per group   = 1024
  MPI Group ID          = 0
  OMP 1st level threads = 1
  OMP nested threading disabled or only 1 thread on the 2nd level

  Precision used in this calculation, see definitions in the manual:
  Base precision      = double
  Full precision      = double

  Structure-of-arrays (SoA) optimization enabled

  Input XML = K.log.qmc.in-wfj.xml

  Project = K.log
  date    = 2019-02-21 12:43:19 CST
  host    = c456-053.stampede2.tacc.utexas.edu

 Random Number
 -------------
  Offset for the random number seeds based on time: 327

  Range of prime numbers to use as seeds over processors and threads = 2207-11171


 Particle Set 
 ------------
  Name: ion0
  All the species have the same mass 1
  Particle set size: 1

 Particle Set 
 ------------
  Name: e
  All the species have the same mass 1
  Particle set size: 9

 Wavefunction setup: 
 ------------------- 
  Name: psi0
  LCAO: SoaAtomicBasisSet<MultiQuintic,0>

  Distance table for similar particles (A-A):
    source/target: e
    Using structure-of-arrays (SoA) data layout
    Distance computations use open boundary conditions in 3D.


  Distance table for dissimilar particles (A-B):
    source: ion0  target: e
    Using structure-of-arrays (SoA) data layout
    Distance computations use open boundary conditions in 3D.

Reading BasisSet from HDF5 file:K.log.orbs.h5
<input node="atomicBasisSet" name="Gaussian" expandYlm="Gamess" angular="cartesian" elementType="K" normalized="no" type="Numerical" expM="0" />
  AO BasisSet for K
   Angular momentum expanded in cartesian functions x^lx y^ly z^lz according to Gamess
   Grid is created by the input paremters in h5
    Using log grid ri = 1e-06 rf = 100 npts = 1001
   R(n,l,m,s) 0 0 0 0
   R(n,l,m,s) 1 0 0 0
   R(n,l,m,s) 2 1 0 0
   R(n,l,m,s) 3 1 0 0
   R(n,l,m,s) 4 2 0 0
   R(n,l,m,s) 5 0 0 0
   R(n,l,m,s) 6 0 0 0
   R(n,l,m,s) 7 1 0 0
   R(n,l,m,s) 8 1 0 0
   R(n,l,m,s) 9 2 0 0
   R(n,l,m,s) 10 0 0 0
   R(n,l,m,s) 11 0 0 0
   R(n,l,m,s) 12 1 0 0
   R(n,l,m,s) 13 1 0 0
   R(n,l,m,s) 14 2 0 0
Expanding Ylm (angular function) according to Gamess using cartesian gaussians
Adding 1 cartesian gaussian orbitals for l= 0
Adding 1 cartesian gaussian orbitals for l= 0
Adding 3 cartesian gaussian orbitals for l= 1
Adding 3 cartesian gaussian orbitals for l= 1
Adding 6 cartesian gaussian orbitals for l= 2
Adding 1 cartesian gaussian orbitals for l= 0
Adding 1 cartesian gaussian orbitals for l= 0
Adding 3 cartesian gaussian orbitals for l= 1
Adding 3 cartesian gaussian orbitals for l= 1
Adding 6 cartesian gaussian orbitals for l= 2
Adding 1 cartesian gaussian orbitals for l= 0
Adding 1 cartesian gaussian orbitals for l= 0
Adding 3 cartesian gaussian orbitals for l= 1
Adding 3 cartesian gaussian orbitals for l= 1
Adding 6 cartesian gaussian orbitals for l= 2
  Setting cutoff radius 27.0396

   Maximum Angular Momentum  = 2
   Number of Radial functors = 15
   Basis size                = 42

  Created SPOSet builder named 'LCAOBSet' of type molecularorbital
Reuse SPOSetBuilder "LCAOBSet" type MolecularOrbital
  Building SPOSet '' with '' basis set.
Reuse SPOSetBuilder "LCAOBSet" type MolecularOrbital
  Building SPOSet '' with '' basis set.
  Creating a determinant updet group=0 sposet=updet
  Reusing a SPO set updet
Using DiracDeterminant
Using rank-1 Sherman-Morrison Fahy update

  Creating a determinant downdet group=1 sposet=downdet
  Reusing a SPO set downdet
Using DiracDeterminant
Using rank-1 Sherman-Morrison Fahy update

  FermionWF = SlaterDet
  RadialJastrowBuilder adds a functor with cusp = -0.25
 size = 10 parameters 
 cusp = -0.25
 rcut = 18
Parameter     Name      Value
uu_0 0.408692 1 1  ON 0
uu_1 0.106931 1 1  ON 1
uu_2 -0.0126493 1 1  ON 2
uu_3 -0.0828832 1 1  ON 3
uu_4 -0.115942 1 1  ON 4
uu_5 -0.132477 1 1  ON 5
uu_6 -0.103534 1 1  ON 6
uu_7 -0.0488219 1 1  ON 7
uu_8 -0.00987216 1 1  ON 8
uu_9 -0.00395761 1 1  ON 9
  RadialJastrowBuilder adds a functor with cusp = -0.5
 size = 10 parameters 
 cusp = -0.5
 rcut = 18
Parameter     Name      Value
ud_0 0.496369 1 1  ON 0
ud_1 0.110224 1 1  ON 1
ud_2 -0.0169793 1 1  ON 2
ud_3 -0.10213 1 1  ON 3
ud_4 -0.126012 1 1  ON 4
ud_5 -0.145078 1 1  ON 5
ud_6 -0.114738 1 1  ON 6
ud_7 -0.0606336 1 1  ON 7
ud_8 -0.0202755 1 1  ON 8
ud_9 -0.0135786 1 1  ON 9
 size = 10 parameters 
 cusp = 0
 rcut = 18
Parameter     Name      Value
eK_0 -2.08331 1 1  ON 0
eK_1 -0.9836 1 1  ON 1
eK_2 -0.099614 1 1  ON 2
eK_3 0.474745 1 1  ON 3
eK_4 0.783829 1 1  ON 4
eK_5 0.885258 1 1  ON 5
eK_6 0.709931 1 1  ON 6
eK_7 0.280041 1 1  ON 7
eK_8 0.0298369 1 1  ON 8
eK_9 0.00198075 1 1  ON 9
Expected 26 parameters, but found 0 in PolynomialFunctor3D.
Parameter     Name      Value
uuK_0 0 1 1  ON 0
uuK_1 0 1 1  ON 1
uuK_2 0 1 1  ON 2
uuK_3 0 1 1  ON 3
uuK_4 0 1 1  ON 4
uuK_5 0 1 1  ON 5
uuK_6 0 1 1  ON 6
uuK_7 0 1 1  ON 7
uuK_8 0 1 1  ON 8
uuK_9 0 1 1  ON 9
uuK_10 0 1 1  ON 10
uuK_11 0 1 1  ON 11
uuK_12 0 1 1  ON 12
uuK_13 0 1 1  ON 13
uuK_14 0 1 1  ON 14
uuK_15 0 1 1  ON 15
uuK_16 0 1 1  ON 16
uuK_17 0 1 1  ON 17
uuK_18 0 1 1  ON 18
uuK_19 0 1 1  ON 19
uuK_20 0 1 1  ON 20
uuK_21 0 1 1  ON 21
uuK_22 0 1 1  ON 22
uuK_23 0 1 1  ON 23
uuK_24 0 1 1  ON 24
uuK_25 0 1 1  ON 25
Expected 26 parameters, but found 0 in PolynomialFunctor3D.
Parameter     Name      Value
udK_0 0 1 1  ON 0
udK_1 0 1 1  ON 1
udK_2 0 1 1  ON 2
udK_3 0 1 1  ON 3
udK_4 0 1 1  ON 4
udK_5 0 1 1  ON 5
udK_6 0 1 1  ON 6
udK_7 0 1 1  ON 7
udK_8 0 1 1  ON 8
udK_9 0 1 1  ON 9
udK_10 0 1 1  ON 10
udK_11 0 1 1  ON 11
udK_12 0 1 1  ON 12
udK_13 0 1 1  ON 13
udK_14 0 1 1  ON 14
udK_15 0 1 1  ON 15
udK_16 0 1 1  ON 16
udK_17 0 1 1  ON 17
udK_18 0 1 1  ON 18
udK_19 0 1 1  ON 19
udK_20 0 1 1  ON 20
udK_21 0 1 1  ON 21
udK_22 0 1 1  ON 22
udK_23 0 1 1  ON 23
udK_24 0 1 1  ON 24
udK_25 0 1 1  ON 25
  QMCHamiltonian::addOperator Kinetic to H, physical Hamiltonian 
  QMCHamiltonian::addOperator ElecElec to H, physical Hamiltonian 
QMCHamiltonian::addOperatorType added type coulomb named ElecElec
  CoulombAA for ion0 is not created.  Number of particles == 1 and nonPeriodic

  ECPotential builder for pseudopotential 

  Adding pseudopotential for K
   Linear grid  ri=0 rf=10 npts = 10001
    ECPComponentBuilder::buildSemiLocalAndLocal 
    Assuming Hartree unit
   Number of angular momentum channels 3
   Maximum angular momentum channel 2
   Creating a Linear Grid Rmax=1.805
  Using global grid with delta = 0.001
   Making L=2 a local potential with a radial cutoff of 9.999
    Non-local pseudopotential parameters
    Maximum angular mementum = 1
    Number of non-local channels = 2
       l(0)=0
       l(1)=1
    Cutoff radius = 1.805
    Spherical grids and weights: 
                        1                 0                 0       0.08333333333
                       -1   1.224646799e-16                 0       0.08333333333
             0.4472135955       0.894427191                 0       0.08333333333
            -0.4472135955      0.7236067977      0.5257311121       0.08333333333
             0.4472135955      0.2763932023      0.8506508084       0.08333333333
            -0.4472135955     -0.2763932023      0.8506508084       0.08333333333
             0.4472135955     -0.7236067977      0.5257311121       0.08333333333
            -0.4472135955      -0.894427191   1.095357397e-16       0.08333333333
             0.4472135955     -0.7236067977     -0.5257311121       0.08333333333
            -0.4472135955     -0.2763932023     -0.8506508084       0.08333333333
             0.4472135955      0.2763932023     -0.8506508084       0.08333333333
            -0.4472135955      0.7236067977     -0.5257311121       0.08333333333
    Maximum cutoff radius 1.805
  QMCHamiltonian::addOperator LocalECP to H, physical Hamiltonian 

  Using NonLocalECP potential 
    Maximum grid on a sphere for NonLocalECPotential: 12
  QMCHamiltonian::addOperator NonLocalECP to H, physical Hamiltonian 
QMCHamiltonian::addOperatorType added type pseudo named PseudoPot

  QMCHamiltonian::add2WalkerProperty added
    4 to P::PropertyList 
    0 to P::Collectables 
    starting Index of the observables in P::PropertyList = 9
ParticleSetPool::randomize 
<init source="ion0" target="e">
</init>
  Initialization Execution time = 0.4635 secs
=========================================================
 Summary of QMC systems 
=========================================================
ParticleSetPool has: 

  ParticleSet e : 0 5 9 

    9

    u -7.1304612609e-02  7.6560148980e-02  4.4168858594e-01
    u -2.3239649216e-01 -8.2242009854e-02  7.4398820663e-01
    u  1.2173659127e+00 -1.5136570971e+00  1.1759412058e+00
    u  9.7788576569e-01 -8.8074553764e-03 -1.9088248776e+00
    u -2.3850518378e+00  1.9299856637e+00  1.2542494462e+00
    d  1.2262580288e+00 -1.3700038105e-01  2.6055828820e-01
    d  4.6787107717e-01  3.5681969999e-01  8.7825818277e-01
    d -6.7253682614e-02  4.2279318284e-02 -2.2491118346e+00
    d -1.2697284953e+00 -3.5009498649e-01  1.2672501005e+00

  ParticleSet ion0 : 0 1 

    1

    K  0.0000000000e+00  0.0000000000e+00  0.0000000000e+00

  Hamiltonian h0
  Kinetic         Kinetic energy
  ElecElec        CoulombAA source/target e

  LocalECP        LocalECPotential: ion0
  NonLocalECP     NonLocalECPotential: ion0

=========================================================
  Start VMC
  File Root K.log.s000 append = no 
=========================================================
  Adding 1 walkers to 0 existing sets
  Total number of walkers: 1.0240000000e+03
  Total weight: 1.0240000000e+03
  Resetting Properties of the walkers 1 x 13

<vmc function="put">
  qmc_counter=0  my_counter=0
  time step      = 1.5000000000e-01
  blocks         = 200
  steps          = 1
  substeps       = 5
  current        = 0
  target samples = 1.0240000000e+03
  walkers/mpi    = 1

  stepsbetweensamples = 200
<parameter name="blocks" condition="int">200</parameter>
<parameter name="blocks_between_recompute" condition="int">0</parameter>
<parameter name="check_properties" condition="int">100</parameter>
<parameter name="checkproperties" condition="int">100</parameter>
<parameter name="current" condition="int">0</parameter>
<parameter name="dmcwalkersperthread" condition="real">1.0000000000e+00</parameter>
<parameter name="maxcpusecs" condition="real">3.6000000000e+05</parameter>
<parameter name="record_configs" condition="int">0</parameter>
<parameter name="record_walkers" condition="int">200</parameter>
<parameter name="recordconfigs" condition="int">0</parameter>
<parameter name="recordwalkers" condition="int">200</parameter>
<parameter name="rewind" condition="int">0</parameter>
<parameter name="samples" condition="real">1.0240000000e+03</parameter>
<parameter name="samplesperthread" condition="real">1.0000000000e+00</parameter>
<parameter name="steps" condition="int">1</parameter>
<parameter name="stepsbetweensamples" condition="int">200</parameter>
<parameter name="store_configs" condition="int">0</parameter>
<parameter name="storeconfigs" condition="int">0</parameter>
<parameter name="sub_steps" condition="int">5</parameter>
<parameter name="substeps" condition="int">5</parameter>
<parameter name="tau" condition="au">1.5000000000e-01</parameter>
<parameter name="time_step" condition="au">1.5000000000e-01</parameter>
<parameter name="timestep" condition="au">1.5000000000e-01</parameter>
<parameter name="use_drift" condition="string">no</parameter>
<parameter name="usedrift" condition="string">no</parameter>
<parameter name="walkers" condition="int">1</parameter>
<parameter name="warmup_steps" condition="int">100</parameter>
<parameter name="warmupsteps" condition="int">100</parameter>
  DumpConfig==false Nothing (configurations, state) will be saved.
  Walker Samples are dumped every 200 steps.
</vmc>
  Initial partition of walkers 0 1 

  Using Particle by Particle moves
  Walker moves without drift
  Total Sample Size   =1024
  Walker distribution on root = 0 1 
  Using Locality Approximation
===== Memory Usage after the buffer registration =====
Available memory on node 0, free + buffers : 84796 MB
Memory footprint by rank 0 on node 0       : 74 MB
==================================================
  Anonymous Buffer size per walker : 3840 Bytes.
MEMORY increase 0 MB VMC::resetRun
====================================================
  SimpleFixedNodeBranch::finalize after a VMC block
    QMC counter        = 0
    time step          = 0.15
    reference energy   = -28.1924
    reference variance = 0.355232
====================================================
  QMC Execution time = 1.1741e+00 secs
Loop execution max-interations = 20

=========================================================
  Start QMCFixedSampleLinearOptimize
  File Root K.log.s001 append = no 
=========================================================
  Skip QMCDriver::putQMCInfo 
  Resetting Properties of the walkers 1 x 13

=========================================================
  Start VMC
  File Root K.log.s001 append = no 
=========================================================
  Using the current 1 walkers.
  Total number of walkers: 1.0240e+03
  Total weight: 1.0240e+03
  Resetting Properties of the walkers 1 x 13

<vmc function="put">
  qmc_counter=0  my_counter=0
  time step      = 1.5000e-01
  blocks         = 300
  steps          = 2
  substeps       = 5
  current        = 0
  target samples = 5.1200e+05
  walkers/mpi    = 1

  stepsbetweensamples = 1
<parameter name="blocks" condition="int">300</parameter>
<parameter name="blocks_between_recompute" condition="int">0</parameter>
<parameter name="check_properties" condition="int">100</parameter>
<parameter name="checkproperties" condition="int">100</parameter>
<parameter name="current" condition="int">0</parameter>
<parameter name="dmcwalkersperthread" condition="real">5.0000e+02</parameter>
<parameter name="maxcpusecs" condition="real">3.6000e+05</parameter>
<parameter name="record_configs" condition="int">0</parameter>
<parameter name="record_walkers" condition="int">1</parameter>
<parameter name="recordconfigs" condition="int">0</parameter>
<parameter name="recordwalkers" condition="int">1</parameter>
<parameter name="rewind" condition="int">0</parameter>
<parameter name="samples" condition="real">5.1200e+05</parameter>
<parameter name="samplesperthread" condition="real">5.0000e+02</parameter>
<parameter name="steps" condition="int">2</parameter>
<parameter name="stepsbetweensamples" condition="int">1</parameter>
<parameter name="store_configs" condition="int">0</parameter>
<parameter name="storeconfigs" condition="int">0</parameter>
<parameter name="sub_steps" condition="int">5</parameter>
<parameter name="substeps" condition="int">5</parameter>
<parameter name="tau" condition="au">1.5000e-01</parameter>
<parameter name="time_step" condition="au">1.5000e-01</parameter>
<parameter name="timestep" condition="au">1.5000e-01</parameter>
<parameter name="use_drift" condition="string">no</parameter>
<parameter name="usedrift" condition="string">no</parameter>
<parameter name="walkers" condition="int">1</parameter>
<parameter name="warmup_steps" condition="int">0</parameter>
<parameter name="warmupsteps" condition="int">0</parameter>
  DumpConfig==false Nothing (configurations, state) will be saved.
  Walker Samples are dumped every 1 steps.
</vmc>
    Restarting, cummulative properties:
      energy     = -2.8192e+01
      variance   = 0.0000e+00
      r2accepted = 1.0000e-10
      r2proposed = 1.0000e-10
 Using QMCCostFunction::QMCCostFunction
  EstimatorManagerBase::add replace LocalEnergy estimator.
<optimization-report>
<vmc stage="main" blocks="300">
  Cannot make clones again. Use existing 1 clones
  Initial partition of walkers 0 1 

  Using Particle by Particle moves
  Walker moves without drift
  Total Sample Size   =512000
  Walker distribution on root = 0 1 
  Using Locality Approximation
===== Memory Usage after the buffer registration =====
Available memory on node 0, free + buffers : 84769 MB
Memory footprint by rank 0 on node 0       : 74 MB
==================================================
  Anonymous Buffer size per walker : 3840 Bytes.
MEMORY increase 0 MB VMC::resetRun
====================================================
  SimpleFixedNodeBranch::finalize after a VMC block
    QMC counter        = 1
    time step          = 0.15
    reference energy   = -28.1991
    reference variance = 0.325625
====================================================
  Execution time = 2.5708e+00
</vmc>
<opt stage="setup">
  <log>
   Reading configurations from h5FileRoot K.log.s001
  QMCCostFunction is created with 1 threads.
  Using Nonlocal PP in Opt: NonLocalECP
   Number of samples loaded to each thread : 500 
  VMC Eavg = -2.8210e+01
  VMC Evar = 3.4450e-01
  Total weights = 5.1200e+05
  Execution time = 9.4392e-01
  </log>
</opt>
<opt stage="main" walkers="512000">
  <log>

*****************************************
Building overlap and Hamiltonian matrices
*****************************************

Among totally 82 optimized parameters, largest LM parameter change : 1.3884e-01 at parameter 21

******************************************************************************
Init Cost =  -2.6782e+01    New Cost =  -2.6799e+01  Delta Cost =  -1.7594e-02
******************************************************************************

The new set of parameters is valid. Updating the trial wave function!

*****************************************************************************
Applying the update for shift_i =   1.0000e-02     and shift_s =   2.5000e-01
*****************************************************************************
  Execution time = 4.0467e+00
  </log>
  <optVariables href="K.log.s001.opt.xml">
uu_0 3.8759e-01 1 1  ON 0
uu_1 1.4170e-01 1 1  ON 1
uu_2 -2.8463e-02 1 1  ON 2
uu_3 -8.3306e-02 1 1  ON 3
uu_4 -9.9505e-02 1 1  ON 4
uu_5 -1.3112e-01 1 1  ON 5
uu_6 -1.0829e-01 1 1  ON 6
uu_7 -5.5001e-02 1 1  ON 7
uu_8 -1.2606e-02 1 1  ON 8
uu_9 -4.5793e-03 1 1  ON 9
ud_0 5.1173e-01 1 1  ON 10
ud_1 1.0825e-01 1 1  ON 11
ud_2 -5.6474e-02 1 1  ON 12
ud_3 -9.1674e-02 1 1  ON 13
ud_4 -9.8673e-02 1 1  ON 14
ud_5 -1.4351e-01 1 1  ON 15
ud_6 -1.2172e-01 1 1  ON 16
ud_7 -6.2989e-02 1 1  ON 17
ud_8 -2.0928e-02 1 1  ON 18
ud_9 -1.4662e-02 1 1  ON 19
eK_0 -2.0077e+00 1 1  ON 20
eK_1 -1.1224e+00 1 1  ON 21
eK_2 5.4002e-04 1 1  ON 22
eK_3 4.2309e-01 1 1  ON 23
eK_4 8.0125e-01 1 1  ON 24
eK_5 8.4667e-01 1 1  ON 25
eK_6 7.2573e-01 1 1  ON 26
eK_7 2.9709e-01 1 1  ON 27
eK_8 3.3763e-02 1 1  ON 28
eK_9 1.8286e-03 1 1  ON 29
uuK_0 7.9489e-08 1 1  ON 30
uuK_1 4.8520e-07 1 1  ON 31
uuK_2 5.7484e-08 1 1  ON 32
uuK_3 -1.4188e-07 1 1  ON 33
uuK_4 -1.5124e-08 1 1  ON 34
uuK_5 -2.9463e-08 1 1  ON 35
uuK_6 4.3825e-07 1 1  ON 36
uuK_7 7.6406e-08 1 1  ON 37
uuK_8 2.7803e-08 1 1  ON 38
uuK_9 -4.8131e-07 1 1  ON 39
uuK_10 -7.0410e-08 1 1  ON 40
uuK_11 -3.1687e-08 1 1  ON 41
uuK_12 6.8916e-10 1 1  ON 42
uuK_13 5.2737e-08 1 1  ON 43
uuK_14 -2.1038e-09 1 1  ON 44
uuK_15 5.7944e-11 1 1  ON 45
uuK_16 3.4995e-07 1 1  ON 46
uuK_17 -3.0190e-08 1 1  ON 47
uuK_18 6.3468e-09 1 1  ON 48
uuK_19 -1.5019e-09 1 1  ON 49
uuK_20 -2.6777e-08 1 1  ON 50
uuK_21 1.5420e-09 1 1  ON 51
uuK_22 -2.5459e-11 1 1  ON 52
uuK_23 1.2256e-09 1 1  ON 53
uuK_24 -2.6952e-10 1 1  ON 54
uuK_25 1.7967e-11 1 1  ON 55
udK_0 1.2303e-07 1 1  ON 56
udK_1 1.1101e-06 1 1  ON 57
udK_2 2.6505e-07 1 1  ON 58
udK_3 -2.2399e-07 1 1  ON 59
udK_4 -3.6692e-08 1 1  ON 60
udK_5 -4.8541e-11 1 1  ON 61
udK_6 1.2730e-06 1 1  ON 62
udK_7 -1.8994e-08 1 1  ON 63
udK_8 1.2899e-07 1 1  ON 64
udK_9 -1.2044e-06 1 1  ON 65
udK_10 -9.2879e-08 1 1  ON 66
udK_11 -1.2783e-07 1 1  ON 67
udK_12 -4.8846e-09 1 1  ON 68
udK_13 1.9309e-07 1 1  ON 69
udK_14 -1.3433e-09 1 1  ON 70
udK_15 2.9531e-10 1 1  ON 71
udK_16 9.9560e-07 1 1  ON 72
udK_17 -8.7562e-08 1 1  ON 73
udK_18 4.5938e-08 1 1  ON 74
udK_19 -3.7933e-09 1 1  ON 75
udK_20 -1.3694e-07 1 1  ON 76
udK_21 2.5533e-09 1 1  ON 77
udK_22 -8.2417e-11 1 1  ON 78
udK_23 2.0852e-08 1 1  ON 79
udK_24 -1.0498e-09 1 1  ON 80
udK_25 8.8846e-11 1 1  ON 81
  </optVariables>
   Restore the number of walkers to 1, removing 0 walkers.
</opt>
</optimization-report>
  QMC Execution time = 4.0595e+00 secs
  Reusing QMCFixedSampleLinearOptimize
 Using QMCCostFunction::QMCCostFunction

=========================================================
  Start QMCFixedSampleLinearOptimize
  File Root K.log.s002 append = no 
=========================================================
  Skip QMCDriver::putQMCInfo 
  Resetting Properties of the walkers 1 x 13

=========================================================
  Start VMC
  File Root K.log.s002 append = no 
=========================================================
Using existing walkers 
  Resetting Properties of the walkers 1 x 13

<vmc function="put">
  qmc_counter=1  my_counter=1
  time step      = 1.5000e-01
  blocks         = 300
  steps          = 2
  substeps       = 5
  current        = 0
  target samples = 5.1200e+05
  walkers/mpi    = 1

  stepsbetweensamples = 1
<parameter name="blocks" condition="int">300</parameter>
<parameter name="blocks_between_recompute" condition="int">0</parameter>
<parameter name="check_properties" condition="int">100</parameter>
<parameter name="checkproperties" condition="int">100</parameter>
<parameter name="current" condition="int">0</parameter>
<parameter name="dmcwalkersperthread" condition="real">5.0000e+02</parameter>
<parameter name="maxcpusecs" condition="real">3.6000e+05</parameter>
<parameter name="record_configs" condition="int">0</parameter>
<parameter name="record_walkers" condition="int">1</parameter>
<parameter name="recordconfigs" condition="int">0</parameter>
<parameter name="recordwalkers" condition="int">1</parameter>
<parameter name="rewind" condition="int">0</parameter>
<parameter name="samples" condition="real">5.1200e+05</parameter>
<parameter name="samplesperthread" condition="real">5.0000e+02</parameter>
<parameter name="steps" condition="int">2</parameter>
<parameter name="stepsbetweensamples" condition="int">1</parameter>
<parameter name="store_configs" condition="int">0</parameter>
<parameter name="storeconfigs" condition="int">0</parameter>
<parameter name="sub_steps" condition="int">5</parameter>
<parameter name="substeps" condition="int">5</parameter>
<parameter name="tau" condition="au">1.5000e-01</parameter>
<parameter name="time_step" condition="au">1.5000e-01</parameter>
<parameter name="timestep" condition="au">1.5000e-01</parameter>
<parameter name="use_drift" condition="string">no</parameter>
<parameter name="usedrift" condition="string">no</parameter>
<parameter name="walkers" condition="int">1</parameter>
<parameter name="warmup_steps" condition="int">0</parameter>
<parameter name="warmupsteps" condition="int">0</parameter>
  DumpConfig==false Nothing (configurations, state) will be saved.
  Walker Samples are dumped every 1 steps.
</vmc>
  EstimatorManagerBase::add replace LocalEnergy estimator.
  EstimatorManagerBase::add replace LocalEnergy estimator.
<optimization-report>
<vmc stage="main" blocks="300">
  Cannot make clones again. Use existing 1 clones
  Initial partition of walkers 0 1 
  Using Particle by Particle moves
  Walker moves without drift
  Total Sample Size   =512000
  Walker distribution on root = 0 1 
  Using Locality Approximation
===== Memory Usage after the buffer registration =====
Available memory on node 0, free + buffers : 83652 MB
Memory footprint by rank 0 on node 0       : 94 MB
==================================================
====================================================
  SimpleFixedNodeBranch::finalize after a VMC block
    QMC counter        = 2
    time step          = 0.15
    reference energy   = -28.2465
    reference variance = 0.251239
====================================================
  Execution time = 2.5042e+00
</vmc>
<opt stage="setup">
  <log>
   Reading configurations from h5FileRoot K.log.s002
  QMCCostFunction is created with 1 threads.
  Using Nonlocal PP in Opt: NonLocalECP
   Number of samples loaded to each thread : 500 
  VMC Eavg = -2.8224e+01
  VMC Evar = 2.6973e-01
  Total weights = 5.1200e+05
  Execution time = 8.2833e-01
  </log>
</opt>
<opt stage="main" walkers="512000">
  <log>

*****************************************
Building overlap and Hamiltonian matrices
*****************************************

Among totally 82 optimized parameters, largest LM parameter change : 1.0856e-01 at parameter 21

******************************************************************************
Init Cost =  -2.6800e+01    New Cost =  -2.6801e+01  Delta Cost =  -1.1390e-03
******************************************************************************

The new set of parameters is valid. Updating the trial wave function!

*****************************************************************************
Applying the update for shift_i =   1.0000e-02     and shift_s =   6.2500e-02
*****************************************************************************
  Execution time = 3.8228e+00
  </log>
  <optVariables href="K.log.s002.opt.xml">
uu_0 3.8377e-01 1 1  ON 0
uu_1 1.5581e-01 1 1  ON 1
uu_2 -2.9771e-02 1 1  ON 2
uu_3 -8.1204e-02 1 1  ON 3
uu_4 -9.0980e-02 1 1  ON 4
uu_5 -1.2626e-01 1 1  ON 5
uu_6 -1.1365e-01 1 1  ON 6
uu_7 -5.9794e-02 1 1  ON 7
uu_8 -1.8370e-02 1 1  ON 8
uu_9 -9.2252e-03 1 1  ON 9
ud_0 5.2217e-01 1 1  ON 10
ud_1 1.0667e-01 1 1  ON 11
ud_2 -7.1294e-02 1 1  ON 12
ud_3 -8.6577e-02 1 1  ON 13
ud_4 -8.8354e-02 1 1  ON 14
ud_5 -1.3547e-01 1 1  ON 15
ud_6 -1.2783e-01 1 1  ON 16
ud_7 -6.5615e-02 1 1  ON 17
ud_8 -1.9651e-02 1 1  ON 18
ud_9 -1.9353e-02 1 1  ON 19
eK_0 -1.9436e+00 1 1  ON 20
eK_1 -1.2310e+00 1 1  ON 21
eK_2 6.1851e-02 1 1  ON 22
eK_3 4.0391e-01 1 1  ON 23
eK_4 8.0532e-01 1 1  ON 24
eK_5 8.1462e-01 1 1  ON 25
eK_6 7.3900e-01 1 1  ON 26
eK_7 3.1278e-01 1 1  ON 27
eK_8 3.7221e-02 1 1  ON 28
eK_9 5.6994e-04 1 1  ON 29
uuK_0 1.0172e-07 1 1  ON 30
uuK_1 6.3331e-07 1 1  ON 31
uuK_2 6.8145e-08 1 1  ON 32
uuK_3 -1.8181e-07 1 1  ON 33
uuK_4 -1.9084e-08 1 1  ON 34
uuK_5 -4.5859e-08 1 1  ON 35
uuK_6 5.6529e-07 1 1  ON 36
uuK_7 1.3297e-07 1 1  ON 37
uuK_8 2.8457e-08 1 1  ON 38
uuK_9 -6.2600e-07 1 1  ON 39
uuK_10 -9.3456e-08 1 1  ON 40
uuK_11 -4.8307e-08 1 1  ON 41
uuK_12 3.4348e-09 1 1  ON 42
uuK_13 4.1823e-08 1 1  ON 43
uuK_14 -4.7998e-09 1 1  ON 44
uuK_15 3.5848e-11 1 1  ON 45
uuK_16 4.9618e-07 1 1  ON 46
uuK_17 -6.5051e-08 1 1  ON 47
uuK_18 1.4505e-08 1 1  ON 48
uuK_19 -3.2011e-09 1 1  ON 49
uuK_20 -3.1050e-08 1 1  ON 50
uuK_21 2.1088e-09 1 1  ON 51
uuK_22 2.1443e-11 1 1  ON 52
uuK_23 1.1692e-10 1 1  ON 53
uuK_24 -3.7451e-10 1 1  ON 54
uuK_25 2.2862e-11 1 1  ON 55
udK_0 1.8586e-07 1 1  ON 56
udK_1 1.3925e-06 1 1  ON 57
udK_2 3.2555e-07 1 1  ON 58
udK_3 -2.6238e-07 1 1  ON 59
udK_4 -4.2463e-08 1 1  ON 60
udK_5 7.8153e-09 1 1  ON 61
udK_6 1.5543e-06 1 1  ON 62
udK_7 2.9470e-08 1 1  ON 63
udK_8 1.5850e-07 1 1  ON 64
udK_9 -1.5254e-06 1 1  ON 65
udK_10 -9.8731e-08 1 1  ON 66
udK_11 -1.9286e-07 1 1  ON 67
udK_12 -2.4359e-09 1 1  ON 68
udK_13 2.0856e-07 1 1  ON 69
udK_14 -3.5937e-09 1 1  ON 70
udK_15 2.6623e-10 1 1  ON 71
udK_16 1.3420e-06 1 1  ON 72
udK_17 -1.5912e-07 1 1  ON 73
udK_18 8.2118e-08 1 1  ON 74
udK_19 -7.5606e-09 1 1  ON 75
udK_20 -1.7927e-07 1 1  ON 76
udK_21 2.0046e-09 1 1  ON 77
udK_22 1.1020e-10 1 1  ON 78
udK_23 2.8068e-08 1 1  ON 79
udK_24 -1.2829e-09 1 1  ON 80
udK_25 9.6073e-11 1 1  ON 81
  </optVariables>
   Restore the number of walkers to 1, removing 0 walkers.
</opt>
</optimization-report>
  QMC Execution time = 3.8358e+00 secs
  Reusing QMCFixedSampleLinearOptimize
 Using QMCCostFunction::QMCCostFunction

=========================================================
  Start QMCFixedSampleLinearOptimize
  File Root K.log.s003 append = no 
=========================================================
  Skip QMCDriver::putQMCInfo 
  Resetting Properties of the walkers 1 x 13

=========================================================
  Start VMC
  File Root K.log.s003 append = no 
=========================================================
Using existing walkers 
  Resetting Properties of the walkers 1 x 13

<vmc function="put">
  qmc_counter=2  my_counter=2
  time step      = 1.5000e-01
  blocks         = 300
  steps          = 2
  substeps       = 5
  current        = 0
  target samples = 5.1200e+05
  walkers/mpi    = 1

  stepsbetweensamples = 1
<parameter name="blocks" condition="int">300</parameter>
<parameter name="blocks_between_recompute" condition="int">0</parameter>
<parameter name="check_properties" condition="int">100</parameter>
<parameter name="checkproperties" condition="int">100</parameter>
<parameter name="current" condition="int">0</parameter>
<parameter name="dmcwalkersperthread" condition="real">5.0000e+02</parameter>
<parameter name="maxcpusecs" condition="real">3.6000e+05</parameter>
<parameter name="record_configs" condition="int">0</parameter>
<parameter name="record_walkers" condition="int">1</parameter>
<parameter name="recordconfigs" condition="int">0</parameter>
<parameter name="recordwalkers" condition="int">1</parameter>
<parameter name="rewind" condition="int">0</parameter>
<parameter name="samples" condition="real">5.1200e+05</parameter>
<parameter name="samplesperthread" condition="real">5.0000e+02</parameter>
<parameter name="steps" condition="int">2</parameter>
<parameter name="stepsbetweensamples" condition="int">1</parameter>
<parameter name="store_configs" condition="int">0</parameter>
<parameter name="storeconfigs" condition="int">0</parameter>
<parameter name="sub_steps" condition="int">5</parameter>
<parameter name="substeps" condition="int">5</parameter>
<parameter name="tau" condition="au">1.5000e-01</parameter>
<parameter name="time_step" condition="au">1.5000e-01</parameter>
<parameter name="timestep" condition="au">1.5000e-01</parameter>
<parameter name="use_drift" condition="string">no</parameter>
<parameter name="usedrift" condition="string">no</parameter>
<parameter name="walkers" condition="int">1</parameter>
<parameter name="warmup_steps" condition="int">0</parameter>
<parameter name="warmupsteps" condition="int">0</parameter>
  DumpConfig==false Nothing (configurations, state) will be saved.
  Walker Samples are dumped every 1 steps.
</vmc>
  EstimatorManagerBase::add replace LocalEnergy estimator.
  EstimatorManagerBase::add replace LocalEnergy estimator.
<optimization-report>
<vmc stage="main" blocks="300">
  Cannot make clones again. Use existing 1 clones
  Initial partition of walkers 0 1 
  Using Particle by Particle moves
  Walker moves without drift
  Total Sample Size   =512000
  Walker distribution on root = 0 1 
  Using Locality Approximation
===== Memory Usage after the buffer registration =====
Available memory on node 0, free + buffers : 83649 MB
Memory footprint by rank 0 on node 0       : 97 MB
==================================================
====================================================
  SimpleFixedNodeBranch::finalize after a VMC block
    QMC counter        = 3
    time step          = 0.15
    reference energy   = -28.2346
    reference variance = 0.280778
====================================================
  Execution time = 2.4362e+00
</vmc>
<opt stage="setup">
  <log>
   Reading configurations from h5FileRoot K.log.s003
  QMCCostFunction is created with 1 threads.
  Using Nonlocal PP in Opt: NonLocalECP
   Number of samples loaded to each thread : 500 
  VMC Eavg = -2.8226e+01
  VMC Evar = 2.8244e-01
  Total weights = 5.1200e+05
  Execution time = 8.0039e-01
  </log>
</opt>
<opt stage="main" walkers="512000">
  <log>

*****************************************
Building overlap and Hamiltonian matrices
*****************************************

Among totally 82 optimized parameters, largest LM parameter change : 8.0960e-02 at parameter 21

******************************************************************************
Init Cost =  -2.6800e+01    New Cost =  -2.6800e+01  Delta Cost =  -5.9860e-05
******************************************************************************

The new set of parameters is valid. Updating the trial wave function!

*****************************************************************************
Applying the update for shift_i =   1.0000e-02     and shift_s =   1.5625e-02
*****************************************************************************
  Execution time = 3.6987e+00
  </log>
  <optVariables href="K.log.s003.opt.xml">
uu_0 3.8225e-01 1 1  ON 0
uu_1 1.6449e-01 1 1  ON 1
uu_2 -2.5873e-02 1 1  ON 2
uu_3 -7.7430e-02 1 1  ON 3
uu_4 -9.1395e-02 1 1  ON 4
uu_5 -1.2500e-01 1 1  ON 5
uu_6 -1.1879e-01 1 1  ON 6
uu_7 -6.4584e-02 1 1  ON 7
uu_8 -2.1243e-02 1 1  ON 8
uu_9 -9.8975e-03 1 1  ON 9
ud_0 5.2855e-01 1 1  ON 10
ud_1 1.0654e-01 1 1  ON 11
ud_2 -7.7892e-02 1 1  ON 12
ud_3 -8.3997e-02 1 1  ON 13
ud_4 -7.9961e-02 1 1  ON 14
ud_5 -1.2774e-01 1 1  ON 15
ud_6 -1.2904e-01 1 1  ON 16
ud_7 -6.6759e-02 1 1  ON 17
ud_8 -2.6685e-02 1 1  ON 18
ud_9 -2.5378e-02 1 1  ON 19
eK_0 -1.8940e+00 1 1  ON 20
eK_1 -1.3120e+00 1 1  ON 21
eK_2 9.9078e-02 1 1  ON 22
eK_3 4.0175e-01 1 1  ON 23
eK_4 8.0190e-01 1 1  ON 24
eK_5 7.9163e-01 1 1  ON 25
eK_6 7.4682e-01 1 1  ON 26
eK_7 3.2736e-01 1 1  ON 27
eK_8 3.8955e-02 1 1  ON 28
eK_9 -3.5596e-04 1 1  ON 29
uuK_0 1.2967e-07 1 1  ON 30
uuK_1 7.1043e-07 1 1  ON 31
uuK_2 7.0141e-08 1 1  ON 32
uuK_3 -1.9726e-07 1 1  ON 33
uuK_4 -1.9363e-08 1 1  ON 34
uuK_5 -4.4420e-08 1 1  ON 35
uuK_6 6.3341e-07 1 1  ON 36
uuK_7 1.4016e-07 1 1  ON 37
uuK_8 2.9437e-08 1 1  ON 38
uuK_9 -7.2043e-07 1 1  ON 39
uuK_10 -1.0001e-07 1 1  ON 40
uuK_11 -5.8203e-08 1 1  ON 41
uuK_12 5.0962e-09 1 1  ON 42
uuK_13 5.0481e-08 1 1  ON 43
uuK_14 -6.2467e-09 1 1  ON 44
uuK_15 1.8897e-11 1 1  ON 45
uuK_16 5.9772e-07 1 1  ON 46
uuK_17 -8.2083e-08 1 1  ON 47
uuK_18 2.1207e-08 1 1  ON 48
uuK_19 -4.4361e-09 1 1  ON 49
uuK_20 -4.2723e-08 1 1  ON 50
uuK_21 2.3886e-09 1 1  ON 51
uuK_22 6.9755e-11 1 1  ON 52
uuK_23 1.1739e-09 1 1  ON 53
uuK_24 -4.6310e-10 1 1  ON 54
uuK_25 2.3897e-11 1 1  ON 55
udK_0 2.1614e-07 1 1  ON 56
udK_1 1.5005e-06 1 1  ON 57
udK_2 3.4235e-07 1 1  ON 58
udK_3 -2.7462e-07 1 1  ON 59
udK_4 -4.4257e-08 1 1  ON 60
udK_5 1.4902e-09 1 1  ON 61
udK_6 1.6653e-06 1 1  ON 62
udK_7 5.1735e-08 1 1  ON 63
udK_8 1.6482e-07 1 1  ON 64
udK_9 -1.6585e-06 1 1  ON 65
udK_10 -1.0002e-07 1 1  ON 66
udK_11 -2.1840e-07 1 1  ON 67
udK_12 -9.1754e-10 1 1  ON 68
udK_13 2.0584e-07 1 1  ON 69
udK_14 -4.7941e-09 1 1  ON 70
udK_15 2.3350e-10 1 1  ON 71
udK_16 1.5101e-06 1 1  ON 72
udK_17 -1.9573e-07 1 1  ON 73
udK_18 9.8306e-08 1 1  ON 74
udK_19 -9.1590e-09 1 1  ON 75
udK_20 -2.0003e-07 1 1  ON 76
udK_21 1.6456e-09 1 1  ON 77
udK_22 1.9945e-10 1 1  ON 78
udK_23 3.1588e-08 1 1  ON 79
udK_24 -1.3623e-09 1 1  ON 80
udK_25 9.6646e-11 1 1  ON 81
  </optVariables>
   Restore the number of walkers to 1, removing 0 walkers.
</opt>
</optimization-report>
  QMC Execution time = 3.7117e+00 secs
  Reusing QMCFixedSampleLinearOptimize
 Using QMCCostFunction::QMCCostFunction

=========================================================
  Start QMCFixedSampleLinearOptimize
  File Root K.log.s004 append = no 
=========================================================
  Skip QMCDriver::putQMCInfo 
  Resetting Properties of the walkers 1 x 13

=========================================================
  Start VMC
  File Root K.log.s004 append = no 
=========================================================
Using existing walkers 
  Resetting Properties of the walkers 1 x 13

<vmc function="put">
  qmc_counter=3  my_counter=3
  time step      = 1.5000e-01
  blocks         = 300
  steps          = 2
  substeps       = 5
  current        = 0
  target samples = 5.1200e+05
  walkers/mpi    = 1

  stepsbetweensamples = 1
<parameter name="blocks" condition="int">300</parameter>
<parameter name="blocks_between_recompute" condition="int">0</parameter>
<parameter name="check_properties" condition="int">100</parameter>
<parameter name="checkproperties" condition="int">100</parameter>
<parameter name="current" condition="int">0</parameter>
<parameter name="dmcwalkersperthread" condition="real">5.0000e+02</parameter>
<parameter name="maxcpusecs" condition="real">3.6000e+05</parameter>
<parameter name="record_configs" condition="int">0</parameter>
<parameter name="record_walkers" condition="int">1</parameter>
<parameter name="recordconfigs" condition="int">0</parameter>
<parameter name="recordwalkers" condition="int">1</parameter>
<parameter name="rewind" condition="int">0</parameter>
<parameter name="samples" condition="real">5.1200e+05</parameter>
<parameter name="samplesperthread" condition="real">5.0000e+02</parameter>
<parameter name="steps" condition="int">2</parameter>
<parameter name="stepsbetweensamples" condition="int">1</parameter>
<parameter name="store_configs" condition="int">0</parameter>
<parameter name="storeconfigs" condition="int">0</parameter>
<parameter name="sub_steps" condition="int">5</parameter>
<parameter name="substeps" condition="int">5</parameter>
<parameter name="tau" condition="au">1.5000e-01</parameter>
<parameter name="time_step" condition="au">1.5000e-01</parameter>
<parameter name="timestep" condition="au">1.5000e-01</parameter>
<parameter name="use_drift" condition="string">no</parameter>
<parameter name="usedrift" condition="string">no</parameter>
<parameter name="walkers" condition="int">1</parameter>
<parameter name="warmup_steps" condition="int">0</parameter>
<parameter name="warmupsteps" condition="int">0</parameter>
  DumpConfig==false Nothing (configurations, state) will be saved.
  Walker Samples are dumped every 1 steps.
</vmc>
  EstimatorManagerBase::add replace LocalEnergy estimator.
  EstimatorManagerBase::add replace LocalEnergy estimator.
<optimization-report>
<vmc stage="main" blocks="300">
  Cannot make clones again. Use existing 1 clones
  Initial partition of walkers 0 1 
  Using Particle by Particle moves
  Walker moves without drift
  Total Sample Size   =512000
  Walker distribution on root = 0 1 
  Using Locality Approximation
===== Memory Usage after the buffer registration =====
Available memory on node 0, free + buffers : 83646 MB
Memory footprint by rank 0 on node 0       : 99 MB
==================================================
====================================================
  SimpleFixedNodeBranch::finalize after a VMC block
    QMC counter        = 4
    time step          = 0.15
    reference energy   = -28.1915
    reference variance = 0.248612
====================================================
  Execution time = 2.4240e+00
</vmc>
<opt stage="setup">
  <log>
   Reading configurations from h5FileRoot K.log.s004
  QMCCostFunction is created with 1 threads.
  Using Nonlocal PP in Opt: NonLocalECP
   Number of samples loaded to each thread : 500 
  VMC Eavg = -2.8226e+01
  VMC Evar = 2.9799e-01
  Total weights = 5.1200e+05
  Execution time = 8.2166e-01
  </log>
</opt>
<opt stage="main" walkers="512000">
  <log>

*****************************************
Building overlap and Hamiltonian matrices
*****************************************

Among totally 82 optimized parameters, largest LM parameter change : 6.0397e-02 at parameter 21

******************************************************************************
Init Cost =  -2.6799e+01    New Cost =  -2.6799e+01  Delta Cost =  -3.8854e-05
******************************************************************************

The new set of parameters is valid. Updating the trial wave function!

*****************************************************************************
Applying the update for shift_i =   1.0000e-02     and shift_s =   3.9062e-03
*****************************************************************************
  Execution time = 3.7198e+00
  </log>
  <optVariables href="K.log.s004.opt.xml">
uu_0 3.8427e-01 1 1  ON 0
uu_1 1.6855e-01 1 1  ON 1
uu_2 -1.7139e-02 1 1  ON 2
uu_3 -7.3306e-02 1 1  ON 3
uu_4 -9.2523e-02 1 1  ON 4
uu_5 -1.2553e-01 1 1  ON 5
uu_6 -1.1899e-01 1 1  ON 6
uu_7 -6.4381e-02 1 1  ON 7
uu_8 -2.9474e-02 1 1  ON 8
uu_9 -1.6301e-02 1 1  ON 9
ud_0 5.3077e-01 1 1  ON 10
ud_1 1.0922e-01 1 1  ON 11
ud_2 -7.6459e-02 1 1  ON 12
ud_3 -8.0846e-02 1 1  ON 13
ud_4 -7.8873e-02 1 1  ON 14
ud_5 -1.2250e-01 1 1  ON 15
ud_6 -1.2970e-01 1 1  ON 16
ud_7 -7.1206e-02 1 1  ON 17
ud_8 -3.3166e-02 1 1  ON 18
ud_9 -2.8822e-02 1 1  ON 19
eK_0 -1.8542e+00 1 1  ON 20
eK_1 -1.3724e+00 1 1  ON 21
eK_2 1.1821e-01 1 1  ON 22
eK_3 4.1110e-01 1 1  ON 23
eK_4 7.9399e-01 1 1  ON 24
eK_5 7.6837e-01 1 1  ON 25
eK_6 7.5536e-01 1 1  ON 26
eK_7 3.4143e-01 1 1  ON 27
eK_8 4.0639e-02 1 1  ON 28
eK_9 -1.4485e-03 1 1  ON 29
uuK_0 1.3487e-07 1 1  ON 30
uuK_1 7.3992e-07 1 1  ON 31
uuK_2 8.2960e-08 1 1  ON 32
uuK_3 -1.9513e-07 1 1  ON 33
uuK_4 -1.9507e-08 1 1  ON 34
uuK_5 -5.2936e-08 1 1  ON 35
uuK_6 6.8323e-07 1 1  ON 36
uuK_7 1.4352e-07 1 1  ON 37
uuK_8 3.6117e-08 1 1  ON 38
uuK_9 -7.7305e-07 1 1  ON 39
uuK_10 -9.5074e-08 1 1  ON 40
uuK_11 -7.3705e-08 1 1  ON 41
uuK_12 5.4008e-09 1 1  ON 42
uuK_13 4.6022e-08 1 1  ON 43
uuK_14 -6.5242e-09 1 1  ON 44
uuK_15 1.3295e-11 1 1  ON 45
uuK_16 6.6890e-07 1 1  ON 46
uuK_17 -1.0028e-07 1 1  ON 47
uuK_18 3.0099e-08 1 1  ON 48
uuK_19 -5.1190e-09 1 1  ON 49
uuK_20 -5.1436e-08 1 1  ON 50
uuK_21 2.1697e-09 1 1  ON 51
uuK_22 1.0354e-10 1 1  ON 52
uuK_23 2.5594e-09 1 1  ON 53
uuK_24 -5.1807e-10 1 1  ON 54
uuK_25 2.7860e-11 1 1  ON 55
udK_0 2.3712e-07 1 1  ON 56
udK_1 1.5526e-06 1 1  ON 57
udK_2 3.4598e-07 1 1  ON 58
udK_3 -2.7589e-07 1 1  ON 59
udK_4 -4.3604e-08 1 1  ON 60
udK_5 6.8486e-09 1 1  ON 61
udK_6 1.7107e-06 1 1  ON 62
udK_7 5.7660e-08 1 1  ON 63
udK_8 1.6733e-07 1 1  ON 64
udK_9 -1.7215e-06 1 1  ON 65
udK_10 -9.8136e-08 1 1  ON 66
udK_11 -2.3178e-07 1 1  ON 67
udK_12 3.9103e-10 1 1  ON 68
udK_13 2.0596e-07 1 1  ON 69
udK_14 -5.7735e-09 1 1  ON 70
udK_15 2.1165e-10 1 1  ON 71
udK_16 1.5972e-06 1 1  ON 72
udK_17 -2.1458e-07 1 1  ON 73
udK_18 1.0699e-07 1 1  ON 74
udK_19 -1.0299e-08 1 1  ON 75
udK_20 -2.1112e-07 1 1  ON 76
udK_21 1.6683e-09 1 1  ON 77
udK_22 2.4959e-10 1 1  ON 78
udK_23 3.3327e-08 1 1  ON 79
udK_24 -1.4637e-09 1 1  ON 80
udK_25 1.0243e-10 1 1  ON 81
  </optVariables>
   Restore the number of walkers to 1, removing 0 walkers.
</opt>
</optimization-report>
  QMC Execution time = 3.7328e+00 secs
  Reusing QMCFixedSampleLinearOptimize
 Using QMCCostFunction::QMCCostFunction

=========================================================
  Start QMCFixedSampleLinearOptimize
  File Root K.log.s005 append = no 
=========================================================
  Skip QMCDriver::putQMCInfo 
  Resetting Properties of the walkers 1 x 13

=========================================================
  Start VMC
  File Root K.log.s005 append = no 
=========================================================
Using existing walkers 
  Resetting Properties of the walkers 1 x 13

<vmc function="put">
  qmc_counter=4  my_counter=4
  time step      = 1.5000e-01
  blocks         = 300
  steps          = 2
  substeps       = 5
  current        = 0
  target samples = 5.1200e+05
  walkers/mpi    = 1

  stepsbetweensamples = 1
<parameter name="blocks" condition="int">300</parameter>
<parameter name="blocks_between_recompute" condition="int">0</parameter>
<parameter name="check_properties" condition="int">100</parameter>
<parameter name="checkproperties" condition="int">100</parameter>
<parameter name="current" condition="int">0</parameter>
<parameter name="dmcwalkersperthread" condition="real">5.0000e+02</parameter>
<parameter name="maxcpusecs" condition="real">3.6000e+05</parameter>
<parameter name="record_configs" condition="int">0</parameter>
<parameter name="record_walkers" condition="int">1</parameter>
<parameter name="recordconfigs" condition="int">0</parameter>
<parameter name="recordwalkers" condition="int">1</parameter>
<parameter name="rewind" condition="int">0</parameter>
<parameter name="samples" condition="real">5.1200e+05</parameter>
<parameter name="samplesperthread" condition="real">5.0000e+02</parameter>
<parameter name="steps" condition="int">2</parameter>
<parameter name="stepsbetweensamples" condition="int">1</parameter>
<parameter name="store_configs" condition="int">0</parameter>
<parameter name="storeconfigs" condition="int">0</parameter>
<parameter name="sub_steps" condition="int">5</parameter>
<parameter name="substeps" condition="int">5</parameter>
<parameter name="tau" condition="au">1.5000e-01</parameter>
<parameter name="time_step" condition="au">1.5000e-01</parameter>
<parameter name="timestep" condition="au">1.5000e-01</parameter>
<parameter name="use_drift" condition="string">no</parameter>
<parameter name="usedrift" condition="string">no</parameter>
<parameter name="walkers" condition="int">1</parameter>
<parameter name="warmup_steps" condition="int">0</parameter>
<parameter name="warmupsteps" condition="int">0</parameter>
  DumpConfig==false Nothing (configurations, state) will be saved.
  Walker Samples are dumped every 1 steps.
</vmc>
  EstimatorManagerBase::add replace LocalEnergy estimator.
  EstimatorManagerBase::add replace LocalEnergy estimator.
<optimization-report>
<vmc stage="main" blocks="300">
  Cannot make clones again. Use existing 1 clones
  Initial partition of walkers 0 1 
  Using Particle by Particle moves
  Walker moves without drift
  Total Sample Size   =512000
  Walker distribution on root = 0 1 
  Using Locality Approximation
===== Memory Usage after the buffer registration =====
Available memory on node 0, free + buffers : 83643 MB
Memory footprint by rank 0 on node 0       : 101 MB
==================================================
====================================================
  SimpleFixedNodeBranch::finalize after a VMC block
    QMC counter        = 5
    time step          = 0.15
    reference energy   = -28.2195
    reference variance = 0.26285
====================================================
  Execution time = 2.3852e+00
</vmc>
<opt stage="setup">
  <log>
   Reading configurations from h5FileRoot K.log.s005
  QMCCostFunction is created with 1 threads.
  Using Nonlocal PP in Opt: NonLocalECP
   Number of samples loaded to each thread : 500 
  VMC Eavg = -2.8225e+01
  VMC Evar = 2.9692e-01
  Total weights = 5.1200e+05
  Execution time = 7.9892e-01
  </log>
</opt>
<opt stage="main" walkers="512000">
  <log>

*****************************************
Building overlap and Hamiltonian matrices
*****************************************

Among totally 82 optimized parameters, largest LM parameter change : 4.7971e-02 at parameter 21

******************************************************************************
Init Cost =  -2.6799e+01    New Cost =  -2.6799e+01  Delta Cost =  -1.3271e-05
******************************************************************************

The new set of parameters is valid. Updating the trial wave function!

*****************************************************************************
Applying the update for shift_i =   1.0000e-02     and shift_s =   3.9062e-03
*****************************************************************************
  Execution time = 3.7058e+00
  </log>
  <optVariables href="K.log.s005.opt.xml">
uu_0 3.8936e-01 1 1  ON 0
uu_1 1.7204e-01 1 1  ON 1
uu_2 -1.4345e-02 1 1  ON 2
uu_3 -7.0524e-02 1 1  ON 3
uu_4 -9.2838e-02 1 1  ON 4
uu_5 -1.2719e-01 1 1  ON 5
uu_6 -1.2632e-01 1 1  ON 6
uu_7 -7.2903e-02 1 1  ON 7
uu_8 -3.0487e-02 1 1  ON 8
uu_9 -1.3399e-02 1 1  ON 9
ud_0 5.3515e-01 1 1  ON 10
ud_1 1.1088e-01 1 1  ON 11
ud_2 -7.4998e-02 1 1  ON 12
ud_3 -7.9923e-02 1 1  ON 13
ud_4 -8.0028e-02 1 1  ON 14
ud_5 -1.2086e-01 1 1  ON 15
ud_6 -1.3273e-01 1 1  ON 16
ud_7 -7.8747e-02 1 1  ON 17
ud_8 -3.6414e-02 1 1  ON 18
ud_9 -2.5811e-02 1 1  ON 19
eK_0 -1.8245e+00 1 1  ON 20
eK_1 -1.4203e+00 1 1  ON 21
eK_2 1.3099e-01 1 1  ON 22
eK_3 4.2576e-01 1 1  ON 23
eK_4 7.8480e-01 1 1  ON 24
eK_5 7.4801e-01 1 1  ON 25
eK_6 7.5578e-01 1 1  ON 26
eK_7 3.5509e-01 1 1  ON 27
eK_8 4.5272e-02 1 1  ON 28
eK_9 -2.0747e-04 1 1  ON 29
uuK_0 1.4872e-07 1 1  ON 30
uuK_1 7.6709e-07 1 1  ON 31
uuK_2 8.2803e-08 1 1  ON 32
uuK_3 -1.9570e-07 1 1  ON 33
uuK_4 -1.8230e-08 1 1  ON 34
uuK_5 -5.4525e-08 1 1  ON 35
uuK_6 7.0068e-07 1 1  ON 36
uuK_7 1.4305e-07 1 1  ON 37
uuK_8 3.5244e-08 1 1  ON 38
uuK_9 -8.0242e-07 1 1  ON 39
uuK_10 -9.0627e-08 1 1  ON 40
uuK_11 -7.9133e-08 1 1  ON 41
uuK_12 6.4664e-09 1 1  ON 42
uuK_13 4.6092e-08 1 1  ON 43
uuK_14 -7.1464e-09 1 1  ON 44
uuK_15 -1.5921e-11 1 1  ON 45
uuK_16 7.0839e-07 1 1  ON 46
uuK_17 -1.0865e-07 1 1  ON 47
uuK_18 3.3867e-08 1 1  ON 48
uuK_19 -5.7797e-09 1 1  ON 49
uuK_20 -5.7568e-08 1 1  ON 50
uuK_21 2.2477e-09 1 1  ON 51
uuK_22 1.3290e-10 1 1  ON 52
uuK_23 3.6778e-09 1 1  ON 53
uuK_24 -5.9702e-10 1 1  ON 54
uuK_25 3.2456e-11 1 1  ON 55
udK_0 2.4489e-07 1 1  ON 56
udK_1 1.5789e-06 1 1  ON 57
udK_2 3.5189e-07 1 1  ON 58
udK_3 -2.7244e-07 1 1  ON 59
udK_4 -4.3691e-08 1 1  ON 60
udK_5 3.9206e-09 1 1  ON 61
udK_6 1.7495e-06 1 1  ON 62
udK_7 6.1156e-08 1 1  ON 63
udK_8 1.6761e-07 1 1  ON 64
udK_9 -1.7647e-06 1 1  ON 65
udK_10 -9.5480e-08 1 1  ON 66
udK_11 -2.3934e-07 1 1  ON 67
udK_12 1.3103e-09 1 1  ON 68
udK_13 2.0162e-07 1 1  ON 69
udK_14 -6.6142e-09 1 1  ON 70
udK_15 2.0219e-10 1 1  ON 71
udK_16 1.6526e-06 1 1  ON 72
udK_17 -2.2903e-07 1 1  ON 73
udK_18 1.1134e-07 1 1  ON 74
udK_19 -1.0837e-08 1 1  ON 75
udK_20 -2.1631e-07 1 1  ON 76
udK_21 1.8292e-09 1 1  ON 77
udK_22 2.5284e-10 1 1  ON 78
udK_23 3.3782e-08 1 1  ON 79
udK_24 -1.5368e-09 1 1  ON 80
udK_25 1.0955e-10 1 1  ON 81
  </optVariables>
   Restore the number of walkers to 1, removing 0 walkers.
</opt>
</optimization-report>
  QMC Execution time = 3.7181e+00 secs
  Reusing QMCFixedSampleLinearOptimize
 Using QMCCostFunction::QMCCostFunction

=========================================================
  Start QMCFixedSampleLinearOptimize
  File Root K.log.s006 append = no 
=========================================================
  Skip QMCDriver::putQMCInfo 
  Resetting Properties of the walkers 1 x 13

=========================================================
  Start VMC
  File Root K.log.s006 append = no 
=========================================================
Using existing walkers 
  Resetting Properties of the walkers 1 x 13

<vmc function="put">
  qmc_counter=5  my_counter=5
  time step      = 1.5000e-01
  blocks         = 300
  steps          = 2
  substeps       = 5
  current        = 0
  target samples = 5.1200e+05
  walkers/mpi    = 1

  stepsbetweensamples = 1
<parameter name="blocks" condition="int">300</parameter>
<parameter name="blocks_between_recompute" condition="int">0</parameter>
<parameter name="check_properties" condition="int">100</parameter>
<parameter name="checkproperties" condition="int">100</parameter>
<parameter name="current" condition="int">0</parameter>
<parameter name="dmcwalkersperthread" condition="real">5.0000e+02</parameter>
<parameter name="maxcpusecs" condition="real">3.6000e+05</parameter>
<parameter name="record_configs" condition="int">0</parameter>
<parameter name="record_walkers" condition="int">1</parameter>
<parameter name="recordconfigs" condition="int">0</parameter>
<parameter name="recordwalkers" condition="int">1</parameter>
<parameter name="rewind" condition="int">0</parameter>
<parameter name="samples" condition="real">5.1200e+05</parameter>
<parameter name="samplesperthread" condition="real">5.0000e+02</parameter>
<parameter name="steps" condition="int">2</parameter>
<parameter name="stepsbetweensamples" condition="int">1</parameter>
<parameter name="store_configs" condition="int">0</parameter>
<parameter name="storeconfigs" condition="int">0</parameter>
<parameter name="sub_steps" condition="int">5</parameter>
<parameter name="substeps" condition="int">5</parameter>
<parameter name="tau" condition="au">1.5000e-01</parameter>
<parameter name="time_step" condition="au">1.5000e-01</parameter>
<parameter name="timestep" condition="au">1.5000e-01</parameter>
<parameter name="use_drift" condition="string">no</parameter>
<parameter name="usedrift" condition="string">no</parameter>
<parameter name="walkers" condition="int">1</parameter>
<parameter name="warmup_steps" condition="int">0</parameter>
<parameter name="warmupsteps" condition="int">0</parameter>
  DumpConfig==false Nothing (configurations, state) will be saved.
  Walker Samples are dumped every 1 steps.
</vmc>
  EstimatorManagerBase::add replace LocalEnergy estimator.
  EstimatorManagerBase::add replace LocalEnergy estimator.
<optimization-report>
<vmc stage="main" blocks="300">
  Cannot make clones again. Use existing 1 clones
  Initial partition of walkers 0 1 
  Using Particle by Particle moves
  Walker moves without drift
  Total Sample Size   =512000
  Walker distribution on root = 0 1 
  Using Locality Approximation
===== Memory Usage after the buffer registration =====
Available memory on node 0, free + buffers : 83641 MB
Memory footprint by rank 0 on node 0       : 103 MB
==================================================
====================================================
  SimpleFixedNodeBranch::finalize after a VMC block
    QMC counter        = 6
    time step          = 0.15
    reference energy   = -28.2149
    reference variance = 0.248523
====================================================
  Execution time = 2.4037e+00
</vmc>
<opt stage="setup">
  <log>
   Reading configurations from h5FileRoot K.log.s006
  QMCCostFunction is created with 1 threads.
  Using Nonlocal PP in Opt: NonLocalECP
   Number of samples loaded to each thread : 500 
  VMC Eavg = -2.8225e+01
  VMC Evar = 3.0740e-01
  Total weights = 5.1200e+05
  Execution time = 7.9968e-01
  </log>
</opt>
<opt stage="main" walkers="512000">
  <log>

*****************************************
Building overlap and Hamiltonian matrices
*****************************************

Among totally 82 optimized parameters, largest LM parameter change : 3.7727e-02 at parameter 21

******************************************************************************
Init Cost =  -2.6799e+01    New Cost =  -2.6799e+01  Delta Cost =  -7.8464e-05
******************************************************************************

The new set of parameters is valid. Updating the trial wave function!

*****************************************************************************
Applying the update for shift_i =   1.0000e-02     and shift_s =   3.9062e-03
*****************************************************************************
  Execution time = 3.6481e+00
  </log>
  <optVariables href="K.log.s006.opt.xml">
uu_0 3.9614e-01 1 1  ON 0
uu_1 1.7616e-01 1 1  ON 1
uu_2 -1.6861e-02 1 1  ON 2
uu_3 -7.1368e-02 1 1  ON 3
uu_4 -9.2984e-02 1 1  ON 4
uu_5 -1.2902e-01 1 1  ON 5
uu_6 -1.2950e-01 1 1  ON 6
uu_7 -7.6534e-02 1 1  ON 7
uu_8 -2.6910e-02 1 1  ON 8
uu_9 -1.5627e-02 1 1  ON 9
ud_0 5.4051e-01 1 1  ON 10
ud_1 1.1256e-01 1 1  ON 11
ud_2 -7.4384e-02 1 1  ON 12
ud_3 -8.2402e-02 1 1  ON 13
ud_4 -8.2098e-02 1 1  ON 14
ud_5 -1.2309e-01 1 1  ON 15
ud_6 -1.3685e-01 1 1  ON 16
ud_7 -7.6279e-02 1 1  ON 17
ud_8 -2.8861e-02 1 1  ON 18
ud_9 -3.0090e-02 1 1  ON 19
eK_0 -1.7986e+00 1 1  ON 20
eK_1 -1.4580e+00 1 1  ON 21
eK_2 1.3476e-01 1 1  ON 22
eK_3 4.4380e-01 1 1  ON 23
eK_4 7.7405e-01 1 1  ON 24
eK_5 7.2502e-01 1 1  ON 25
eK_6 7.6112e-01 1 1  ON 26
eK_7 3.6872e-01 1 1  ON 27
eK_8 5.1303e-02 1 1  ON 28
eK_9 -1.3536e-03 1 1  ON 29
uuK_0 1.5465e-07 1 1  ON 30
uuK_1 7.9356e-07 1 1  ON 31
uuK_2 8.3883e-08 1 1  ON 32
uuK_3 -2.1289e-07 1 1  ON 33
uuK_4 -2.0322e-08 1 1  ON 34
uuK_5 -6.3140e-08 1 1  ON 35
uuK_6 7.2315e-07 1 1  ON 36
uuK_7 1.3962e-07 1 1  ON 37
uuK_8 3.7148e-08 1 1  ON 38
uuK_9 -8.2505e-07 1 1  ON 39
uuK_10 -1.0082e-07 1 1  ON 40
uuK_11 -7.3574e-08 1 1  ON 41
uuK_12 5.8148e-09 1 1  ON 42
uuK_13 5.8259e-08 1 1  ON 43
uuK_14 -6.9104e-09 1 1  ON 44
uuK_15 6.7968e-12 1 1  ON 45
uuK_16 7.2128e-07 1 1  ON 46
uuK_17 -9.8336e-08 1 1  ON 47
uuK_18 2.7777e-08 1 1  ON 48
uuK_19 -5.2794e-09 1 1  ON 49
uuK_20 -6.1599e-08 1 1  ON 50
uuK_21 2.9787e-09 1 1  ON 51
uuK_22 6.2143e-11 1 1  ON 52
uuK_23 4.3685e-09 1 1  ON 53
uuK_24 -7.4609e-10 1 1  ON 54
uuK_25 4.7428e-11 1 1  ON 55
udK_0 2.6487e-07 1 1  ON 56
udK_1 1.5925e-06 1 1  ON 57
udK_2 3.4186e-07 1 1  ON 58
udK_3 -2.7910e-07 1 1  ON 59
udK_4 -4.2584e-08 1 1  ON 60
udK_5 5.6233e-09 1 1  ON 61
udK_6 1.7358e-06 1 1  ON 62
udK_7 6.3565e-08 1 1  ON 63
udK_8 1.6831e-07 1 1  ON 64
udK_9 -1.7708e-06 1 1  ON 65
udK_10 -9.5479e-08 1 1  ON 66
udK_11 -2.4398e-07 1 1  ON 67
udK_12 1.3238e-09 1 1  ON 68
udK_13 2.0548e-07 1 1  ON 69
udK_14 -5.8568e-09 1 1  ON 70
udK_15 1.4911e-10 1 1  ON 71
udK_16 1.6722e-06 1 1  ON 72
udK_17 -2.2970e-07 1 1  ON 73
udK_18 1.1600e-07 1 1  ON 74
udK_19 -1.1279e-08 1 1  ON 75
udK_20 -2.2210e-07 1 1  ON 76
udK_21 1.2871e-09 1 1  ON 77
udK_22 3.2995e-10 1 1  ON 78
udK_23 3.5400e-08 1 1  ON 79
udK_24 -1.5146e-09 1 1  ON 80
udK_25 1.0090e-10 1 1  ON 81
  </optVariables>
   Restore the number of walkers to 1, removing 0 walkers.
</opt>
</optimization-report>
  QMC Execution time = 3.6611e+00 secs
  Reusing QMCFixedSampleLinearOptimize
 Using QMCCostFunction::QMCCostFunction

=========================================================
  Start QMCFixedSampleLinearOptimize
  File Root K.log.s007 append = no 
=========================================================
  Skip QMCDriver::putQMCInfo 
  Resetting Properties of the walkers 1 x 13

=========================================================
  Start VMC
  File Root K.log.s007 append = no 
=========================================================
Using existing walkers 
  Resetting Properties of the walkers 1 x 13

<vmc function="put">
  qmc_counter=6  my_counter=6
  time step      = 1.5000e-01
  blocks         = 300
  steps          = 2
  substeps       = 5
  current        = 0
  target samples = 5.1200e+05
  walkers/mpi    = 1

  stepsbetweensamples = 1
<parameter name="blocks" condition="int">300</parameter>
<parameter name="blocks_between_recompute" condition="int">0</parameter>
<parameter name="check_properties" condition="int">100</parameter>
<parameter name="checkproperties" condition="int">100</parameter>
<parameter name="current" condition="int">0</parameter>
<parameter name="dmcwalkersperthread" condition="real">5.0000e+02</parameter>
<parameter name="maxcpusecs" condition="real">3.6000e+05</parameter>
<parameter name="record_configs" condition="int">0</parameter>
<parameter name="record_walkers" condition="int">1</parameter>
<parameter name="recordconfigs" condition="int">0</parameter>
<parameter name="recordwalkers" condition="int">1</parameter>
<parameter name="rewind" condition="int">0</parameter>
<parameter name="samples" condition="real">5.1200e+05</parameter>
<parameter name="samplesperthread" condition="real">5.0000e+02</parameter>
<parameter name="steps" condition="int">2</parameter>
<parameter name="stepsbetweensamples" condition="int">1</parameter>
<parameter name="store_configs" condition="int">0</parameter>
<parameter name="storeconfigs" condition="int">0</parameter>
<parameter name="sub_steps" condition="int">5</parameter>
<parameter name="substeps" condition="int">5</parameter>
<parameter name="tau" condition="au">1.5000e-01</parameter>
<parameter name="time_step" condition="au">1.5000e-01</parameter>
<parameter name="timestep" condition="au">1.5000e-01</parameter>
<parameter name="use_drift" condition="string">no</parameter>
<parameter name="usedrift" condition="string">no</parameter>
<parameter name="walkers" condition="int">1</parameter>
<parameter name="warmup_steps" condition="int">0</parameter>
<parameter name="warmupsteps" condition="int">0</parameter>
  DumpConfig==false Nothing (configurations, state) will be saved.
  Walker Samples are dumped every 1 steps.
</vmc>
  EstimatorManagerBase::add replace LocalEnergy estimator.
  EstimatorManagerBase::add replace LocalEnergy estimator.
<optimization-report>
<vmc stage="main" blocks="300">
  Cannot make clones again. Use existing 1 clones
  Initial partition of walkers 0 1 
  Using Particle by Particle moves
  Walker moves without drift
  Total Sample Size   =512000
  Walker distribution on root = 0 1 
  Using Locality Approximation
===== Memory Usage after the buffer registration =====
Available memory on node 0, free + buffers : 83638 MB
Memory footprint by rank 0 on node 0       : 105 MB
==================================================
====================================================
  SimpleFixedNodeBranch::finalize after a VMC block
    QMC counter        = 7
    time step          = 0.15
    reference energy   = -28.2195
    reference variance = 0.272609
====================================================
  Execution time = 2.3984e+00
</vmc>
<opt stage="setup">
  <log>
   Reading configurations from h5FileRoot K.log.s007
  QMCCostFunction is created with 1 threads.
  Using Nonlocal PP in Opt: NonLocalECP
   Number of samples loaded to each thread : 500 
  VMC Eavg = -2.8226e+01
  VMC Evar = 2.9196e-01
  Total weights = 5.1200e+05
  Execution time = 7.9784e-01
  </log>
</opt>
<opt stage="main" walkers="512000">
  <log>

*****************************************
Building overlap and Hamiltonian matrices
*****************************************

Among totally 82 optimized parameters, largest LM parameter change : 3.1185e-02 at parameter 21

******************************************************************************
Init Cost =  -2.6800e+01    New Cost =  -2.6800e+01  Delta Cost =  -9.7068e-05
******************************************************************************

The new set of parameters is valid. Updating the trial wave function!

*****************************************************************************
Applying the update for shift_i =   1.0000e-02     and shift_s =   3.9062e-03
*****************************************************************************
  Execution time = 3.6633e+00
  </log>
  <optVariables href="K.log.s007.opt.xml">
uu_0 3.9949e-01 1 1  ON 0
uu_1 1.7869e-01 1 1  ON 1
uu_2 -1.0805e-02 1 1  ON 2
uu_3 -6.6981e-02 1 1  ON 3
uu_4 -9.1532e-02 1 1  ON 4
uu_5 -1.2859e-01 1 1  ON 5
uu_6 -1.3485e-01 1 1  ON 6
uu_7 -8.2275e-02 1 1  ON 7
uu_8 -3.3012e-02 1 1  ON 8
uu_9 -1.5943e-02 1 1  ON 9
ud_0 5.4037e-01 1 1  ON 10
ud_1 1.1565e-01 1 1  ON 11
ud_2 -7.0499e-02 1 1  ON 12
ud_3 -7.9054e-02 1 1  ON 13
ud_4 -8.1174e-02 1 1  ON 14
ud_5 -1.2237e-01 1 1  ON 15
ud_6 -1.3644e-01 1 1  ON 16
ud_7 -8.2434e-02 1 1  ON 17
ud_8 -3.5406e-02 1 1  ON 18
ud_9 -2.8524e-02 1 1  ON 19
eK_0 -1.7786e+00 1 1  ON 20
eK_1 -1.4892e+00 1 1  ON 21
eK_2 1.3678e-01 1 1  ON 22
eK_3 4.6321e-01 1 1  ON 23
eK_4 7.6360e-01 1 1  ON 24
eK_5 7.0934e-01 1 1  ON 25
eK_6 7.6296e-01 1 1  ON 26
eK_7 3.8004e-01 1 1  ON 27
eK_8 5.4112e-02 1 1  ON 28
eK_9 -1.3308e-03 1 1  ON 29
uuK_0 1.5200e-07 1 1  ON 30
uuK_1 7.7290e-07 1 1  ON 31
uuK_2 8.8109e-08 1 1  ON 32
uuK_3 -1.8908e-07 1 1  ON 33
uuK_4 -1.8197e-08 1 1  ON 34
uuK_5 -4.7736e-08 1 1  ON 35
uuK_6 6.9970e-07 1 1  ON 36
uuK_7 1.6269e-07 1 1  ON 37
uuK_8 4.1473e-08 1 1  ON 38
uuK_9 -8.0729e-07 1 1  ON 39
uuK_10 -8.7014e-08 1 1  ON 40
uuK_11 -9.0953e-08 1 1  ON 41
uuK_12 6.4613e-09 1 1  ON 42
uuK_13 3.8901e-08 1 1  ON 43
uuK_14 -6.7202e-09 1 1  ON 44
uuK_15 -4.0789e-11 1 1  ON 45
uuK_16 7.1679e-07 1 1  ON 46
uuK_17 -1.1465e-07 1 1  ON 47
uuK_18 3.8592e-08 1 1  ON 48
uuK_19 -6.2948e-09 1 1  ON 49
uuK_20 -5.3465e-08 1 1  ON 50
uuK_21 1.9283e-09 1 1  ON 51
uuK_22 1.8932e-10 1 1  ON 52
uuK_23 2.1139e-09 1 1  ON 53
uuK_24 -5.3129e-10 1 1  ON 54
uuK_25 2.3331e-11 1 1  ON 55
udK_0 2.5956e-07 1 1  ON 56
udK_1 1.5876e-06 1 1  ON 57
udK_2 3.4687e-07 1 1  ON 58
udK_3 -2.7466e-07 1 1  ON 59
udK_4 -4.1492e-08 1 1  ON 60
udK_5 -9.5329e-09 1 1  ON 61
udK_6 1.7387e-06 1 1  ON 62
udK_7 7.1872e-08 1 1  ON 63
udK_8 1.6742e-07 1 1  ON 64
udK_9 -1.7714e-06 1 1  ON 65
udK_10 -8.8645e-08 1 1  ON 66
udK_11 -2.5105e-07 1 1  ON 67
udK_12 2.6414e-09 1 1  ON 68
udK_13 1.9143e-07 1 1  ON 69
udK_14 -7.0394e-09 1 1  ON 70
udK_15 1.4000e-10 1 1  ON 71
udK_16 1.6838e-06 1 1  ON 72
udK_17 -2.4398e-07 1 1  ON 73
udK_18 1.2142e-07 1 1  ON 74
udK_19 -1.2147e-08 1 1  ON 75
udK_20 -2.1941e-07 1 1  ON 76
udK_21 1.0564e-09 1 1  ON 77
udK_22 3.9500e-10 1 1  ON 78
udK_23 3.4169e-08 1 1  ON 79
udK_24 -1.4362e-09 1 1  ON 80
udK_25 8.8939e-11 1 1  ON 81
  </optVariables>
   Restore the number of walkers to 1, removing 0 walkers.
</opt>
</optimization-report>
  QMC Execution time = 3.6754e+00 secs
  Reusing QMCFixedSampleLinearOptimize
 Using QMCCostFunction::QMCCostFunction

=========================================================
  Start QMCFixedSampleLinearOptimize
  File Root K.log.s008 append = no 
=========================================================
  Skip QMCDriver::putQMCInfo 
  Resetting Properties of the walkers 1 x 13

=========================================================
  Start VMC
  File Root K.log.s008 append = no 
=========================================================
Using existing walkers 
  Resetting Properties of the walkers 1 x 13

<vmc function="put">
  qmc_counter=7  my_counter=7
  time step      = 1.5000e-01
  blocks         = 300
  steps          = 2
  substeps       = 5
  current        = 0
  target samples = 5.1200e+05
  walkers/mpi    = 1

  stepsbetweensamples = 1
<parameter name="blocks" condition="int">300</parameter>
<parameter name="blocks_between_recompute" condition="int">0</parameter>
<parameter name="check_properties" condition="int">100</parameter>
<parameter name="checkproperties" condition="int">100</parameter>
<parameter name="current" condition="int">0</parameter>
<parameter name="dmcwalkersperthread" condition="real">5.0000e+02</parameter>
<parameter name="maxcpusecs" condition="real">3.6000e+05</parameter>
<parameter name="record_configs" condition="int">0</parameter>
<parameter name="record_walkers" condition="int">1</parameter>
<parameter name="recordconfigs" condition="int">0</parameter>
<parameter name="recordwalkers" condition="int">1</parameter>
<parameter name="rewind" condition="int">0</parameter>
<parameter name="samples" condition="real">5.1200e+05</parameter>
<parameter name="samplesperthread" condition="real">5.0000e+02</parameter>
<parameter name="steps" condition="int">2</parameter>
<parameter name="stepsbetweensamples" condition="int">1</parameter>
<parameter name="store_configs" condition="int">0</parameter>
<parameter name="storeconfigs" condition="int">0</parameter>
<parameter name="sub_steps" condition="int">5</parameter>
<parameter name="substeps" condition="int">5</parameter>
<parameter name="tau" condition="au">1.5000e-01</parameter>
<parameter name="time_step" condition="au">1.5000e-01</parameter>
<parameter name="timestep" condition="au">1.5000e-01</parameter>
<parameter name="use_drift" condition="string">no</parameter>
<parameter name="usedrift" condition="string">no</parameter>
<parameter name="walkers" condition="int">1</parameter>
<parameter name="warmup_steps" condition="int">0</parameter>
<parameter name="warmupsteps" condition="int">0</parameter>
  DumpConfig==false Nothing (configurations, state) will be saved.
  Walker Samples are dumped every 1 steps.
</vmc>
  EstimatorManagerBase::add replace LocalEnergy estimator.
  EstimatorManagerBase::add replace LocalEnergy estimator.
<optimization-report>
<vmc stage="main" blocks="300">
  Cannot make clones again. Use existing 1 clones
  Initial partition of walkers 0 1 
  Using Particle by Particle moves
  Walker moves without drift
  Total Sample Size   =512000
  Walker distribution on root = 0 1 
  Using Locality Approximation
===== Memory Usage after the buffer registration =====
Available memory on node 0, free + buffers : 83635 MB
Memory footprint by rank 0 on node 0       : 108 MB
==================================================
====================================================
  SimpleFixedNodeBranch::finalize after a VMC block
    QMC counter        = 8
    time step          = 0.15
    reference energy   = -28.2241
    reference variance = 0.280212
====================================================
  Execution time = 2.4258e+00
</vmc>
<opt stage="setup">
  <log>
   Reading configurations from h5FileRoot K.log.s008
  QMCCostFunction is created with 1 threads.
  Using Nonlocal PP in Opt: NonLocalECP
   Number of samples loaded to each thread : 500 
  VMC Eavg = -2.8225e+01
  VMC Evar = 3.1060e-01
  Total weights = 5.1200e+05
  Execution time = 8.1052e-01
  </log>
</opt>
<opt stage="main" walkers="512000">
  <log>

*****************************************
Building overlap and Hamiltonian matrices
*****************************************

Among totally 82 optimized parameters, largest LM parameter change : 2.5722e-02 at parameter 21

******************************************************************************
Init Cost =  -2.6799e+01    New Cost =  -2.6799e+01  Delta Cost =  -2.5470e-05
******************************************************************************

The new set of parameters is valid. Updating the trial wave function!

*****************************************************************************
Applying the update for shift_i =   1.0000e-02     and shift_s =   3.9062e-03
*****************************************************************************
  Execution time = 3.7071e+00
  </log>
  <optVariables href="K.log.s008.opt.xml">
uu_0 4.0342e-01 1 1  ON 0
uu_1 1.8161e-01 1 1  ON 1
uu_2 -1.3524e-02 1 1  ON 2
uu_3 -7.0410e-02 1 1  ON 3
uu_4 -9.4278e-02 1 1  ON 4
uu_5 -1.3103e-01 1 1  ON 5
uu_6 -1.3808e-01 1 1  ON 6
uu_7 -7.9351e-02 1 1  ON 7
uu_8 -2.6040e-02 1 1  ON 8
uu_9 -1.3987e-02 1 1  ON 9
ud_0 5.4392e-01 1 1  ON 10
ud_1 1.1483e-01 1 1  ON 11
ud_2 -7.0968e-02 1 1  ON 12
ud_3 -7.7368e-02 1 1  ON 13
ud_4 -8.0797e-02 1 1  ON 14
ud_5 -1.2314e-01 1 1  ON 15
ud_6 -1.4019e-01 1 1  ON 16
ud_7 -8.4001e-02 1 1  ON 17
ud_8 -3.2142e-02 1 1  ON 18
ud_9 -2.6419e-02 1 1  ON 19
eK_0 -1.7600e+00 1 1  ON 20
eK_1 -1.5150e+00 1 1  ON 21
eK_2 1.3388e-01 1 1  ON 22
eK_3 4.8491e-01 1 1  ON 23
eK_4 7.5001e-01 1 1  ON 24
eK_5 6.9348e-01 1 1  ON 25
eK_6 7.6393e-01 1 1  ON 26
eK_7 3.9134e-01 1 1  ON 27
eK_8 6.0091e-02 1 1  ON 28
eK_9 -7.8939e-04 1 1  ON 29
uuK_0 1.5726e-07 1 1  ON 30
uuK_1 8.0412e-07 1 1  ON 31
uuK_2 9.5255e-08 1 1  ON 32
uuK_3 -2.0800e-07 1 1  ON 33
uuK_4 -2.0764e-08 1 1  ON 34
uuK_5 -6.2768e-08 1 1  ON 35
uuK_6 7.4008e-07 1 1  ON 36
uuK_7 1.4703e-07 1 1  ON 37
uuK_8 4.7683e-08 1 1  ON 38
uuK_9 -8.4550e-07 1 1  ON 39
uuK_10 -9.5218e-08 1 1  ON 40
uuK_11 -8.8229e-08 1 1  ON 41
uuK_12 4.7627e-09 1 1  ON 42
uuK_13 5.8620e-08 1 1  ON 43
uuK_14 -5.6389e-09 1 1  ON 44
uuK_15 -2.7017e-12 1 1  ON 45
uuK_16 7.4768e-07 1 1  ON 46
uuK_17 -1.0355e-07 1 1  ON 47
uuK_18 3.5144e-08 1 1  ON 48
uuK_19 -5.6141e-09 1 1  ON 49
uuK_20 -6.6381e-08 1 1  ON 50
uuK_21 2.4682e-09 1 1  ON 51
uuK_22 1.1087e-10 1 1  ON 52
uuK_23 5.2889e-09 1 1  ON 53
uuK_24 -7.3762e-10 1 1  ON 54
uuK_25 4.4179e-11 1 1  ON 55
udK_0 2.7321e-07 1 1  ON 56
udK_1 1.6382e-06 1 1  ON 57
udK_2 3.5002e-07 1 1  ON 58
udK_3 -2.8616e-07 1 1  ON 59
udK_4 -4.3303e-08 1 1  ON 60
udK_5 -1.4520e-10 1 1  ON 61
udK_6 1.7867e-06 1 1  ON 62
udK_7 6.0322e-08 1 1  ON 63
udK_8 1.7045e-07 1 1  ON 64
udK_9 -1.8209e-06 1 1  ON 65
udK_10 -9.6840e-08 1 1  ON 66
udK_11 -2.4995e-07 1 1  ON 67
udK_12 2.2474e-09 1 1  ON 68
udK_13 2.0850e-07 1 1  ON 69
udK_14 -6.9971e-09 1 1  ON 70
udK_15 1.5815e-10 1 1  ON 71
udK_16 1.7361e-06 1 1  ON 72
udK_17 -2.4058e-07 1 1  ON 73
udK_18 1.1919e-07 1 1  ON 74
udK_19 -1.1995e-08 1 1  ON 75
udK_20 -2.3076e-07 1 1  ON 76
udK_21 1.7005e-09 1 1  ON 77
udK_22 3.3882e-10 1 1  ON 78
udK_23 3.6354e-08 1 1  ON 79
udK_24 -1.5987e-09 1 1  ON 80
udK_25 1.0483e-10 1 1  ON 81
  </optVariables>
   Restore the number of walkers to 1, removing 0 walkers.
</opt>
</optimization-report>
  QMC Execution time = 3.7201e+00 secs
  Reusing QMCFixedSampleLinearOptimize
 Using QMCCostFunction::QMCCostFunction

=========================================================
  Start QMCFixedSampleLinearOptimize
  File Root K.log.s009 append = no 
=========================================================
  Skip QMCDriver::putQMCInfo 
  Resetting Properties of the walkers 1 x 13

=========================================================
  Start VMC
  File Root K.log.s009 append = no 
=========================================================
Using existing walkers 
  Resetting Properties of the walkers 1 x 13

<vmc function="put">
  qmc_counter=8  my_counter=8
  time step      = 1.5000e-01
  blocks         = 300
  steps          = 2
  substeps       = 5
  current        = 0
  target samples = 5.1200e+05
  walkers/mpi    = 1

  stepsbetweensamples = 1
<parameter name="blocks" condition="int">300</parameter>
<parameter name="blocks_between_recompute" condition="int">0</parameter>
<parameter name="check_properties" condition="int">100</parameter>
<parameter name="checkproperties" condition="int">100</parameter>
<parameter name="current" condition="int">0</parameter>
<parameter name="dmcwalkersperthread" condition="real">5.0000e+02</parameter>
<parameter name="maxcpusecs" condition="real">3.6000e+05</parameter>
<parameter name="record_configs" condition="int">0</parameter>
<parameter name="record_walkers" condition="int">1</parameter>
<parameter name="recordconfigs" condition="int">0</parameter>
<parameter name="recordwalkers" condition="int">1</parameter>
<parameter name="rewind" condition="int">0</parameter>
<parameter name="samples" condition="real">5.1200e+05</parameter>
<parameter name="samplesperthread" condition="real">5.0000e+02</parameter>
<parameter name="steps" condition="int">2</parameter>
<parameter name="stepsbetweensamples" condition="int">1</parameter>
<parameter name="store_configs" condition="int">0</parameter>
<parameter name="storeconfigs" condition="int">0</parameter>
<parameter name="sub_steps" condition="int">5</parameter>
<parameter name="substeps" condition="int">5</parameter>
<parameter name="tau" condition="au">1.5000e-01</parameter>
<parameter name="time_step" condition="au">1.5000e-01</parameter>
<parameter name="timestep" condition="au">1.5000e-01</parameter>
<parameter name="use_drift" condition="string">no</parameter>
<parameter name="usedrift" condition="string">no</parameter>
<parameter name="walkers" condition="int">1</parameter>
<parameter name="warmup_steps" condition="int">0</parameter>
<parameter name="warmupsteps" condition="int">0</parameter>
  DumpConfig==false Nothing (configurations, state) will be saved.
  Walker Samples are dumped every 1 steps.
</vmc>
  EstimatorManagerBase::add replace LocalEnergy estimator.
  EstimatorManagerBase::add replace LocalEnergy estimator.
<optimization-report>
<vmc stage="main" blocks="300">
  Cannot make clones again. Use existing 1 clones
  Initial partition of walkers 0 1 
  Using Particle by Particle moves
  Walker moves without drift
  Total Sample Size   =512000
  Walker distribution on root = 0 1 
  Using Locality Approximation
===== Memory Usage after the buffer registration =====
Available memory on node 0, free + buffers : 83633 MB
Memory footprint by rank 0 on node 0       : 110 MB
==================================================
====================================================
  SimpleFixedNodeBranch::finalize after a VMC block
    QMC counter        = 9
    time step          = 0.15
    reference energy   = -28.273
    reference variance = 0.304133
====================================================
  Execution time = 2.4521e+00
</vmc>
<opt stage="setup">
  <log>
   Reading configurations from h5FileRoot K.log.s009
  QMCCostFunction is created with 1 threads.
  Using Nonlocal PP in Opt: NonLocalECP
   Number of samples loaded to each thread : 500 
  VMC Eavg = -2.8226e+01
  VMC Evar = 3.2478e-01
  Total weights = 5.1200e+05
  Execution time = 8.0177e-01
  </log>
</opt>
<opt stage="main" walkers="512000">
  <log>

*****************************************
Building overlap and Hamiltonian matrices
*****************************************

Among totally 82 optimized parameters, largest LM parameter change : 2.1511e-02 at parameter 21

******************************************************************************
Init Cost =  -2.6799e+01    New Cost =  -2.6799e+01  Delta Cost =  -7.9613e-05
******************************************************************************

The new set of parameters is valid. Updating the trial wave function!

*****************************************************************************
Applying the update for shift_i =   1.0000e-02     and shift_s =   3.9062e-03
*****************************************************************************
  Execution time = 3.7239e+00
  </log>
  <optVariables href="K.log.s009.opt.xml">
uu_0 4.0802e-01 1 1  ON 0
uu_1 1.8338e-01 1 1  ON 1
uu_2 -1.1197e-02 1 1  ON 2
uu_3 -6.8933e-02 1 1  ON 3
uu_4 -9.4270e-02 1 1  ON 4
uu_5 -1.2536e-01 1 1  ON 5
uu_6 -1.3314e-01 1 1  ON 6
uu_7 -8.3773e-02 1 1  ON 7
uu_8 -3.2951e-02 1 1  ON 8
uu_9 -2.2828e-02 1 1  ON 9
ud_0 5.4500e-01 1 1  ON 10
ud_1 1.1681e-01 1 1  ON 11
ud_2 -7.1647e-02 1 1  ON 12
ud_3 -7.8316e-02 1 1  ON 13
ud_4 -7.5596e-02 1 1  ON 14
ud_5 -1.1919e-01 1 1  ON 15
ud_6 -1.3447e-01 1 1  ON 16
ud_7 -8.9426e-02 1 1  ON 17
ud_8 -3.9668e-02 1 1  ON 18
ud_9 -3.0457e-02 1 1  ON 19
eK_0 -1.7464e+00 1 1  ON 20
eK_1 -1.5365e+00 1 1  ON 21
eK_2 1.3400e-01 1 1  ON 22
eK_3 5.0102e-01 1 1  ON 23
eK_4 7.4144e-01 1 1  ON 24
eK_5 6.7917e-01 1 1  ON 25
eK_6 7.6642e-01 1 1  ON 26
eK_7 4.0189e-01 1 1  ON 27
eK_8 6.2405e-02 1 1  ON 28
eK_9 -2.5197e-03 1 1  ON 29
uuK_0 1.5814e-07 1 1  ON 30
uuK_1 7.8613e-07 1 1  ON 31
uuK_2 8.6003e-08 1 1  ON 32
uuK_3 -1.8779e-07 1 1  ON 33
uuK_4 -1.7651e-08 1 1  ON 34
uuK_5 -5.1629e-08 1 1  ON 35
uuK_6 7.1171e-07 1 1  ON 36
uuK_7 1.5535e-07 1 1  ON 37
uuK_8 4.0176e-08 1 1  ON 38
uuK_9 -8.2058e-07 1 1  ON 39
uuK_10 -8.5975e-08 1 1  ON 40
uuK_11 -9.0561e-08 1 1  ON 41
uuK_12 6.3085e-09 1 1  ON 42
uuK_13 3.9126e-08 1 1  ON 43
uuK_14 -6.6209e-09 1 1  ON 44
uuK_15 -3.5262e-11 1 1  ON 45
uuK_16 7.3568e-07 1 1  ON 46
uuK_17 -1.1723e-07 1 1  ON 47
uuK_18 3.9748e-08 1 1  ON 48
uuK_19 -6.2141e-09 1 1  ON 49
uuK_20 -5.6727e-08 1 1  ON 50
uuK_21 1.8090e-09 1 1  ON 51
uuK_22 1.9612e-10 1 1  ON 52
uuK_23 2.8735e-09 1 1  ON 53
uuK_24 -5.5729e-10 1 1  ON 54
uuK_25 2.2326e-11 1 1  ON 55
udK_0 2.6760e-07 1 1  ON 56
udK_1 1.6153e-06 1 1  ON 57
udK_2 3.5295e-07 1 1  ON 58
udK_3 -2.8177e-07 1 1  ON 59
udK_4 -4.2522e-08 1 1  ON 60
udK_5 -1.0277e-08 1 1  ON 61
udK_6 1.7548e-06 1 1  ON 62
udK_7 7.7236e-08 1 1  ON 63
udK_8 1.7524e-07 1 1  ON 64
udK_9 -1.7910e-06 1 1  ON 65
udK_10 -8.8677e-08 1 1  ON 66
udK_11 -2.6178e-07 1 1  ON 67
udK_12 1.5476e-09 1 1  ON 68
udK_13 1.9286e-07 1 1  ON 69
udK_14 -5.8305e-09 1 1  ON 70
udK_15 1.2958e-10 1 1  ON 71
udK_16 1.7052e-06 1 1  ON 72
udK_17 -2.4886e-07 1 1  ON 73
udK_18 1.2870e-07 1 1  ON 74
udK_19 -1.2413e-08 1 1  ON 75
udK_20 -2.2051e-07 1 1  ON 76
udK_21 8.3092e-11 1 1  ON 77
udK_22 4.9074e-10 1 1  ON 78
udK_23 3.3436e-08 1 1  ON 79
udK_24 -1.2641e-09 1 1  ON 80
udK_25 6.5773e-11 1 1  ON 81
  </optVariables>
   Restore the number of walkers to 1, removing 0 walkers.
</opt>
</optimization-report>
  QMC Execution time = 3.7370e+00 secs
  Reusing QMCFixedSampleLinearOptimize
 Using QMCCostFunction::QMCCostFunction

=========================================================
[...]
    QMC counter        = 20
    time step          = 0.15
    reference energy   = -28.2772
    reference variance = 0.277323
====================================================
  Execution time = 2.9486e+00
</vmc>
<opt stage="setup">
  <log>
   Reading configurations from h5FileRoot K.log.s020
  QMCCostFunction is created with 1 threads.
  Using Nonlocal PP in Opt: NonLocalECP
   Number of samples loaded to each thread : 500 
  VMC Eavg = -2.8228e+01
  VMC Evar = 3.0140e-01
  Total weights = 5.1200e+05
  Execution time = 7.9534e-01
  </log>
</opt>
<opt stage="main" walkers="512000">
  <log>

*****************************************
Building overlap and Hamiltonian matrices
*****************************************

Among totally 82 optimized parameters, largest LM parameter change : 9.1620e-03 at parameter 25

******************************************************************************
Init Cost =  -2.6801e+01    New Cost =  -2.6801e+01  Delta Cost =  -8.2194e-05
******************************************************************************

The new set of parameters is valid. Updating the trial wave function!

*****************************************************************************
Applying the update for shift_i =   1.0000e-02     and shift_s =   3.9062e-03
*****************************************************************************
  Execution time = 4.2084e+00
  </log>
  <optVariables href="K.log.s020.opt.xml">
uu_0 4.2839e-01 1 1  ON 0
uu_1 1.9971e-01 1 1  ON 1
uu_2 4.1069e-04 1 1  ON 2
uu_3 -6.0672e-02 1 1  ON 3
uu_4 -9.0546e-02 1 1  ON 4
uu_5 -1.2776e-01 1 1  ON 5
uu_6 -1.3853e-01 1 1  ON 6
uu_7 -1.1175e-01 1 1  ON 7
uu_8 -4.6764e-02 1 1  ON 8
uu_9 -2.2091e-02 1 1  ON 9
ud_0 5.5338e-01 1 1  ON 10
ud_1 1.2426e-01 1 1  ON 11
ud_2 -5.8834e-02 1 1  ON 12
ud_3 -6.5866e-02 1 1  ON 13
ud_4 -7.0262e-02 1 1  ON 14
ud_5 -1.1639e-01 1 1  ON 15
ud_6 -1.4475e-01 1 1  ON 16
ud_7 -1.1009e-01 1 1  ON 17
ud_8 -5.2633e-02 1 1  ON 18
ud_9 -2.3956e-02 1 1  ON 19
eK_0 -1.6994e+00 1 1  ON 20
eK_1 -1.6418e+00 1 1  ON 21
eK_2 1.2864e-01 1 1  ON 22
eK_3 6.2422e-01 1 1  ON 23
eK_4 6.9093e-01 1 1  ON 24
eK_5 5.3641e-01 1 1  ON 25
eK_6 7.6138e-01 1 1  ON 26
eK_7 4.9359e-01 1 1  ON 27
eK_8 1.0984e-01 1 1  ON 28
eK_9 -6.5646e-04 1 1  ON 29
uuK_0 1.7377e-07 1 1  ON 30
uuK_1 8.2172e-07 1 1  ON 31
uuK_2 9.8362e-08 1 1  ON 32
uuK_3 -2.1602e-07 1 1  ON 33
uuK_4 -2.0929e-08 1 1  ON 34
uuK_5 -7.8059e-08 1 1  ON 35
uuK_6 7.4628e-07 1 1  ON 36
uuK_7 1.4514e-07 1 1  ON 37
uuK_8 5.5300e-08 1 1  ON 38
uuK_9 -8.6573e-07 1 1  ON 39
uuK_10 -9.2007e-08 1 1  ON 40
uuK_11 -9.8096e-08 1 1  ON 41
uuK_12 3.6330e-09 1 1  ON 42
uuK_13 6.4622e-08 1 1  ON 43
uuK_14 -4.1519e-09 1 1  ON 44
uuK_15 -2.7873e-11 1 1  ON 45
uuK_16 7.7552e-07 1 1  ON 46
uuK_17 -1.0415e-07 1 1  ON 47
uuK_18 4.1429e-08 1 1  ON 48
uuK_19 -5.7364e-09 1 1  ON 49
uuK_20 -7.2556e-08 1 1  ON 50
uuK_21 1.5378e-09 1 1  ON 51
uuK_22 2.0020e-10 1 1  ON 52
uuK_23 5.9549e-09 1 1  ON 53
uuK_24 -5.9544e-10 1 1  ON 54
uuK_25 2.1817e-11 1 1  ON 55
udK_0 2.8916e-07 1 1  ON 56
udK_1 1.6700e-06 1 1  ON 57
udK_2 3.5759e-07 1 1  ON 58
udK_3 -2.9424e-07 1 1  ON 59
udK_4 -4.3080e-08 1 1  ON 60
udK_5 2.2684e-10 1 1  ON 61
udK_6 1.7987e-06 1 1  ON 62
udK_7 5.4831e-08 1 1  ON 63
udK_8 1.8311e-07 1 1  ON 64
udK_9 -1.8445e-06 1 1  ON 65
udK_10 -9.1361e-08 1 1  ON 66
udK_11 -2.6527e-07 1 1  ON 67
udK_12 7.2050e-10 1 1  ON 68
udK_13 2.1705e-07 1 1  ON 69
udK_14 -5.2056e-09 1 1  ON 70
udK_15 1.4646e-10 1 1  ON 71
udK_16 1.7709e-06 1 1  ON 72
udK_17 -2.4242e-07 1 1  ON 73
udK_18 1.2875e-07 1 1  ON 74
udK_19 -1.2389e-08 1 1  ON 75
udK_20 -2.3923e-07 1 1  ON 76
udK_21 6.7472e-10 1 1  ON 77
udK_22 4.4554e-10 1 1  ON 78
udK_23 3.7752e-08 1 1  ON 79
udK_24 -1.5175e-09 1 1  ON 80
udK_25 8.8534e-11 1 1  ON 81
  </optVariables>
   Restore the number of walkers to 1, removing 0 walkers.
</opt>
</optimization-report>
  QMC Execution time = 4.2209e+00 secs

=========================================================
  Start VMC
  File Root K.log.s021 append = no 
=========================================================
  Using the current 1 walkers.
  Total number of walkers: 1.0240e+03
  Total weight: 1.0240e+03
  Resetting Properties of the walkers 1 x 13

<vmc function="put">
  qmc_counter=0  my_counter=0
  time step      = 1.5000e-01
  blocks         = 200
  steps          = 1
  substeps       = 30
  current        = 0
  target samples = 4.0960e+03
  walkers/mpi    = 1

  stepsbetweensamples = 50
<parameter name="blocks" condition="int">200</parameter>
<parameter name="blocks_between_recompute" condition="int">0</parameter>
<parameter name="check_properties" condition="int">100</parameter>
<parameter name="checkproperties" condition="int">100</parameter>
<parameter name="current" condition="int">0</parameter>
<parameter name="dmcwalkersperthread" condition="real">4.0000e+00</parameter>
<parameter name="maxcpusecs" condition="real">3.6000e+05</parameter>
<parameter name="record_configs" condition="int">0</parameter>
<parameter name="record_walkers" condition="int">50</parameter>
<parameter name="recordconfigs" condition="int">0</parameter>
<parameter name="recordwalkers" condition="int">50</parameter>
<parameter name="rewind" condition="int">0</parameter>
<parameter name="samples" condition="real">4.0960e+03</parameter>
<parameter name="samplesperthread" condition="real">4.0000e+00</parameter>
<parameter name="steps" condition="int">1</parameter>
<parameter name="stepsbetweensamples" condition="int">50</parameter>
<parameter name="store_configs" condition="int">0</parameter>
<parameter name="storeconfigs" condition="int">0</parameter>
<parameter name="sub_steps" condition="int">30</parameter>
<parameter name="substeps" condition="int">30</parameter>
<parameter name="tau" condition="au">1.5000e-01</parameter>
<parameter name="time_step" condition="au">1.5000e-01</parameter>
<parameter name="timestep" condition="au">1.5000e-01</parameter>
<parameter name="use_drift" condition="string">no</parameter>
<parameter name="usedrift" condition="string">no</parameter>
<parameter name="walkers" condition="int">1</parameter>
<parameter name="warmup_steps" condition="int">100</parameter>
<parameter name="warmupsteps" condition="int">100</parameter>
  DumpConfig==false Nothing (configurations, state) will be saved.
  Walker Samples are dumped every 50 steps.
</vmc>
  EstimatorManagerBase::add replace LocalEnergy estimator.
  Cannot make clones again. Use existing 1 clones
  Initial partition of walkers 0 1 

  Using Particle by Particle moves
  Walker moves without drift
  Total Sample Size   =4096
  Walker distribution on root = 0 1 
  Using Locality Approximation
===== Memory Usage after the buffer registration =====
Available memory on node 0, free + buffers : 83590 MB
Memory footprint by rank 0 on node 0       : 137 MB
==================================================
  Anonymous Buffer size per walker : 3840 Bytes.
MEMORY increase 0 MB VMC::resetRun
====================================================
  SimpleFixedNodeBranch::finalize after a VMC block
    QMC counter        = 21
    time step          = 0.15
    reference energy   = -28.2434
    reference variance = 0.273504
====================================================
  QMC Execution time = 3.5587e+00 secs

=========================================================
  Start DMC
  File Root K.log.s022 append = no 
=========================================================
Using existing walkers 
  Resetting Properties of the walkers 1 x 13
  EstimatorManagerBase::add replace LocalEnergy estimator.
  Cannot make clones again. Use existing 1 clones
  Total number of walkers: 4.0960e+03
  Total weight: 4.0960e+03
  Creating WalkerController: target  number of walkers = 4096
  Using WalkerControlMPI for dynamic population control.
  START ALL OVER 
  WalkerControlBase parameters 
    maxCopy = 2
    Max Walkers per MPI rank 9
    Min Walkers per MPI rank 1
    Using non-blocking send/recv
  QMC counter      = 22
  time step        = 2.0000e-02
  effective time step = 2.0000e-02
  trial energy     = -2.8243e+01
  reference energy = -2.8243e+01
  Feedback = 1.0000e+00
  reference variance = 2.7350e-01
  target walkers = 4096
  branching cutoff scheme classic
  branch cutoff = 5.0000e+01 7.5000e+01
  Max and minimum walkers per node= 9 1
  QMC Status (BranchMode) = 0000001101
  Initial partition of walkers on a node: 0 4 
  Updates by particle-by-particle moves
  DMC moves are rejected when a node crossing is detected
  Using Non-local T-moves v0, M. Casula, PRB 74, 161102(R) (2006)
===== Memory Usage after the buffer registration =====
Available memory on node 0, free + buffers : 83590 MB
Memory footprint by rank 0 on node 0       : 137 MB
==================================================
SimpleFixedNodeBranch::checkParameters 
  Average Energy of a population  = -28.2373
  Energy Variance = 0.39696

  Fluctuating population
  Persistent walkers are killed after 1 MC sweeps
  BranchInterval = 1
  Steps per block = 50
  Number of blocks = 70

  DMC Engine Initialization = 2.3458e-02 secs

 Warmup is completed after 100

  TauEff     = 1.9660e-02
 TauEff/Tau = 9.8302e-01
  Etrial     = -2.8135e+01
 Running average of energy = -2.8237e+01
                  Variance = 3.1639e-01
branch cutoff = 1.0000e+01 1.5000e+01
====================================================
  SimpleFixedNodeBranch::finalize after a DMC block
    QMC counter                   = 22
    time step                     = 0.02
    effective time step           = 0.0196622
    trial energy                  = -28.2366
    reference energy              = -28.24
    reference variance            = 0.316387
    target walkers                = 4096
    branch cutoff                 = 10 15
    Max and minimum walkers per node= 9 1
    Feedback                      = 1
    QMC Status (BranchMode)       = 0000001111
====================================================
  QMC Execution time = 2.0443e+01 secs
  Reusing DMC
BRANCH resetRun
 SimpleFixedNodeBranch::resetRun detected changes in <parameter>'s 
 BranchMode : 0000001111 0000001111
  WalkerControlBase parameters 
    maxCopy = 2
    Max Walkers per MPI rank 9
    Min Walkers per MPI rank 1
    Using non-blocking send/recv
 iParam (old):                  0                 1                22              4096                 9                 1                 1                 0
 iParam (new):                100                 1                22              4096                 9                 1                 1                 0
 vParam (old):   2.0000000000e-02  1.9662182578e-02 -2.8236580881e+01 -2.8240004704e+01 -2.8226158048e+01  1.5000000000e+01  1.0000000000e+01  2.0000000000e-01  3.1638667637e-01 -9.6044242152e+04  3.4010000000e+03  1.0000000000e+00  1.0000000000e+01  1.0000000000e+00  1.0000000000e+00  1.0000000000e+00  1.0000000000e+00
 vParam (new):   1.0000000000e-02  1.9662182578e-02 -2.8236580881e+01 -2.8240004704e+01 -2.8226158048e+01  1.5000000000e+01  1.0000000000e+01  2.0000000000e-01  3.1638667637e-01 -9.6044242152e+04  3.4010000000e+03  1.0000000000e+00  1.0000000000e+01  1.0000000000e+00  1.0000000000e+00  1.0000000000e+00  1.0000000000e+00

 Using branching cutoff scheme classic
SimpleFixedNodeBranch::checkParameters 
  Average Energy of a population  = -28.2271
  Energy Variance = 0.241618

  Using Non-local T-moves v0, M. Casula, PRB 74, 161102(R) (2006)
===== Memory Usage after the buffer registration =====
Available memory on node 0, free + buffers : 83579 MB
Memory footprint by rank 0 on node 0       : 139 MB
==================================================

=========================================================
  Start DMC
  File Root K.log.s023 append = no 
=========================================================
Using existing walkers 
  Resetting Properties of the walkers 1 x 13
  EstimatorManagerBase::add replace LocalEnergy estimator.
  Cannot make clones again. Use existing 1 clones
SimpleFixedNodeBranch::checkParameters 
  Average Energy of a population  = -28.2474
  Energy Variance = 0.84715

  Fluctuating population
  Persistent walkers are killed after 1 MC sweeps
  BranchInterval = 1
  Steps per block = 100
  Number of blocks = 90

  DMC Engine Initialization = 3.3497810364e-04 secs

 Warmup is completed after 100

  TauEff     = 9.9338422823e-03
 TauEff/Tau = 9.9338422823e-01
  Etrial     = -2.8226377537e+01
 Running average of energy = -2.8236504040e+01
                  Variance = 3.1909813704e-01
branch cutoff = 1.0000000000e+01 1.5000000000e+01
====================================================
  SimpleFixedNodeBranch::finalize after a DMC block
    QMC counter                   = 23
    time step                     = 0.01
    effective time step           = 0.0099353
    trial energy                  = -28.2304
    reference energy              = -28.2394
    reference variance            = 0.319098
    target walkers                = 4096
    branch cutoff                 = 10 15
    Max and minimum walkers per node= 9 1
    Feedback                      = 1
    QMC Status (BranchMode)       = 0000001111
====================================================
  QMC Execution time = 5.2000e+01 secs
  Reusing DMC
BRANCH resetRun
 SimpleFixedNodeBranch::resetRun detected changes in <parameter>'s 
 BranchMode : 0000001111 0000001111
  WalkerControlBase parameters 
    maxCopy = 2
    Max Walkers per MPI rank 9
    Min Walkers per MPI rank 1
    Using non-blocking send/recv
 iParam (old):                  0                 1                23              4096                 9                 1                 1                 0
 iParam (new):                200                 1                23              4096                 9                 1                 1                 0
 vParam (old):   1.0000000000e-02  9.9352976362e-03 -2.8230370452e+01 -2.8239444702e+01 -2.8256386398e+01  1.5000000000e+01  1.0000000000e+01  2.0000000000e-01  3.1909813704e-01 -2.5135931423e+05  8.9010000000e+03  1.0000000000e+00  1.0000000000e+01  1.0000000000e+00  1.0000000000e+00  1.0000000000e+00  1.0000000000e+00
 vParam (new):   5.0000000000e-03  9.9352976362e-03 -2.8230370452e+01 -2.8239444702e+01 -2.8256386398e+01  1.5000000000e+01  1.0000000000e+01  2.0000000000e-01  3.1909813704e-01 -2.5135931423e+05  8.9010000000e+03  1.0000000000e+00  1.0000000000e+01  1.0000000000e+00  1.0000000000e+00  1.0000000000e+00  1.0000000000e+00

 Using branching cutoff scheme classic
SimpleFixedNodeBranch::checkParameters 
  Average Energy of a population  = -28.2565
  Energy Variance = 0.251464

  Using Non-local T-moves v0, M. Casula, PRB 74, 161102(R) (2006)
===== Memory Usage after the buffer registration =====
Available memory on node 0, free + buffers : 83571 MB
Memory footprint by rank 0 on node 0       : 141 MB
==================================================

=========================================================
  Start DMC
  File Root K.log.s024 append = no 
=========================================================
Using existing walkers 
  Resetting Properties of the walkers 1 x 13
  EstimatorManagerBase::add replace LocalEnergy estimator.
  Cannot make clones again. Use existing 1 clones
SimpleFixedNodeBranch::checkParameters 
  Average Energy of a population  = -28.2715
  Energy Variance = 0.383884

  Fluctuating population
  Persistent walkers are killed after 1 MC sweeps
  BranchInterval = 1
  Steps per block = 200
  Number of blocks = 110

  DMC Engine Initialization = 2.8204917908e-04 secs

 Warmup is completed after 200

  TauEff     = 4.9879435892e-03
 TauEff/Tau = 9.9758871785e-01
  Etrial     = -2.8208081678e+01
 Running average of energy = -2.8241823190e+01
                  Variance = 3.1369079237e-01
branch cutoff = 1.0000000000e+01 1.5000000000e+01
====================================================
  SimpleFixedNodeBranch::finalize after a DMC block
    QMC counter                   = 24
    time step                     = 0.005
    effective time step           = 0.00498792
    trial energy                  = -28.2423
    reference energy              = -28.2394
    reference variance            = 0.313691
    target walkers                = 4096
    branch cutoff                 = 10 15
    Max and minimum walkers per node= 9 1
    Feedback                      = 1
    QMC Status (BranchMode)       = 0000001111
====================================================
  QMC Execution time = 1.1865e+02 secs
  Reusing DMC
BRANCH resetRun
 SimpleFixedNodeBranch::resetRun detected changes in <parameter>'s 
 BranchMode : 0000001111 0000001111
  WalkerControlBase parameters 
    maxCopy = 2
    Max Walkers per MPI rank 9
    Min Walkers per MPI rank 1
    Using non-blocking send/recv
 iParam (old):                  0                 1                24              4096                 9                 1                 1                 0
 iParam (new):                400                 1                24              4096                 9                 1                 1                 0
 vParam (old):   5.0000000000e-03  4.9879229161e-03 -2.8242300117e+01 -2.8239374713e+01 -2.8235294728e+01  1.5000000000e+01  1.0000000000e+01  2.0000000000e-01  3.1369079237e-01 -6.1564660404e+05  2.1801000000e+04  1.0000000000e+00  1.0000000000e+01  1.0000000000e+00  1.0000000000e+00  1.0000000000e+00  1.0000000000e+00
 vParam (new):   2.5000000000e-03  4.9879229161e-03 -2.8242300117e+01 -2.8239374713e+01 -2.8235294728e+01  1.5000000000e+01  1.0000000000e+01  2.0000000000e-01  3.1369079237e-01 -6.1564660404e+05  2.1801000000e+04  1.0000000000e+00  1.0000000000e+01  1.0000000000e+00  1.0000000000e+00  1.0000000000e+00  1.0000000000e+00

 Using branching cutoff scheme classic
SimpleFixedNodeBranch::checkParameters 
  Average Energy of a population  = -28.237
  Energy Variance = 0.254559

  Using Non-local T-moves v0, M. Casula, PRB 74, 161102(R) (2006)
===== Memory Usage after the buffer registration =====
Available memory on node 0, free + buffers : 83559 MB
Memory footprint by rank 0 on node 0       : 143 MB
==================================================

=========================================================
  Start DMC
  File Root K.log.s025 append = no 
=========================================================
Using existing walkers 
  Resetting Properties of the walkers 1 x 13
  EstimatorManagerBase::add replace LocalEnergy estimator.
  Cannot make clones again. Use existing 1 clones
SimpleFixedNodeBranch::checkParameters 
  Average Energy of a population  = -28.2547
  Energy Variance = 0.57194

  Fluctuating population
  Persistent walkers are killed after 1 MC sweeps
  BranchInterval = 1
  Steps per block = 400
  Number of blocks = 130

  DMC Engine Initialization = 3.0517578125e-04 secs

 Warmup is completed after 400

  TauEff     = 2.4977472113e-03
 TauEff/Tau = 9.9909888454e-01
  Etrial     = -2.8536685428e+01
 Running average of energy = -2.8242209256e+01
                  Variance = 3.3111738874e-01
branch cutoff = 1.0000000000e+01 1.5000000000e+01
====================================================
  SimpleFixedNodeBranch::finalize after a DMC block
    QMC counter                   = 25
    time step                     = 0.0025
    effective time step           = 0.00249776
    trial energy                  = -28.2377
    reference energy              = -28.2394
    reference variance            = 0.331117
    target walkers                = 4096
    branch cutoff                 = 10 15
    Max and minimum walkers per node= 9 1
    Feedback                      = 1
    QMC Status (BranchMode)       = 0000001111
====================================================
  QMC Execution time = 2.3809e+02 secs
  Total Execution time = 5.1027e+02 secs

=========================================================
  A new xml input file : K.log.s025.cont.xml
TACC:  Shutdown complete. Exiting. 
