
 Primary working directories    : /global/cscratch1/sd/aannabe
 Secondary working directories  : /global/cscratch1/sd/aannabe
 Wavefunction directory         : /global/homes/a/aannabe/wfu/
 Main file repository           : /global/cscratch1/sd/aannabe/

 SHA1      : 2873118e99aab1bc19f5b6fc1784693c06d15c95
 NAME      : 2015.1.8
 ARCHNAME  : linux/x86_64
 FC        : /opt/cray/pe/craype/2.5.5/bin/ftn
 BLASLIB   : -Wl,-_start-group /opt/intel/compilers_and_libraries_2016.3.210/linux/mkl/lib/intel64/libmkl_intel_ilp64.a /opt/intel/compilers_and_libraries_2016.3.210/linux/mkl/lib/intel64/libmkl_intel_thread.a /opt/intel/compilers_and_libraries_2016.3.210/linux/mkl/lib/intel64/libmkl_core.a -Wl,-_end-group
 id        : lbl

 Nodes     nprocs
 nid00478     1

 Using customized tuning parameters: mindgm=8; mindgv=16; mindgc=4; mindgr=1; noblas=0; minvec=7
 default implementation of scratch files=df  

 ***,Al
 memory,512,m
 gthresh,twoint=1.e-12
 
 gprint,basis,orbitals
 gexpec,ekin,pot
 
 angstrom
 geometry={
 1                                                                               ! Number of atoms
 Al 0.0 0.0 0.0
 }
 
 basis={
 Including file /global/homes/a/aannabe/docs/accurate/ccECP_Kh/pps/Al.pp
 Including file /global/homes/a/aannabe/docs/accurate/ccECP_Kh/basis/aug-cc-pVnZ/Al_5z.basis
 }
 
 {rhf
  start,atden
  wf,3,2,1
  occ,1,1,0,0,0,0,0,0
  open,1.2
  save,4202.2
 }
 {multi
  start,4202.2
  occ,1,1,1,0,1,0,0
  closed,1,0,0,0,0,0,0,0
  wf,3,2,1;state,1
  wf,3,3,1;state,1
  wf,3,5,1;state,1
  natorb,ci,print
  orbital,5202.2
 }
 {rhf,nitord=1,maxit=0
  start,5202.2
  wf,3,2,1
  occ,1,1,0,0,0,0,0,0
  open,1.2
 }
 
 scf(i)=energy
 
 _CC_NORM_MAX=2.0
 {uccsd(t)
 maxit,100
 core
 }
 posthf(i)=energy
 
 table,scf,posthf,ekin,pot
 save,5.csv,new
 
 

 Variables initialized (889), CPU time= 0.01 sec
 Commands  initialized (702), CPU time= 0.01 sec, 572 directives.
 Default parameters read. Elapsed time= 0.21 sec

 Checking input...
 Passed
1


                                         ***  PROGRAM SYSTEM MOLPRO  ***
                                       Copyright, TTI GmbH Stuttgart, 2015
                                    Version 2015.1 linked Sep  7 2016 23:09:38


 **********************************************************************************************************************************
 LABEL *   Al                                                                            
  64 bit serial version                                                                  DATE: 30-Oct-18          TIME: 19:04:06  
 **********************************************************************************************************************************

 SHA1:             2873118e99aab1bc19f5b6fc1784693c06d15c95
 **********************************************************************************************************************************

 THRESHOLDS:

 ZERO    =  1.00D-12  ONEINT  =  1.00D-12  TWOINT  =  1.00D-12  PREFAC  =  1.00D-14  LOCALI  =  1.00D-09  EORDER  =  1.00D-04
 ENERGY  =  0.00D+00  ETEST   =  0.00D+00  EDENS   =  0.00D+00  THRDEDEF=  1.00D-06  GRADIENT=  1.00D-02  STEP    =  1.00D-03
 ORBITAL =  1.00D-05  CIVEC   =  1.00D-05  COEFF   =  1.00D-04  PRINTCI =  5.00D-02  PUNCHCI =  9.90D+01  OPTGRAD =  3.00D-04
 OPTENERG=  1.00D-06  OPTSTEP =  3.00D-04  THRGRAD =  1.00D-10  COMPRESS=  1.00D-11  VARMIN  =  1.00D-07  VARMAX  =  1.00D-03
 THRDOUB =  0.00D+00  THRDIV  =  1.00D-05  THRRED  =  1.00D-07  THRPSP  =  1.00D+00  THRDC   =  1.00D-10  THRCS   =  1.00D-10
 THRNRM  =  1.00D-08  THREQ   =  0.00D+00  THRDE   =  1.00D+00  THRREF  =  1.00D-05  SPARFAC =  1.00D+00  THRDLP  =  1.00D-07
 THRDIA  =  1.00D-10  THRDLS  =  1.00D-07  THRGPS  =  0.00D+00  THRKEX  =  0.00D+00  THRDIS  =  2.00D-01  THRVAR  =  1.00D-10
 THRLOC  =  1.00D-06  THRGAP  =  1.00D-06  THRLOCT = -1.00D+00  THRGAPT = -1.00D+00  THRORB  =  1.00D-06  THRMLTP =  0.00D+00
 THRCPQCI=  1.00D-10  KEXTA   =  0.00D+00  THRCOARS=  0.00D+00  SYMTOL  =  1.00D-06  GRADTOL =  1.00D-06  THROVL  =  1.00D-08
 THRORTH =  1.00D-08  GRID    =  1.00D-06  GRIDMAX =  1.00D-03  DTMAX   =  0.00D+00  THROCCDE=  1.00D-01  THROCCDE=  1.00D-01



 ZUNIT=ANG
 

Geometry recognized as XYZ


 Variable memory set to  512000000 words,  buffer space   230000 words

 SETTING BASIS          =    USERDEF


 Recomputing integrals since basis changed


 Using spherical harmonics



 PROGRAM * SEWARD (Integral evaluation for generally contracted gaussian basis sets)     Author: Roland Lindh, 1990

 Geometry written to block  1 of record 700

 Orientation using atomic masses  
 Molecule type: Atom
 Symmetry elements: X,Y,Z
 Rotational constants:       0.0000000      0.0000000      0.0000000 GHz  (calculated with average atomic masses)

 Point group  D2h 



 ATOMIC COORDINATES

 NR  ATOM    CHARGE       X              Y              Z

   1  AL      3.00    0.000000000    0.000000000    0.000000000


          AL  CORE POTENTIAL

          d POTENTIAL

 POWERS             1              3              2
 EXPONENTIALS   5.073893       8.607001       3.027490    
 COEFFICIENTS   3.000000       15.22168      -11.16568    

          s - d POTENTIAL

 POWERS             2              2
 EXPONENTIALS   7.863954       2.061358    
 COEFFICIENTS   14.87951       20.74686    

          p - d POTENTIAL

 POWERS             2              2
 EXPONENTIALS   3.125175       1.414930    
 COEFFICIENTS   7.786227       7.109015    


 BASIS DATA

   Nr Sym  Nuc  Type         Exponents   Contraction coefficients

    1.1 Ag    1  1s           8.257944     0.003287
                              4.514245    -0.017168
                              2.467734     0.069766
                              1.348998    -0.183475
                              0.737436    -0.147133
                              0.403123     0.046882
                              0.220369     0.308423
                              0.120466     0.451564
                              0.065853     0.302904
                              0.035999     0.079545
    2.1 Ag    1  1s           0.967736     1.000000
    3.1 Ag    1  1s           0.379373     1.000000
    4.1 Ag    1  1s           0.148722     1.000000
    5.1 Ag    1  1s           0.058302     1.000000
    6.1 Ag    1  1s           0.024250     1.000000
    7.1 Ag    1  3d0          1.586180     1.000000
    8.1 Ag    1  3d2+         1.586180     1.000000
    9.1 Ag    1  3d0          0.603516     1.000000
   10.1 Ag    1  3d2+         0.603516     1.000000
   11.1 Ag    1  3d0          0.229628     1.000000
   12.1 Ag    1  3d2+         0.229628     1.000000
   13.1 Ag    1  3d0          0.087370     1.000000
   14.1 Ag    1  3d2+         0.087370     1.000000
   15.1 Ag    1  3d0          0.031509     1.000000
   16.1 Ag    1  3d2+         0.031509     1.000000
   17.1 Ag    1  5g0          0.535941     1.000000
   18.1 Ag    1  5g4+         0.535941     1.000000
   19.1 Ag    1  5g2+         0.535941     1.000000
   20.1 Ag    1  5g0          0.243699     1.000000
   21.1 Ag    1  5g4+         0.243699     1.000000
   22.1 Ag    1  5g2+         0.243699     1.000000
   23.1 Ag    1  5g0          0.104421     1.000000
   24.1 Ag    1  5g4+         0.104421     1.000000
   25.1 Ag    1  5g2+         0.104421     1.000000
    1.2 B3u   1  2px          1.570603    -0.002645
                              0.977752    -0.037850
                              0.608683     0.006636
                              0.378925     0.089291
                              0.235893     0.134421
                              0.146851     0.256105
                              0.091420     0.238970
                              0.056912     0.260677
                              0.035429     0.112350
                              0.022056     0.052665
    2.2 B3u   1  2px          0.951381     1.000000
    3.2 B3u   1  2px          0.456240     1.000000
    4.2 B3u   1  2px          0.218792     1.000000
    5.2 B3u   1  2px          0.104923     1.000000
    6.2 B3u   1  2px          0.046262     1.000000
    7.2 B3u   1  4f1+         0.546132     1.000000
    8.2 B3u   1  4f3+         0.546132     1.000000
    9.2 B3u   1  4f1+         0.262335     1.000000
   10.2 B3u   1  4f3+         0.262335     1.000000
   11.2 B3u   1  4f1+         0.126013     1.000000
   12.2 B3u   1  4f3+         0.126013     1.000000
   13.2 B3u   1  4f1+         0.050636     1.000000
   14.2 B3u   1  4f3+         0.050636     1.000000
   15.2 B3u   1  6h1+         0.443982     1.000000
   16.2 B3u   1  6h3+         0.443982     1.000000
   17.2 B3u   1  6h5+         0.443982     1.000000
   18.2 B3u   1  6h1+         0.216180     1.000000
   19.2 B3u   1  6h3+         0.216180     1.000000
   20.2 B3u   1  6h5+         0.216180     1.000000
    1.3 B2u   1  2py          1.570603    -0.002645
                              0.977752    -0.037850
                              0.608683     0.006636
                              0.378925     0.089291
                              0.235893     0.134421
                              0.146851     0.256105
                              0.091420     0.238970
                              0.056912     0.260677
                              0.035429     0.112350
                              0.022056     0.052665
    2.3 B2u   1  2py          0.951381     1.000000
    3.3 B2u   1  2py          0.456240     1.000000
    4.3 B2u   1  2py          0.218792     1.000000
    5.3 B2u   1  2py          0.104923     1.000000
    6.3 B2u   1  2py          0.046262     1.000000
    7.3 B2u   1  4f1-         0.546132     1.000000
    8.3 B2u   1  4f3-         0.546132     1.000000
    9.3 B2u   1  4f1-         0.262335     1.000000
   10.3 B2u   1  4f3-         0.262335     1.000000
   11.3 B2u   1  4f1-         0.126013     1.000000
   12.3 B2u   1  4f3-         0.126013     1.000000
   13.3 B2u   1  4f1-         0.050636     1.000000
   14.3 B2u   1  4f3-         0.050636     1.000000
   15.3 B2u   1  6h1-         0.443982     1.000000
   16.3 B2u   1  6h3-         0.443982     1.000000
   17.3 B2u   1  6h5-         0.443982     1.000000
   18.3 B2u   1  6h1-         0.216180     1.000000
   19.3 B2u   1  6h3-         0.216180     1.000000
   20.3 B2u   1  6h5-         0.216180     1.000000
    1.4 B1g   1  3d2-         1.586180     1.000000
    2.4 B1g   1  3d2-         0.603516     1.000000
    3.4 B1g   1  3d2-         0.229628     1.000000
    4.4 B1g   1  3d2-         0.087370     1.000000
    5.4 B1g   1  3d2-         0.031509     1.000000
    6.4 B1g   1  5g2-         0.535941     1.000000
    7.4 B1g   1  5g4-         0.535941     1.000000
    8.4 B1g   1  5g2-         0.243699     1.000000
    9.4 B1g   1  5g4-         0.243699     1.000000
   10.4 B1g   1  5g2-         0.104421     1.000000
   11.4 B1g   1  5g4-         0.104421     1.000000
    1.5 B1u   1  2pz          1.570603    -0.002645
                              0.977752    -0.037850
                              0.608683     0.006636
                              0.378925     0.089291
                              0.235893     0.134421
                              0.146851     0.256105
                              0.091420     0.238970
                              0.056912     0.260677
                              0.035429     0.112350
                              0.022056     0.052665
    2.5 B1u   1  2pz          0.951381     1.000000
    3.5 B1u   1  2pz          0.456240     1.000000
    4.5 B1u   1  2pz          0.218792     1.000000
    5.5 B1u   1  2pz          0.104923     1.000000
    6.5 B1u   1  2pz          0.046262     1.000000
    7.5 B1u   1  4f0          0.546132     1.000000
    8.5 B1u   1  4f2+         0.546132     1.000000
    9.5 B1u   1  4f0          0.262335     1.000000
   10.5 B1u   1  4f2+         0.262335     1.000000
   11.5 B1u   1  4f0          0.126013     1.000000
   12.5 B1u   1  4f2+         0.126013     1.000000
   13.5 B1u   1  4f0          0.050636     1.000000
   14.5 B1u   1  4f2+         0.050636     1.000000
   15.5 B1u   1  6h2+         0.443982     1.000000
   16.5 B1u   1  6h4+         0.443982     1.000000
   17.5 B1u   1  6h0          0.443982     1.000000
   18.5 B1u   1  6h2+         0.216180     1.000000
   19.5 B1u   1  6h4+         0.216180     1.000000
   20.5 B1u   1  6h0          0.216180     1.000000
    1.6 B2g   1  3d1+         1.586180     1.000000
    2.6 B2g   1  3d1+         0.603516     1.000000
    3.6 B2g   1  3d1+         0.229628     1.000000
    4.6 B2g   1  3d1+         0.087370     1.000000
    5.6 B2g   1  3d1+         0.031509     1.000000
    6.6 B2g   1  5g1+         0.535941     1.000000
    7.6 B2g   1  5g3+         0.535941     1.000000
    8.6 B2g   1  5g1+         0.243699     1.000000
    9.6 B2g   1  5g3+         0.243699     1.000000
   10.6 B2g   1  5g1+         0.104421     1.000000
   11.6 B2g   1  5g3+         0.104421     1.000000
    1.7 B3g   1  3d1-         1.586180     1.000000
    2.7 B3g   1  3d1-         0.603516     1.000000
    3.7 B3g   1  3d1-         0.229628     1.000000
    4.7 B3g   1  3d1-         0.087370     1.000000
    5.7 B3g   1  3d1-         0.031509     1.000000
    6.7 B3g   1  5g1-         0.535941     1.000000
    7.7 B3g   1  5g3-         0.535941     1.000000
    8.7 B3g   1  5g1-         0.243699     1.000000
    9.7 B3g   1  5g3-         0.243699     1.000000
   10.7 B3g   1  5g1-         0.104421     1.000000
   11.7 B3g   1  5g3-         0.104421     1.000000
    1.8 Au    1  4f2-         0.546132     1.000000
    2.8 Au    1  4f2-         0.262335     1.000000
    3.8 Au    1  4f2-         0.126013     1.000000
    4.8 Au    1  4f2-         0.050636     1.000000
    5.8 Au    1  6h4-         0.443982     1.000000
    6.8 Au    1  6h2-         0.443982     1.000000
    7.8 Au    1  6h4-         0.216180     1.000000
    8.8 Au    1  6h2-         0.216180     1.000000

 NUCLEAR CHARGE:                    3
 NUMBER OF PRIMITIVE AOS:         217
 NUMBER OF SYMMETRY AOS:          162
 NUMBER OF CONTRACTIONS:          126   (  25Ag  +  20B3u +  20B2u +  11B1g +  20B1u +  11B2g +  11B3g +   8Au  )
 NUMBER OF CORE ORBITALS:           0   (   0Ag  +   0B3u +   0B2u +   0B1g +   0B1u +   0B2g +   0B3g +   0Au  )
 NUMBER OF VALENCE ORBITALS:        4   (   1Ag  +   1B3u +   1B2u +   0B1g +   1B1u +   0B2g +   0B3g +   0Au  )


 NUCLEAR REPULSION ENERGY    0.00000000

 EXTRA SYMMETRY OF AOS IN SYMMETRY 1:   1 1 1 1 1 1 2 3 2 3   2 3 2 3 2 3 4 5 6 4   5 6 4 5 6
 EXTRA SYMMETRY OF AOS IN SYMMETRY 2:   1 1 1 1 1 1 2 3 2 3   2 3 2 3 4 5 6 4 5 6
 EXTRA SYMMETRY OF AOS IN SYMMETRY 3:   1 1 1 1 1 1 2 3 2 3   2 3 2 3 4 5 6 4 5 6
 EXTRA SYMMETRY OF AOS IN SYMMETRY 4:   1 1 1 1 1 2 3 2 3 2   3
 EXTRA SYMMETRY OF AOS IN SYMMETRY 5:   1 1 1 1 1 1 2 3 2 3   2 3 2 3 4 5 6 4 5 6
 EXTRA SYMMETRY OF AOS IN SYMMETRY 6:   1 1 1 1 1 2 3 2 3 2   3
 EXTRA SYMMETRY OF AOS IN SYMMETRY 7:   1 1 1 1 1 2 3 2 3 2   3
 EXTRA SYMMETRY OF AOS IN SYMMETRY 8:   1 1 1 1 2 3 2 3

 Eigenvalues of metric

         1 0.201E-04 0.993E-02 0.602E-01 0.773E-01 0.773E-01 0.185E+00 0.185E+00 0.185E+00
         2 0.307E-03 0.894E-02 0.658E-01 0.658E-01 0.693E-01 0.338E+00 0.338E+00 0.338E+00
         3 0.307E-03 0.894E-02 0.658E-01 0.658E-01 0.693E-01 0.338E+00 0.338E+00 0.338E+00
         4 0.773E-01 0.185E+00 0.185E+00 0.260E+00 0.698E+00 0.811E+00 0.811E+00 0.149E+01
         5 0.307E-03 0.894E-02 0.658E-01 0.658E-01 0.693E-01 0.338E+00 0.338E+00 0.338E+00
         6 0.773E-01 0.185E+00 0.185E+00 0.260E+00 0.698E+00 0.811E+00 0.811E+00 0.149E+01
         7 0.773E-01 0.185E+00 0.185E+00 0.260E+00 0.698E+00 0.811E+00 0.811E+00 0.149E+01
         8 0.658E-01 0.338E+00 0.338E+00 0.373E+00 0.111E+01 0.166E+01 0.166E+01 0.245E+01


 Contracted 2-electron integrals neglected if value below      1.0D-12
 AO integral compression algorithm  1   Integral accuracy      1.0D-12

     28.574 MB (compressed) written to integral file ( 51.5%)


 NUMBER OF SORTED TWO-ELECTRON INTEGRALS:    4156552.     BUFFER LENGTH:  32768
 NUMBER OF SEGMENTS:   1  SEGMENT LENGTH:    4156552      RECORD LENGTH: 524288

 Memory used in sort:       4.71 MW

 SORT1 READ     6989366. AND WROTE     2907704. INTEGRALS IN      9 RECORDS. CPU TIME:     0.22 SEC, REAL TIME:     0.31 SEC
 SORT2 READ     2907704. AND WROTE     4156552. INTEGRALS IN    109 RECORDS. CPU TIME:     0.18 SEC, REAL TIME:     0.38 SEC

 FILE SIZES:   FILE 1:    48.0 MBYTE,  FILE 4:    37.8 MBYTE,   TOTAL:     85.8 MBYTE

 OPERATOR DM      FOR CENTER  0  COORDINATES:    0.000000    0.000000    0.000000
 OPERATOR EKIN    FOR CENTER  0  COORDINATES:    0.000000    0.000000    0.000000
 OPERATOR POT     FOR CENTER  0  COORDINATES:    0.000000    0.000000    0.000000


 **********************************************************************************************************************************
 DATASETS  * FILE   NREC   LENGTH (MB)   RECORD NAMES
              1      20       36.72       500      610      700      900      950      970     1000      129      960     1100   
                                          VAR    BASINP    GEOM    SYMINP    ZMAT    AOBASIS   BASIS     P2S    ABASIS      S 
                                         1400     1410     1420     1200     1210     1080     1600     1650     1300     1700   
                                         EKIN       V       ECP      H0       H01     AOSYM     SMH    MOLCAS    ERIS     OPER   

 PROGRAMS   *        TOTAL       INT
 CPU TIMES  *         2.02      1.88
 REAL TIME  *         8.90 SEC
 DISK USED  *        86.12 MB      
 **********************************************************************************************************************************


 PROGRAM * RHF-SCF (OPEN SHELL)       Authors: W. Meyer, H.-J. Werner


 NUMBER OF ELECTRONS:       2+    1-    SPACE SYMMETRY=2    SPIN SYMMETRY: Doublet 
 CONVERGENCE THRESHOLDS:    1.00E-05 (Density)    1.00E-07 (Energy)
 MAX. NUMBER OF ITERATIONS:       60
 INTERPOLATION TYPE:            DIIS
 INTERPOLATION STEPS:              2 (START)      1 (STEP)
 LEVEL SHIFTS:                 -0.60 (CLOSED) -0.30 (OPEN) 


 Singly occupied orbitals:      1.2

   Atom=AL basis=ECP10MWB_GUESS    lmin=0  lmax=1

 Orbital guess generated from atomic densities. Full valence occupancy:    1   1   1   0   1   0   0   0


 Molecular orbital dump at record        4202.2

 ITERATION    DDIFF          GRAD             ENERGY        2-EL.EN.            DIPOLE MOMENTS         DIIS   ORB.
    1      0.000D+00      0.000D+00        -1.86896465      1.646648    0.00000    0.00000    0.00000    0    start
    2      0.000D+00      0.348D-02        -1.87293490      1.686644    0.00000    0.00000    0.00000    1    diag,B
    3      0.379D+00      0.212D-02        -1.87604440      1.733083    0.00000    0.00000    0.00000    2    diag,B
    4      0.411D+00      0.104D-02        -1.87701694      1.755806    0.00000    0.00000    0.00000    3    diag,B
    5      0.207D+00      0.360D-03        -1.87708520      1.758157    0.00000    0.00000    0.00000    4    diag,B
    6      0.322D-01      0.106D-03        -1.87709004      1.759007    0.00000    0.00000    0.00000    5    diag,B
    7      0.705D-02      0.342D-04        -1.87709034      1.758891    0.00000    0.00000    0.00000    6    fixocc
    8      0.746D-04      0.135D-04        -1.87709039      1.758936    0.00000    0.00000    0.00000    7    diag,B
    9      0.899D-04      0.902D-06        -1.87709039      1.758929    0.00000    0.00000    0.00000    8    diag,B
   10      0.381D-04      0.297D-06        -1.87709039      1.758930    0.00000    0.00000    0.00000    9    orth
   11      0.798D-05      0.986D-07        -1.87709039      1.758930    0.00000    0.00000    0.00000    0    orth

 Final alpha occupancy:   1   1   0   0   0   0   0   0
 Final beta  occupancy:   1   0   0   0   0   0   0   0

 !RHF STATE 1.2 Energy                 -1.877090387957
 Nuclear energy                         0.00000000
 One-electron energy                   -2.75655523
 Two-electron energy                    0.87946484
 Virial quotient                       -2.92509612
 !RHF STATE 1.2 Dipole moment           0.00000000     0.00000000     0.00000000
 Dipole moment /Debye                   0.00000000     0.00000000     0.00000000
 

 !RHF expec          <1.2|EKIN|1.2>     0.641719215117
 
 !RHF expec           <1.2|POT|1.2>    -1.245924226546

 ELECTRON ORBITALS
 =================


   Orb  Occ    Energy  Couls-En    Coefficients

                                   1 1s      1 1s      1 1s      1 1s      1 1s      1 1s      1 3d0     1 3d2+    1 3d0     1 3d2+ 
                                   1 3d0     1 3d2+    1 3d0     1 3d2+    1 3d0     1 3d2+    1 5g0     1 5g4+    1 5g2+    1 5g0  
                                   1 5g4+    1 5g2+    1 5g0     1 5g4+    1 5g2+ 

   1.1   2    -0.3939   -1.4017  1.001347  0.000334 -0.000221 -0.000420 -0.001140  0.000166 -0.000147  0.000255 -0.000148  0.000256
                                 0.001002 -0.001735 -0.004316  0.007476 -0.001735  0.003005  0.000001  0.000002 -0.000001 -0.000008
                                -0.000017  0.000013 -0.000048 -0.000095  0.000072

                                   1 2px     1 2px     1 2px     1 2px     1 2px     1 2px     1 4f1+    1 4f3+    1 4f1+    1 4f3+ 
                                   1 4f1+    1 4f3+    1 4f1+    1 4f3+    1 6h1+    1 6h3+    1 6h5+    1 6h1+    1 6h3+    1 6h5+ 


   1.2   +    -0.2098   -0.9507  0.998958 -0.000056  0.000157  0.000060  0.000292  0.000720  0.000005 -0.000006  0.000098 -0.000127
                                 0.000016 -0.000021 -0.000118  0.000152  0.000000 -0.000000  0.000001 -0.000002  0.000002 -0.000002

 HOMO      1.2    -0.209802 =      -5.7090eV
 LUMO      1.3     0.009185 =       0.2499eV
 LUMO-HOMO         0.218986 =       5.9589eV


 **********************************************************************************************************************************
 DATASETS  * FILE   NREC   LENGTH (MB)   RECORD NAMES
              1      20       36.72       500      610      700      900      950      970     1000      129      960     1100   
                                          VAR    BASINP    GEOM    SYMINP    ZMAT    AOBASIS   BASIS     P2S    ABASIS      S 
                                         1400     1410     1420     1200     1210     1080     1600     1650     1300     1700   
                                         EKIN       V       ECP      H0       H01     AOSYM     SMH    MOLCAS    ERIS     OPER   

              2       4        2.83       700     1000      520     4202   
                                         GEOM     BASIS   MCVARS     RHF  

 PROGRAMS   *        TOTAL       RHF       INT
 CPU TIMES  *         2.26      0.23      1.88
 REAL TIME  *         9.37 SEC
 DISK USED  *        86.12 MB      
 **********************************************************************************************************************************


 PROGRAM * MULTI (Direct Multiconfiguration SCF)       Authors: P.J. Knowles, H.-J. Werner (1984)     S.T. Elbert (1988)


 Number of closed-shell orbitals:   1 (   1   0   0   0   0   0   0   0 )
 Number of active  orbitals:        3 (   0   1   1   0   1   0   0   0 )
 Number of external orbitals:     122 (  24  19  19  11  19  11  11   8 )

 State symmetry 1

 Number of electrons:     1    Spin symmetry=Doublet   Space symmetry=2
 Number of states:        1
 Number of CSFs:          1   (1 determinants, 3 intermediate states)

 State symmetry 2

 Number of electrons:     1    Spin symmetry=Doublet   Space symmetry=3
 Number of states:        1
 Number of CSFs:          1   (1 determinants, 3 intermediate states)

 State symmetry 3

 Number of electrons:     1    Spin symmetry=Doublet   Space symmetry=5
 Number of states:        1
 Number of CSFs:          1   (1 determinants, 3 intermediate states)

 Molecular orbitals read from record     4202.2  Type=RHF/CANONICAL (state 1.2)
 *** IN SYMMETRY 1 ORBITAL  1 SYMMETRY CONTAMINATION OF 0.199D-01 HAS BEEN REMOVED

 EXTRA SYMMETRY OF MOS IN SYMMETRY 1:   1 1 2 3 3 2 1 4 5 6   2 3 1 4 5 6 2 3 4 5   6 2 1 1 3
 *** IN SYMMETRY 2 ORBITAL  1 SYMMETRY CONTAMINATION OF 0.548D-03 HAS BEEN REMOVED
 EXTRA SYMMETRY OF MOS IN SYMMETRY 2:   1 1 2 1 1 2 3 1 5 6   4 2 3 1 2 3 5 6 4 3
 *** IN SYMMETRY 3 ORBITAL  1 SYMMETRY CONTAMINATION OF 0.498D-03 HAS BEEN REMOVED
 EXTRA SYMMETRY OF MOS IN SYMMETRY 3:   1 1 2 1 1 2 3 1 4 5   6 2 3 1 2 3 4 5 6 3
 EXTRA SYMMETRY OF MOS IN SYMMETRY 4:   1 1 2 3 1 2 3 1 2 3   1
 *** IN SYMMETRY 5 ORBITAL  1 SYMMETRY CONTAMINATION OF 0.574D-03 HAS BEEN REMOVED
 EXTRA SYMMETRY OF MOS IN SYMMETRY 5:   1 1 2 1 1 2 3 1 6 5   4 2 3 1 2 3 6 5 4 3
 EXTRA SYMMETRY OF MOS IN SYMMETRY 6:   1 1 3 2 1 3 2 1 3 2   1
 EXTRA SYMMETRY OF MOS IN SYMMETRY 7:   1 1 2 3 1 2 3 1 2 3   1
 EXTRA SYMMETRY OF MOS IN SYMMETRY 8:   1 1 3 2 1 1 3 2

 Wavefunction dump at record             5202.2

 Convergence thresholds  0.10E-01 (gradient)  0.10E-05 (energy)  0.10E-02 (step length)

 Weight factors for state symmetry  1:    0.33333
 Weight factors for state symmetry  2:    0.33333
 Weight factors for state symmetry  3:    0.33333

 Number of orbital rotations:       81   (     0 Core/Active     24 Core/Virtual   0 Active/Active     57 Active/Virtual)
 Total number of variables:         84


 ITER. MIC  NCI  NEG     ENERGY(VAR)     ENERGY(PROJ)   ENERGY CHANGE     GRAD(0)  GRAD(ORB)   GRAD(CI)     STEP       TIME

   1   27   12    0      -1.85564508      -1.87702855   -0.02138347    0.03998301 0.00000000 0.00000000  0.65D+00      0.05
   2   15   12    0      -1.87698523      -1.87700761   -0.00002239    0.00500255 0.00000000 0.00000000  0.55D-02      0.09
   3   15   12    0      -1.87700763      -1.87700763   -0.00000000    0.00000554 0.00000000 0.00000000  0.13D-04      0.15

 ** WVFN ****  CONVERGENCE REACHED, FINAL GRADIENT:  0.13D-10



 Results for state 1.2
 =====================

 !MCSCF STATE 1.2 Energy               -1.877007627290
 Nuclear energy                         0.00000000
 Kinetic energy                         0.64168910
 One electron energy                   -2.75666557
 Two electron energy                    0.87965794
 Virial ratio                           3.92510445

 !MCSCF STATE 1.2 Dipole moment         0.00000000     0.00000000     0.00000000
 Dipole moment /Debye                   0.00000000     0.00000000     0.00000000



 Results for state 1.3
 =====================

 !MCSCF STATE 1.3 Energy               -1.877007627290
 Nuclear energy                         0.00000000
 Kinetic energy                         0.64168910
 One electron energy                   -2.75666557
 Two electron energy                    0.87965794
 Virial ratio                           3.92510445

 !MCSCF STATE 1.3 Dipole moment         0.00000000     0.00000000     0.00000000
 Dipole moment /Debye                   0.00000000     0.00000000     0.00000000



 Results for state 1.5
 =====================

 !MCSCF STATE 1.5 Energy               -1.877007627290
 Nuclear energy                         0.00000000
 Kinetic energy                         0.64168910
 One electron energy                   -2.75666557
 Two electron energy                    0.87965794
 Virial ratio                           3.92510445

 !MCSCF STATE 1.5 Dipole moment         0.00000000     0.00000000     0.00000000
 Dipole moment /Debye                   0.00000000     0.00000000     0.00000000

 State-averaged charge density matrix saved on record  5202.2 (density set 1)

 !MCSCF expec        <1.2|EKIN|1.2>     0.641689095023
 !MCSCF expec        <1.3|EKIN|1.3>     0.641689095024
 !MCSCF expec        <1.5|EKIN|1.5>     0.641689095024

 !MCSCF expec         <1.2|POT|1.2>    -1.245946097318
 !MCSCF expec         <1.3|POT|1.3>    -1.245946097318
 !MCSCF expec         <1.5|POT|1.5>    -1.245946097318


 NATURAL ORBITALS (state averaged)
 =================================

   Orb     Occ        Energy       Coefficients

                                   1 1s      1 1s      1 1s      1 1s      1 1s      1 1s      1 3d0     1 3d2+    1 3d0     1 3d2+ 
                                   1 3d0     1 3d2+    1 3d0     1 3d2+    1 3d0     1 3d2+    1 5g0     1 5g4+    1 5g2+    1 5g0  
                                   1 5g4+    1 5g2+    1 5g0     1 5g4+    1 5g2+ 

   1.1  2.00000    -0.393851     1.001303  0.000333 -0.000150 -0.000736 -0.000799  0.000202  0.000000  0.000000  0.000000  0.000000
                                 0.000000  0.000000  0.000000  0.000000  0.000000  0.000000  0.000000  0.000000  0.000000  0.000000
                                 0.000000  0.000000  0.000000  0.000000  0.000000

                                   1 2px     1 2px     1 2px     1 2px     1 2px     1 2px     1 4f1+    1 4f3+    1 4f1+    1 4f3+ 
                                   1 4f1+    1 4f3+    1 4f1+    1 4f3+    1 6h1+    1 6h3+    1 6h5+    1 6h1+    1 6h3+    1 6h5+ 


   1.2  0.33333     0.001399     0.998666 -0.000066  0.000109  0.000353  0.000526  0.000543  0.000000  0.000000  0.000000  0.000000
                                 0.000000  0.000000  0.000000  0.000000  0.000000  0.000000  0.000000  0.000000  0.000000  0.000000

                                   1 2py     1 2py     1 2py     1 2py     1 2py     1 2py     1 4f1-    1 4f3-    1 4f1-    1 4f3- 
                                   1 4f1-    1 4f3-    1 4f1-    1 4f3-    1 6h1-    1 6h3-    1 6h5-    1 6h1-    1 6h3-    1 6h5- 


   1.3  0.33333     0.001399     0.998666 -0.000066  0.000109  0.000353  0.000526  0.000543  0.000000  0.000000  0.000000  0.000000
                                 0.000000  0.000000  0.000000  0.000000  0.000000  0.000000  0.000000  0.000000  0.000000  0.000000

                                   1 2pz     1 2pz     1 2pz     1 2pz     1 2pz     1 2pz     1 4f0     1 4f2+    1 4f0     1 4f2+ 
                                   1 4f0     1 4f2+    1 4f0     1 4f2+    1 6h2+    1 6h4+    1 6h0     1 6h2+    1 6h4+    1 6h0  


   1.5  0.33333     0.001399     0.998666 -0.000066  0.000109  0.000353  0.000526  0.000543  0.000000  0.000000  0.000000  0.000000
                                 0.000000  0.000000  0.000000  0.000000  0.000000  0.000000  0.000000  0.000000  0.000000  0.000000
 

 EXTRA SYMMETRY OF MOS IN SYMMETRY 1:   1 1 3 2 3 2 1 6 4 5   3 2 1 6 4 5 3 2 5 6   4 3 2 1 1
 EXTRA SYMMETRY OF MOS IN SYMMETRY 2:   1 1 3 2 1 3 2 1 5 6   4 2 3 1 2 3 6 5 4 1
 EXTRA SYMMETRY OF MOS IN SYMMETRY 3:   1 1 3 2 1 3 2 1 5 6   4 2 3 1 2 3 6 5 4 1
 EXTRA SYMMETRY OF MOS IN SYMMETRY 4:   1 1 2 3 1 2 3 1 3 2   1
 EXTRA SYMMETRY OF MOS IN SYMMETRY 5:   1 1 3 2 1 3 2 1 6 4   5 2 3 1 2 3 6 5 4 1
 EXTRA SYMMETRY OF MOS IN SYMMETRY 7:   1 1 3 2 1 3 2 1 3 2   1
 EXTRA SYMMETRY OF MOS IN SYMMETRY 8:   1 1 3 2 1 1 2 3

 Natural orbital dump (state averaged) at molpro section  5202.2    (Orbital set 2)


 CI vector for state symmetry 1
 ==============================

 a 0 0           1.0000000

 TOTAL ENERGIES                        -1.87700763

 CI vector for state symmetry 2
 ==============================

 0 a 0           1.0000000

 TOTAL ENERGIES                        -1.87700763

 CI vector for state symmetry 3
 ==============================

 0 0 a           1.0000000

 TOTAL ENERGIES                        -1.87700763



 **********************************************************************************************************************************
 DATASETS  * FILE   NREC   LENGTH (MB)   RECORD NAMES
              1      21       37.01       500      610      700      900      950      970     1000      129      960     1100   
                                          VAR    BASINP    GEOM    SYMINP    ZMAT    AOBASIS   BASIS     P2S    ABASIS      S 
                                         1400     1410     1420     1200     1210     1080     1600     1650     1300     1700   
                                         EKIN       V       ECP      H0       H01     AOSYM     SMH    MOLCAS    ERIS     OPER   
                                         1380   
                                         JKOP   

              2       5        5.40       700     1000      520     4202     5202   
                                         GEOM     BASIS   MCVARS     RHF     MCSCF   

 PROGRAMS   *        TOTAL     MULTI       RHF       INT
 CPU TIMES  *         2.45      0.20      0.23      1.88
 REAL TIME  *        10.56 SEC
 DISK USED  *        86.12 MB      
 **********************************************************************************************************************************


 PROGRAM * RHF-SCF (OPEN SHELL)       Authors: W. Meyer, H.-J. Werner


 NUMBER OF ELECTRONS:       2+    1-    SPACE SYMMETRY=2    SPIN SYMMETRY: Doublet 
 CONVERGENCE THRESHOLDS:    1.00E-05 (Density)    1.00E-07 (Energy)
 MAX. NUMBER OF ITERATIONS:        0
 INTERPOLATION TYPE:            DIIS
 INTERPOLATION STEPS:              2 (START)      1 (STEP)
 LEVEL SHIFTS:                 -0.60 (CLOSED) -0.30 (OPEN) 


 Singly occupied orbitals:      1.2
 Molecular orbitals read from record     5202.2  Type=MCSCF/NATURAL (state averaged)

 Molecular orbital dump at record        2101.2

 ITERATION    DDIFF          GRAD             ENERGY        2-EL.EN.            DIPOLE MOMENTS         DIIS   ORB.
    1      0.000D+00      0.000D+00        -1.87700763      1.759316    0.00000    0.00000    0.00000    0    start

 Final alpha occupancy:   1   1   0   0   0   0   0   0
 Final beta  occupancy:   1   0   0   0   0   0   0   0

 !RHF STATE 1.2 Energy                 -1.877007627290
 Nuclear energy                         0.00000000
 One-electron energy                   -2.75666557
 Two-electron energy                    0.87965794
 Virial quotient                       -2.92510445
 !RHF STATE 1.2 Dipole moment           0.00000000     0.00000000     0.00000000
 Dipole moment /Debye                   0.00000000     0.00000000     0.00000000
 

 !RHF expec          <1.2|EKIN|1.2>     0.641689095023
 
 !RHF expec           <1.2|POT|1.2>    -1.245946097318

 ELECTRON ORBITALS
 =================


   Orb  Occ    Energy  Couls-En    Coefficients

                                   1 1s      1 1s      1 1s      1 1s      1 1s      1 1s      1 3d0     1 3d2+    1 3d0     1 3d2+ 
                                   1 3d0     1 3d2+    1 3d0     1 3d2+    1 3d0     1 3d2+    1 5g0     1 5g4+    1 5g2+    1 5g0  
                                   1 5g4+    1 5g2+    1 5g0     1 5g4+    1 5g2+ 

   1.1   2    -0.3939   -1.4017  1.001303  0.000333 -0.000150 -0.000736 -0.000799  0.000202  0.000000  0.000000  0.000000  0.000000
                                 0.000000  0.000000  0.000000  0.000000  0.000000  0.000000  0.000000  0.000000  0.000000  0.000000
                                 0.000000  0.000000  0.000000  0.000000  0.000000

                                   1 2px     1 2px     1 2px     1 2px     1 2px     1 2px     1 4f1+    1 4f3+    1 4f1+    1 4f3+ 
                                   1 4f1+    1 4f3+    1 4f1+    1 4f3+    1 6h1+    1 6h3+    1 6h5+    1 6h1+    1 6h3+    1 6h5+ 


   1.2   +     0.0014   -0.7396  0.998666 -0.000066  0.000109  0.000353  0.000526  0.000543  0.000000  0.000000  0.000000  0.000000
                                 0.000000  0.000000  0.000000  0.000000  0.000000  0.000000  0.000000  0.000000  0.000000  0.000000

 HOMO      1.2     0.001399 =       0.0381eV
 LUMO      1.3     0.001399 =       0.0381eV
 LUMO-HOMO         0.000000 =       0.0000eV


 **********************************************************************************************************************************
 DATASETS  * FILE   NREC   LENGTH (MB)   RECORD NAMES
              1      21       37.01       500      610      700      900      950      970     1000      129      960     1100   
                                          VAR    BASINP    GEOM    SYMINP    ZMAT    AOBASIS   BASIS     P2S    ABASIS      S 
                                         1400     1410     1420     1200     1210     1080     1600     1650     1300     1700   
                                         EKIN       V       ECP      H0       H01     AOSYM     SMH    MOLCAS    ERIS     OPER   
                                         1380   
                                         JKOP   

              2       6        8.00       700     1000      520     4202     5202     2101   
                                         GEOM     BASIS   MCVARS     RHF     MCSCF     RHF  

 PROGRAMS   *        TOTAL       RHF     MULTI       RHF       INT
 CPU TIMES  *         2.49      0.03      0.20      0.23      1.88
 REAL TIME  *        10.78 SEC
 DISK USED  *        86.12 MB      
 **********************************************************************************************************************************
 SETTING SCF(I)         =        -1.87700763  AU                              
 SETTING _CC_NORM_MAX   =         2.00000000                                  


 PROGRAM * CCSD (Unrestricted open-shell coupled cluster)     Authors: C. Hampel, H.-J. Werner, 1991, M. Deegan, P.J. Knowles, 1992


 Convergence thresholds:  THRVAR = 1.00D-08  THRDEN = 1.00D-06

 CCSD(T)     terms to be evaluated (factor= 1.000)


 Number of closed-shell orbitals:   1 (   1   0   0   0   0   0   0   0 )
 Number of active  orbitals:        1 (   0   1   0   0   0   0   0   0 )
 Number of external orbitals:     124 (  24  19  20  11  20  11  11   8 )

 Memory could be reduced to 2.35 Mwords without degradation in triples

 Number of N-1 electron functions:               3
 Number of N-2 electron functions:               3
 Number of singly external CSFs:                68
 Number of doubly external CSFs:              5227
 Total number of CSFs:                        5295

 Molecular orbitals read from record     2101.2  Type=RHF/CANONICAL (state 1.2)

 Integral transformation finished. Total CPU:   0.05 sec, npass=  1  Memory used:   0.29 MW

 Starting RMP2 calculation

 ITER.      SQ.NORM     CORR.ENERGY   TOTAL ENERGY   ENERGY CHANGE        DEN1      VAR(S)    VAR(P)  DIIS     TIME
   1      1.03631625    -0.04484064    -1.92184826    -0.04484064    -0.00062209  0.70D-04  0.47D-03  1  1     0.06
   2      1.03785974    -0.04557066    -1.92257829    -0.00073003    -0.00000344  0.36D-06  0.25D-05  2  2     0.06
   3      1.03793057    -0.04559058    -1.92259821    -0.00001992    -0.00000002  0.96D-09  0.13D-07  3  3     0.06
   4      1.03793136    -0.04559069    -1.92259832    -0.00000011    -0.00000000  0.79D-11  0.69D-10  4  4     0.06

 Norm of t1 vector:      0.05562104      S-energy:    -0.00221678      T1 diagnostic:  0.00386257
 Norm of t2 vector:      0.18664849      P-energy:    -0.04337391
                                         Alpha-Beta:  -0.04023567
                                         Alpha-Alpha: -0.00313824
                                         Beta-Beta:    0.00000000

 Spin contamination <S**2-Sz**2-Sz>     0.01134283
  Reference energy                     -1.877007627290
  RHF-RMP2 correlation energy          -0.045590690678
 !RHF-RMP2 energy                      -1.922598317968

 Starting UCCSD calculation

 ITER.      SQ.NORM     CORR.ENERGY   TOTAL ENERGY   ENERGY CHANGE        DEN1      VAR(S)    VAR(P)  DIIS     TIME
   1      1.05003702    -0.05010976    -1.92711739    -0.05010976    -0.00446102  0.41D-03  0.34D-02  1  1     0.10
   2      1.07038025    -0.05661809    -1.93362572    -0.00650833    -0.00031040  0.38D-04  0.21D-03  2  2     0.13
   3      1.07605461    -0.05779421    -1.93480184    -0.00117612    -0.00003032  0.63D-05  0.20D-04  3  3     0.16
   4      1.07769346    -0.05806005    -1.93506767    -0.00026584    -0.00000303  0.76D-06  0.20D-05  4  4     0.20
   5      1.07802363    -0.05810215    -1.93510977    -0.00004210    -0.00000025  0.99D-07  0.15D-06  5  5     0.23
   6      1.07803392    -0.05809725    -1.93510488     0.00000490    -0.00000002  0.15D-07  0.12D-07  6  6     0.26
   7      1.07805316    -0.05810111    -1.93510873    -0.00000386    -0.00000000  0.32D-08  0.17D-08  6  1     0.30
   8      1.07805651    -0.05810154    -1.93510917    -0.00000044    -0.00000000  0.35D-09  0.19D-09  6  2     0.33

 Norm of t1 vector:      0.07368505      S-energy:    -0.00252993      T1 diagnostic:  0.01499772
                                                                       D1 diagnostic:  0.01839703
 Norm of t2 vector:      0.26949402      P-energy:    -0.05557162
                                         Alpha-Beta:  -0.05219385
                                         Alpha-Alpha: -0.00337777
                                         Beta-Beta:    0.00000000

 Doubles amplitudes (print threshold =  0.500E-01):

         I         J         SYM. A    SYM. B    A         B      T(IJ, AB) [Alpha-Beta]

         1         1         3         3         1         1     -0.11763778
         1         1         5         5         1         1     -0.11763773
         2         1         1         2         4         1     -0.06123106
         2         1         4         3         2         1     -0.06065543
         2         1         6         5         2         1     -0.06065547

 Spin contamination <S**2-Sz**2-Sz>     0.00191723

 Memory could be reduced to 2.35 Mwords without degradation in triples
 

 RESULTS
 =======

  Reference energy                     -1.877007627290
  UCCSD singles energy                 -0.002529927705
  UCCSD pair energy                    -0.055571616071
  UCCSD correlation energy             -0.058101543777
  Triples (T) contribution             -0.001639781352
  Total correlation energy             -0.059741325129
 
  RHF-UCCSD energy                     -1.935109171067
  RHF-UCCSD[T] energy                  -1.936664405502
  RHF-UCCSD-T energy                   -1.936763136616
 !RHF-UCCSD(T) energy                  -1.936748952419

 Program statistics:

 Available memory in ccsd:               511999848
 Min. memory needed in ccsd:                 74529
 Max. memory used in ccsd:                   76517
 Max. memory used in cckext:                 98087 ( 8 integral passes)
 Max. memory used in cckint:                290842 ( 1 integral passes)



 **********************************************************************************************************************************
 DATASETS  * FILE   NREC   LENGTH (MB)   RECORD NAMES
              1      21       37.01       500      610      700      900      950      970     1000      129      960     1100   
                                          VAR    BASINP    GEOM    SYMINP    ZMAT    AOBASIS   BASIS     P2S    ABASIS      S 
                                         1400     1410     1420     1200     1210     1080     1600     1650     1300     1700   
                                         EKIN       V       ECP      H0       H01     AOSYM     SMH    MOLCAS    ERIS     OPER   
                                         1380   
                                         JKOP   

              2       6        8.00       700     1000      520     4202     5202     2101   
                                         GEOM     BASIS   MCVARS     RHF     MCSCF     RHF  

 PROGRAMS   *        TOTAL  UCCSD(T)       RHF     MULTI       RHF       INT
 CPU TIMES  *         2.89      0.40      0.03      0.20      0.23      1.88
 REAL TIME  *        12.25 SEC
 DISK USED  *        86.12 MB      
 **********************************************************************************************************************************
 SETTING POSTHF(I)      =        -1.93674895  AU                              
                                                                                                                                                                                                                                                                

       SCF           POSTHF       EKIN          POT
    -1.87700763   -1.93674895   0.64168910   -1.24594610
                                                  

 UCCSD(T)/USERDEF energy=     -1.936748952419

        UCCSD(T)        RHF-SCF         MULTI           RHF-SCF 
     -1.93674895     -1.87700763     -1.87700763     -1.87709039
 **********************************************************************************************************************************
 Variable memory released
