TACC:  Starting up job 2697249 
TACC:  Starting parallel tasks... 
  Input file(s): Co.log.qmc.in-wfj.xml 

=====================================================
                    QMCPACK 3.5.0 

       (c) Copyright 2003-  QMCPACK developers

                    Please cite:
 J. Kim et al. J. Phys. Cond. Mat. 30 195901 (2018)
      https://doi.org/10.1088/1361-648X/aab9c3

  Git branch: develop
  Last git commit: ca320f40410f5ef17c38db08d5c54848ef64bfe1
  Last git commit date: Tue Dec 18 15:37:17 2018 +0800
  Last git commit subject: Merge pull request #764 from Paul-St-Young/dat-h5
=====================================================
  Global options 

  MPI Nodes             = 1024
  MPI Nodes per group   = 1024
  MPI Group ID          = 0
  OMP 1st level threads = 1
  OMP nested threading disabled or only 1 thread on the 2nd level

  Precision used in this calculation, see definitions in the manual:
  Base precision      = double
  Full precision      = double

  Structure-of-arrays (SoA) optimization enabled

  Input XML = Co.log.qmc.in-wfj.xml

  Project = Co.log
  date    = 2018-12-27 17:09:43 CST
  host    = c458-022.stampede2.tacc.utexas.edu

 Random Number
 -------------
  Offset for the random number seeds based on time: 951

  Range of prime numbers to use as seeds over processors and threads = 7523-17167


 Particle Set 
 ------------
  Name: ion0
  All the species have the same mass 1
  Particle set size: 1

 Particle Set 
 ------------
  Name: e
  All the species have the same mass 1
  Particle set size: 17

 Wavefunction setup: 
 ------------------- 
  Name: psi0
  LCAO: SoaAtomicBasisSet<MultiQuintic,1>

  Distance table for similar particles (A-A):
    source/target: e
    Using structure-of-arrays (SoA) data layout
    Distance computations use open boundary conditions in 3D.


  Distance table for dissimilar particles (A-B):
    source: ion0  target: e
    Using structure-of-arrays (SoA) data layout
    Distance computations use open boundary conditions in 3D.

Reading BasisSet from HDF5 file:Co.log.h5
<input node="atomicBasisSet" name="gaussian" expandYlm="pyscf" angular="spherical" elementType="Co" normalized="no" type="Numerical" expM="0" />
  AO BasisSet for Co
   Spherical Harmonics contain (-1)^m factor
   Angular momentum m expanded as -l, ... ,l, with the exception of L=1 (1,-1,0)
   Grid is created by the input paremters in h5
    Using log grid ri = 1e-06 rf = 100 npts = 1001
   R(n,l,m,s) 0 0 0 0
   R(n,l,m,s) 1 0 0 0
   R(n,l,m,s) 2 0 0 0
   R(n,l,m,s) 3 0 0 0
   R(n,l,m,s) 4 0 0 0
   R(n,l,m,s) 5 0 0 0
   R(n,l,m,s) 6 0 0 0
   R(n,l,m,s) 7 0 0 0
   R(n,l,m,s) 8 0 0 0
   R(n,l,m,s) 9 1 0 0
   R(n,l,m,s) 10 1 0 0
   R(n,l,m,s) 11 1 0 0
   R(n,l,m,s) 12 1 0 0
   R(n,l,m,s) 13 1 0 0
   R(n,l,m,s) 14 1 0 0
   R(n,l,m,s) 15 1 0 0
   R(n,l,m,s) 16 1 0 0
   R(n,l,m,s) 17 1 0 0
   R(n,l,m,s) 18 2 0 0
   R(n,l,m,s) 19 2 0 0
   R(n,l,m,s) 20 2 0 0
   R(n,l,m,s) 21 2 0 0
   R(n,l,m,s) 22 2 0 0
   R(n,l,m,s) 23 2 0 0
   R(n,l,m,s) 24 2 0 0
   R(n,l,m,s) 25 2 0 0
   R(n,l,m,s) 26 3 0 0
   R(n,l,m,s) 27 3 0 0
   R(n,l,m,s) 28 3 0 0
   R(n,l,m,s) 29 3 0 0
   R(n,l,m,s) 30 3 0 0
   R(n,l,m,s) 31 4 0 0
   R(n,l,m,s) 32 4 0 0
   R(n,l,m,s) 33 4 0 0
   R(n,l,m,s) 34 4 0 0
   R(n,l,m,s) 35 5 0 0
   R(n,l,m,s) 36 5 0 0
   R(n,l,m,s) 37 5 0 0
   R(n,l,m,s) 38 6 0 0
   R(n,l,m,s) 39 6 0 0
Expanding Ylm as L=1 as (1,-1,0) and L>1 as -l,-l+1,...,l-1,l
   Adding 1 spherical orbitals
   Adding 1 spherical orbitals
   Adding 1 spherical orbitals
   Adding 1 spherical orbitals
   Adding 1 spherical orbitals
   Adding 1 spherical orbitals
   Adding 1 spherical orbitals
   Adding 1 spherical orbitals
   Adding 1 spherical orbitals
   Adding 3 spherical orbitals
   Adding 3 spherical orbitals
   Adding 3 spherical orbitals
   Adding 3 spherical orbitals
   Adding 3 spherical orbitals
   Adding 3 spherical orbitals
   Adding 3 spherical orbitals
   Adding 3 spherical orbitals
   Adding 3 spherical orbitals
   Adding 5 spherical orbitals
   Adding 5 spherical orbitals
   Adding 5 spherical orbitals
   Adding 5 spherical orbitals
   Adding 5 spherical orbitals
   Adding 5 spherical orbitals
   Adding 5 spherical orbitals
   Adding 5 spherical orbitals
   Adding 7 spherical orbitals
   Adding 7 spherical orbitals
   Adding 7 spherical orbitals
   Adding 7 spherical orbitals
   Adding 7 spherical orbitals
   Adding 9 spherical orbitals
   Adding 9 spherical orbitals
   Adding 9 spherical orbitals
   Adding 9 spherical orbitals
   Adding 11 spherical orbitals
   Adding 11 spherical orbitals
   Adding 11 spherical orbitals
   Adding 13 spherical orbitals
   Adding 13 spherical orbitals
   Maximum Angular Momentum  = 6
   Number of Radial functors = 40
   Basis size                = 206

  Created SPOSet builder named 'LCAOBSet' of type molecularorbital
Reuse SPOSetBuilder "LCAOBSet" type MolecularOrbital
  Building SPOSet '' with '' basis set.
Reuse SPOSetBuilder "LCAOBSet" type MolecularOrbital
  Building SPOSet '' with '' basis set.
  Creating a determinant updet group=0 sposet=updet
  Reusing a SPO set updet
Using DiracDeterminant 
Using rank-1 Sherman-Morrison Fahy update

  Creating a determinant downdet group=1 sposet=downdet
  Reusing a SPO set downdet
Using DiracDeterminant 
Using rank-1 Sherman-Morrison Fahy update

  FermionWF = SlaterDet
  RadialJastrowBuilder adds a functor with cusp = -0.25
 size = 10 parameters 
 cusp = -0.25
 rcut = 12.1
Parameter     Name      Value
uu_0 0 1 1  ON 0
uu_1 0 1 1  ON 1
uu_2 0 1 1  ON 2
uu_3 0 1 1  ON 3
uu_4 0 1 1  ON 4
uu_5 0 1 1  ON 5
uu_6 0 1 1  ON 6
uu_7 0 1 1  ON 7
uu_8 0 1 1  ON 8
uu_9 0 1 1  ON 9
  RadialJastrowBuilder adds a functor with cusp = -0.5
 size = 10 parameters 
 cusp = -0.5
 rcut = 12.1
Parameter     Name      Value
ud_0 0 1 1  ON 0
ud_1 0 1 1  ON 1
ud_2 0 1 1  ON 2
ud_3 0 1 1  ON 3
ud_4 0 1 1  ON 4
ud_5 0 1 1  ON 5
ud_6 0 1 1  ON 6
ud_7 0 1 1  ON 7
ud_8 0 1 1  ON 8
ud_9 0 1 1  ON 9
 size = 10 parameters 
 cusp = 0
 rcut = 12.1
Parameter     Name      Value
eCo_0 0 1 1  ON 0
eCo_1 0 1 1  ON 1
eCo_2 0 1 1  ON 2
eCo_3 0 1 1  ON 3
eCo_4 0 1 1  ON 4
eCo_5 0 1 1  ON 5
eCo_6 0 1 1  ON 6
eCo_7 0 1 1  ON 7
eCo_8 0 1 1  ON 8
eCo_9 0 1 1  ON 9
Expected 26 parameters, but found 0 in PolynomialFunctor3D.
Expected 26 parameters, but found 0 in PolynomialFunctor3D.
  QMCHamiltonian::addOperator Kinetic to H, physical Hamiltonian 
  QMCHamiltonian::addOperator ElecElec to H, physical Hamiltonian 
QMCHamiltonian::addOperatorType added type coulomb named ElecElec
  CoulombAA for ion0 is not created.  Number of particles == 1 and nonPeriodic

  ECPotential builder for pseudopotential 

  Adding pseudopotential for Co
   Linear grid  ri=0 rf=10 npts = 10001
    ECPComponentBuilder::buildSemiLocalAndLocal 
    Assuming Hartree unit
   Number of angular momentum channels 3
   Maximum angular momentum channel 2
   Creating a Linear Grid Rmax=1.19
  Using global grid with delta = 0.001
   Making L=2 a local potential with a radial cutoff of 9.999
    Non-local pseudopotential parameters
    Maximum angular mementum = 1
    Number of non-local channels = 2
       l(0)=0
       l(1)=1
    Cutoff radius = 1.19
    Spherical grids and weights: 
                        1                 0                 0       0.08333333333
                       -1   1.224646799e-16                 0       0.08333333333
             0.4472135955       0.894427191                 0       0.08333333333
            -0.4472135955      0.7236067977      0.5257311121       0.08333333333
             0.4472135955      0.2763932023      0.8506508084       0.08333333333
            -0.4472135955     -0.2763932023      0.8506508084       0.08333333333
             0.4472135955     -0.7236067977      0.5257311121       0.08333333333
            -0.4472135955      -0.894427191   1.095357397e-16       0.08333333333
             0.4472135955     -0.7236067977     -0.5257311121       0.08333333333
            -0.4472135955     -0.2763932023     -0.8506508084       0.08333333333
             0.4472135955      0.2763932023     -0.8506508084       0.08333333333
            -0.4472135955      0.7236067977     -0.5257311121       0.08333333333
    Maximum cutoff radius 1.19
  QMCHamiltonian::addOperator LocalECP to H, physical Hamiltonian 

  Using NonLocalECP potential 
    Maximum grid on a sphere for NonLocalECPotential: 12
  QMCHamiltonian::addOperator NonLocalECP to H, physical Hamiltonian 
QMCHamiltonian::addOperatorType added type pseudo named PseudoPot

  QMCHamiltonian::add2WalkerProperty added
    4 to P::PropertyList 
    0 to P::Collectables 
    starting Index of the observables in P::PropertyList = 9
ParticleSetPool::randomize 
<init source="ion0" target="e">
</init>
  Initialization Execution time = 1.009 secs
=========================================================
 Summary of QMC systems 
=========================================================
ParticleSetPool has: 

  ParticleSet e : 0 10 17 

    17

    u  1.1483854081e+00  3.8027034347e-01 -1.6383538409e+00
    u  1.1731299030e+00  5.5255172880e-01  2.3556971829e-01
    u  3.9511613817e+00  3.5556653999e+00 -1.2083741860e+00
    u -1.1346773293e-01 -5.9391060017e-01 -1.4122685483e+00
    u -2.3338363979e+00  4.7904764935e-01  6.6086806507e-01
    u  1.3682390564e+00 -1.1353197317e+00  3.4178180314e-01
    u -9.3883613211e-01 -2.3027330743e+00 -8.0692752593e-01
    u  1.0344781934e+00 -2.7483135717e+00  4.5002570828e-01
    u  2.5944420735e+00  1.0704447887e-01  2.3129099020e+00
    u  2.9665170546e+00  1.4252583084e+00  9.8549384155e-01
    (... and 7 more particle positions ...)

  ParticleSet ion0 : 0 1 

    1

    Co  0.0000000000e+00  0.0000000000e+00  0.0000000000e+00

  Hamiltonian h0
  Kinetic         Kinetic energy
  ElecElec        CoulombAA source/target e

  LocalECP        LocalECPotential: ion0
  NonLocalECP     NonLocalECPotential: ion0

=========================================================
  Start VMC
  File Root Co.log.s000 append = no 
=========================================================
  Adding 1 walkers to 0 existing sets
  Total number of walkers: 1.0240000000e+03
  Total weight: 1.0240000000e+03
  Resetting Properties of the walkers 1 x 13

<vmc function="put">
  qmc_counter=0  my_counter=0
  time step      = 1.5000000000e-01
  blocks         = 200
  steps          = 1
  substeps       = 5
  current        = 0
  target samples = 1.0240000000e+03
  walkers/mpi    = 1

  stepsbetweensamples = 200
<parameter name="blocks" condition="int">200</parameter>
<parameter name="blocks_between_recompute" condition="int">0</parameter>
<parameter name="check_properties" condition="int">100</parameter>
<parameter name="checkproperties" condition="int">100</parameter>
<parameter name="current" condition="int">0</parameter>
<parameter name="dmcwalkersperthread" condition="real">1.0000000000e+00</parameter>
<parameter name="maxcpusecs" condition="real">3.6000000000e+05</parameter>
<parameter name="record_configs" condition="int">0</parameter>
<parameter name="record_walkers" condition="int">200</parameter>
<parameter name="recordconfigs" condition="int">0</parameter>
<parameter name="recordwalkers" condition="int">200</parameter>
<parameter name="rewind" condition="int">0</parameter>
<parameter name="samples" condition="real">1.0240000000e+03</parameter>
<parameter name="samplesperthread" condition="real">1.0000000000e+00</parameter>
<parameter name="steps" condition="int">1</parameter>
<parameter name="stepsbetweensamples" condition="int">200</parameter>
<parameter name="store_configs" condition="int">0</parameter>
<parameter name="storeconfigs" condition="int">0</parameter>
<parameter name="sub_steps" condition="int">5</parameter>
<parameter name="substeps" condition="int">5</parameter>
<parameter name="tau" condition="au">1.5000000000e-01</parameter>
<parameter name="time_step" condition="au">1.5000000000e-01</parameter>
<parameter name="timestep" condition="au">1.5000000000e-01</parameter>
<parameter name="use_drift" condition="string">no</parameter>
<parameter name="usedrift" condition="string">no</parameter>
<parameter name="walkers" condition="int">1</parameter>
<parameter name="warmup_steps" condition="int">100</parameter>
<parameter name="warmupsteps" condition="int">100</parameter>
  DumpConfig==false Nothing (configurations, state) will be saved.
  Walker Samples are dumped every 200 steps.
</vmc>
  Initial partition of walkers 0 1 

  Using Particle by Particle moves
  Walker moves without drift
  Total Sample Size   =1024
  Walker distribution on root = 0 1 
  Using Locality Approximation
===== Memory Usage after the buffer registration =====
Available memory on node 0, free + buffers : 83062 MB
Memory footprint by rank 0 on node 0       : 77 MB
==================================================
  Anonymous Buffer size per walker : 9568 Bytes.
MEMORY increase 0 MB VMC::resetRun
====================================================
  SimpleFixedNodeBranch::finalize after a VMC block
    QMC counter        = 0
    time step          = 0.15
    reference energy   = -144.602
    reference variance = 5.43849
====================================================
  QMC Execution time = 2.1916e+00 secs 
Loop execution max-interations = 5

=========================================================
  Start QMCFixedSampleLinearOptimize
  File Root Co.log.s001 append = no 
=========================================================
  Skip QMCDriver::putQMCInfo 
  Resetting Properties of the walkers 1 x 13

=========================================================
  Start VMC
  File Root Co.log.s001 append = no 
=========================================================
  Using the current 1 walkers.
  Total number of walkers: 1.0240e+03
  Total weight: 1.0240e+03
  Resetting Properties of the walkers 1 x 13

<vmc function="put">
  qmc_counter=0  my_counter=0
  time step      = 1.5000e-01
  blocks         = 400
  steps          = 1
  substeps       = 5
  current        = 0
  target samples = 2.5600e+05
  walkers/mpi    = 1

  stepsbetweensamples = 1
<parameter name="blocks" condition="int">400</parameter>
<parameter name="blocks_between_recompute" condition="int">0</parameter>
<parameter name="check_properties" condition="int">100</parameter>
<parameter name="checkproperties" condition="int">100</parameter>
<parameter name="current" condition="int">0</parameter>
<parameter name="dmcwalkersperthread" condition="real">2.5000e+02</parameter>
<parameter name="maxcpusecs" condition="real">3.6000e+05</parameter>
<parameter name="record_configs" condition="int">0</parameter>
<parameter name="record_walkers" condition="int">1</parameter>
<parameter name="recordconfigs" condition="int">0</parameter>
<parameter name="recordwalkers" condition="int">1</parameter>
<parameter name="rewind" condition="int">0</parameter>
<parameter name="samples" condition="real">2.5600e+05</parameter>
<parameter name="samplesperthread" condition="real">2.5000e+02</parameter>
<parameter name="steps" condition="int">1</parameter>
<parameter name="stepsbetweensamples" condition="int">1</parameter>
<parameter name="store_configs" condition="int">0</parameter>
<parameter name="storeconfigs" condition="int">0</parameter>
<parameter name="sub_steps" condition="int">5</parameter>
<parameter name="substeps" condition="int">5</parameter>
<parameter name="tau" condition="au">1.5000e-01</parameter>
<parameter name="time_step" condition="au">1.5000e-01</parameter>
<parameter name="timestep" condition="au">1.5000e-01</parameter>
<parameter name="use_drift" condition="string">no</parameter>
<parameter name="usedrift" condition="string">no</parameter>
<parameter name="walkers" condition="int">1</parameter>
<parameter name="warmup_steps" condition="int">0</parameter>
<parameter name="warmupsteps" condition="int">0</parameter>
  DumpConfig==false Nothing (configurations, state) will be saved.
  Walker Samples are dumped every 1 steps.
</vmc>
    Restarting, cummulative properties:
      energy     = -1.4460e+02
      variance   = 0.0000e+00
      r2accepted = 1.0000e-10
      r2proposed = 1.0000e-10
 Using QMCCostFunction::QMCCostFunction
  EstimatorManagerBase::add replace LocalEnergy estimator.
<optimization-report>
<vmc stage="main" blocks="400">
  Cannot make clones again. Use existing 1 clones
  Initial partition of walkers 0 1 

  Using Particle by Particle moves
  Walker moves without drift
  Total Sample Size   =256000
  Walker distribution on root = 0 1 
  Using Locality Approximation
===== Memory Usage after the buffer registration =====
Available memory on node 0, free + buffers : 83054 MB
Memory footprint by rank 0 on node 0       : 77 MB
==================================================
  Anonymous Buffer size per walker : 9568 Bytes.
MEMORY increase 0 MB VMC::resetRun
====================================================
  SimpleFixedNodeBranch::finalize after a VMC block
    QMC counter        = 1
    time step          = 0.15
    reference energy   = -144.628
    reference variance = 5.50745
====================================================
  Execution time = 3.8454e+00
</vmc>
<opt stage="setup">
  <log>
   Reading configurations from h5FileRoot Co.log.s001
  QMCCostFunction is created with 1 threads.
  Using Nonlocal PP in Opt: NonLocalECP
   Number of samples loaded to each thread : 250 
  VMC Eavg = -1.4458e+02
  VMC Evar = 5.8951e+00
  Total weights = 2.5600e+05
  Execution time = 6.7506e-01
  </log>
</opt>
<opt stage="main" walkers="256000">
  <log>

*****************************************
Building overlap and Hamiltonian matrices
*****************************************

Among totally 30 optimized parameters, largest LM parameter change : 1.1320e+00 at parameter 20

******************************************************************************
Init Cost =   5.8951e+00    New Cost =   2.7053e+00  Delta Cost =  -3.1898e+00
******************************************************************************

The new set of parameters is valid. Updating the trial wave function!

*****************************************************************************
Applying the update for shift_i =   1.0000e-02     and shift_s =   2.5000e-01
*****************************************************************************
  Execution time = 6.1862e+00
  </log>
  <optVariables href="Co.log.s001.opt.xml">
uu_0 1.2656e-01 1 1  ON 0
uu_1 5.0113e-03 1 1  ON 1
uu_2 -2.3434e-02 1 1  ON 2
uu_3 -3.1650e-02 1 1  ON 3
uu_4 -2.6008e-02 1 1  ON 4
uu_5 -1.5241e-02 1 1  ON 5
uu_6 -2.0045e-03 1 1  ON 6
uu_7 6.7975e-03 1 1  ON 7
uu_8 3.6318e-03 1 1  ON 8
uu_9 -1.2506e-03 1 1  ON 9
ud_0 1.5960e-01 1 1  ON 10
ud_1 3.0315e-02 1 1  ON 11
ud_2 -1.2697e-02 1 1  ON 12
ud_3 -2.2403e-02 1 1  ON 13
ud_4 -2.4750e-02 1 1  ON 14
ud_5 -1.9622e-02 1 1  ON 15
ud_6 -1.4359e-02 1 1  ON 16
ud_7 -1.1563e-02 1 1  ON 17
ud_8 -9.8052e-04 1 1  ON 18
ud_9 -2.2759e-02 1 1  ON 19
eCo_0 -1.1320e+00 1 1  ON 20
eCo_1 -2.0096e-01 1 1  ON 21
eCo_2 2.2992e-01 1 1  ON 22
eCo_3 3.7793e-01 1 1  ON 23
eCo_4 3.5205e-01 1 1  ON 24
eCo_5 2.4688e-01 1 1  ON 25
eCo_6 1.0493e-01 1 1  ON 26
eCo_7 2.5026e-02 1 1  ON 27
eCo_8 4.1382e-03 1 1  ON 28
eCo_9 -1.0109e-03 1 1  ON 29
  </optVariables>
   Restore the number of walkers to 1, removing 0 walkers.
</opt>
</optimization-report>
  QMC Execution time = 6.1968e+00 secs 
  Reusing QMCFixedSampleLinearOptimize
 Using QMCCostFunction::QMCCostFunction

=========================================================
  Start QMCFixedSampleLinearOptimize
  File Root Co.log.s002 append = no 
=========================================================
  Skip QMCDriver::putQMCInfo 
  Resetting Properties of the walkers 1 x 13

=========================================================
  Start VMC
  File Root Co.log.s002 append = no 
=========================================================
Using existing walkers 
  Resetting Properties of the walkers 1 x 13

<vmc function="put">
  qmc_counter=1  my_counter=1
  time step      = 1.5000e-01
  blocks         = 400
  steps          = 1
  substeps       = 5
  current        = 0
  target samples = 2.5600e+05
  walkers/mpi    = 1

  stepsbetweensamples = 1
<parameter name="blocks" condition="int">400</parameter>
<parameter name="blocks_between_recompute" condition="int">0</parameter>
<parameter name="check_properties" condition="int">100</parameter>
<parameter name="checkproperties" condition="int">100</parameter>
<parameter name="current" condition="int">0</parameter>
<parameter name="dmcwalkersperthread" condition="real">2.5000e+02</parameter>
<parameter name="maxcpusecs" condition="real">3.6000e+05</parameter>
<parameter name="record_configs" condition="int">0</parameter>
<parameter name="record_walkers" condition="int">1</parameter>
<parameter name="recordconfigs" condition="int">0</parameter>
<parameter name="recordwalkers" condition="int">1</parameter>
<parameter name="rewind" condition="int">0</parameter>
<parameter name="samples" condition="real">2.5600e+05</parameter>
<parameter name="samplesperthread" condition="real">2.5000e+02</parameter>
<parameter name="steps" condition="int">1</parameter>
<parameter name="stepsbetweensamples" condition="int">1</parameter>
<parameter name="store_configs" condition="int">0</parameter>
<parameter name="storeconfigs" condition="int">0</parameter>
<parameter name="sub_steps" condition="int">5</parameter>
<parameter name="substeps" condition="int">5</parameter>
<parameter name="tau" condition="au">1.5000e-01</parameter>
<parameter name="time_step" condition="au">1.5000e-01</parameter>
<parameter name="timestep" condition="au">1.5000e-01</parameter>
<parameter name="use_drift" condition="string">no</parameter>
<parameter name="usedrift" condition="string">no</parameter>
<parameter name="walkers" condition="int">1</parameter>
<parameter name="warmup_steps" condition="int">0</parameter>
<parameter name="warmupsteps" condition="int">0</parameter>
  DumpConfig==false Nothing (configurations, state) will be saved.
  Walker Samples are dumped every 1 steps.
</vmc>
  EstimatorManagerBase::add replace LocalEnergy estimator.
  EstimatorManagerBase::add replace LocalEnergy estimator.
<optimization-report>
<vmc stage="main" blocks="400">
  Cannot make clones again. Use existing 1 clones
  Initial partition of walkers 0 1 
  Using Particle by Particle moves
  Walker moves without drift
  Total Sample Size   =256000
  Walker distribution on root = 0 1 
  Using Locality Approximation
===== Memory Usage after the buffer registration =====
Available memory on node 0, free + buffers : 83033 MB
Memory footprint by rank 0 on node 0       : 79 MB
==================================================
====================================================
  SimpleFixedNodeBranch::finalize after a VMC block
    QMC counter        = 2
    time step          = 0.15
    reference energy   = -144.904
    reference variance = 2.51411
====================================================
  Execution time = 6.1445e+00
</vmc>
<opt stage="setup">
  <log>
   Reading configurations from h5FileRoot Co.log.s002
  QMCCostFunction is created with 1 threads.
  Using Nonlocal PP in Opt: NonLocalECP
   Number of samples loaded to each thread : 250 
  VMC Eavg = -1.4495e+02
  VMC Evar = 2.4007e+00
  Total weights = 2.5600e+05
  Execution time = 1.6139e+00
  </log>
</opt>
<opt stage="main" walkers="256000">
  <log>

*****************************************
Building overlap and Hamiltonian matrices
*****************************************

Among totally 30 optimized parameters, largest LM parameter change : 4.7326e-01 at parameter 20

******************************************************************************
Init Cost =   2.4007e+00    New Cost =   2.5932e+00  Delta Cost =   1.9243e-01
******************************************************************************

The new set of parameters is valid. Updating the trial wave function!

*****************************************************************************
Applying the update for shift_i =   1.0000e-02     and shift_s =   6.2500e-02
*****************************************************************************
  Execution time = 9.1587e+00
  </log>
  <optVariables href="Co.log.s002.opt.xml">
uu_0 1.6113e-01 1 1  ON 0
uu_1 1.1656e-02 1 1  ON 1
uu_2 -3.4341e-02 1 1  ON 2
uu_3 -4.8861e-02 1 1  ON 3
uu_4 -4.2167e-02 1 1  ON 4
uu_5 -2.3735e-02 1 1  ON 5
uu_6 4.2952e-03 1 1  ON 6
uu_7 2.0894e-02 1 1  ON 7
uu_8 1.9906e-02 1 1  ON 8
uu_9 1.5701e-02 1 1  ON 9
ud_0 2.1715e-01 1 1  ON 10
ud_1 6.0376e-02 1 1  ON 11
ud_2 -5.0652e-03 1 1  ON 12
ud_3 -2.6519e-02 1 1  ON 13
ud_4 -4.1047e-02 1 1  ON 14
ud_5 -4.1353e-02 1 1  ON 15
ud_6 -3.4333e-02 1 1  ON 16
ud_7 -3.4735e-02 1 1  ON 17
ud_8 -1.2744e-02 1 1  ON 18
ud_9 -1.0425e-02 1 1  ON 19
eCo_0 -1.6053e+00 1 1  ON 20
eCo_1 -4.3694e-01 1 1  ON 21
eCo_2 2.4015e-01 1 1  ON 22
eCo_3 5.2133e-01 1 1  ON 23
eCo_4 5.7776e-01 1 1  ON 24
eCo_5 4.4594e-01 1 1  ON 25
eCo_6 2.1539e-01 1 1  ON 26
eCo_7 4.6270e-02 1 1  ON 27
eCo_8 4.4102e-03 1 1  ON 28
eCo_9 4.9045e-03 1 1  ON 29
  </optVariables>
   Restore the number of walkers to 1, removing 0 walkers.
</opt>
</optimization-report>
  QMC Execution time = 9.1674e+00 secs 
  Reusing QMCFixedSampleLinearOptimize
 Using QMCCostFunction::QMCCostFunction

=========================================================
  Start QMCFixedSampleLinearOptimize
  File Root Co.log.s003 append = no 
=========================================================
  Skip QMCDriver::putQMCInfo 
  Resetting Properties of the walkers 1 x 13

=========================================================
  Start VMC
  File Root Co.log.s003 append = no 
=========================================================
Using existing walkers 
  Resetting Properties of the walkers 1 x 13

<vmc function="put">
  qmc_counter=2  my_counter=2
  time step      = 1.5000e-01
  blocks         = 400
  steps          = 1
  substeps       = 5
  current        = 0
  target samples = 2.5600e+05
  walkers/mpi    = 1

  stepsbetweensamples = 1
<parameter name="blocks" condition="int">400</parameter>
<parameter name="blocks_between_recompute" condition="int">0</parameter>
<parameter name="check_properties" condition="int">100</parameter>
<parameter name="checkproperties" condition="int">100</parameter>
<parameter name="current" condition="int">0</parameter>
<parameter name="dmcwalkersperthread" condition="real">2.5000e+02</parameter>
<parameter name="maxcpusecs" condition="real">3.6000e+05</parameter>
<parameter name="record_configs" condition="int">0</parameter>
<parameter name="record_walkers" condition="int">1</parameter>
<parameter name="recordconfigs" condition="int">0</parameter>
<parameter name="recordwalkers" condition="int">1</parameter>
<parameter name="rewind" condition="int">0</parameter>
<parameter name="samples" condition="real">2.5600e+05</parameter>
<parameter name="samplesperthread" condition="real">2.5000e+02</parameter>
<parameter name="steps" condition="int">1</parameter>
<parameter name="stepsbetweensamples" condition="int">1</parameter>
<parameter name="store_configs" condition="int">0</parameter>
<parameter name="storeconfigs" condition="int">0</parameter>
<parameter name="sub_steps" condition="int">5</parameter>
<parameter name="substeps" condition="int">5</parameter>
<parameter name="tau" condition="au">1.5000e-01</parameter>
<parameter name="time_step" condition="au">1.5000e-01</parameter>
<parameter name="timestep" condition="au">1.5000e-01</parameter>
<parameter name="use_drift" condition="string">no</parameter>
<parameter name="usedrift" condition="string">no</parameter>
<parameter name="walkers" condition="int">1</parameter>
<parameter name="warmup_steps" condition="int">0</parameter>
<parameter name="warmupsteps" condition="int">0</parameter>
  DumpConfig==false Nothing (configurations, state) will be saved.
  Walker Samples are dumped every 1 steps.
</vmc>
  EstimatorManagerBase::add replace LocalEnergy estimator.
  EstimatorManagerBase::add replace LocalEnergy estimator.
<optimization-report>
<vmc stage="main" blocks="400">
  Cannot make clones again. Use existing 1 clones
  Initial partition of walkers 0 1 
  Using Particle by Particle moves
  Walker moves without drift
  Total Sample Size   =256000
  Walker distribution on root = 0 1 
  Using Locality Approximation
===== Memory Usage after the buffer registration =====
Available memory on node 0, free + buffers : 83030 MB
Memory footprint by rank 0 on node 0       : 82 MB
==================================================
====================================================
  SimpleFixedNodeBranch::finalize after a VMC block
    QMC counter        = 3
    time step          = 0.15
    reference energy   = -144.934
    reference variance = 2.7107
====================================================
  Execution time = 5.5868e+00
</vmc>
<opt stage="setup">
  <log>
   Reading configurations from h5FileRoot Co.log.s003
  QMCCostFunction is created with 1 threads.
  Using Nonlocal PP in Opt: NonLocalECP
   Number of samples loaded to each thread : 250 
  VMC Eavg = -1.4497e+02
  VMC Evar = 2.5780e+00
  Total weights = 2.5600e+05
  Execution time = 1.4663e+00
  </log>
</opt>
<opt stage="main" walkers="256000">
  <log>

*****************************************
Building overlap and Hamiltonian matrices
*****************************************

Among totally 30 optimized parameters, largest LM parameter change : 1.9999e-01 at parameter 20

******************************************************************************
Init Cost =   2.5780e+00    New Cost =   2.6346e+00  Delta Cost =   5.6527e-02
******************************************************************************

The new set of parameters is valid. Updating the trial wave function!

*****************************************************************************
Applying the update for shift_i =   1.0000e-02     and shift_s =   1.5625e-02
*****************************************************************************
  Execution time = 8.2039e+00
  </log>
  <optVariables href="Co.log.s003.opt.xml">
uu_0 1.6829e-01 1 1  ON 0
uu_1 1.6633e-02 1 1  ON 1
uu_2 -3.5947e-02 1 1  ON 2
uu_3 -5.3918e-02 1 1  ON 3
uu_4 -5.3009e-02 1 1  ON 4
uu_5 -3.7593e-02 1 1  ON 5
uu_6 -1.0187e-03 1 1  ON 6
uu_7 3.1429e-02 1 1  ON 7
uu_8 4.0373e-02 1 1  ON 8
uu_9 2.3795e-02 1 1  ON 9
ud_0 2.3439e-01 1 1  ON 10
ud_1 7.4517e-02 1 1  ON 11
ud_2 3.5067e-03 1 1  ON 12
ud_3 -2.6122e-02 1 1  ON 13
ud_4 -4.9478e-02 1 1  ON 14
ud_5 -5.4785e-02 1 1  ON 15
ud_6 -4.5658e-02 1 1  ON 16
ud_7 -3.0144e-02 1 1  ON 17
ud_8 -3.3250e-02 1 1  ON 18
ud_9 -9.0465e-03 1 1  ON 19
eCo_0 -1.8052e+00 1 1  ON 20
eCo_1 -6.0167e-01 1 1  ON 21
eCo_2 1.5057e-01 1 1  ON 22
eCo_3 5.3532e-01 1 1  ON 23
eCo_4 7.0746e-01 1 1  ON 24
eCo_5 6.0056e-01 1 1  ON 25
eCo_6 3.3503e-01 1 1  ON 26
eCo_7 8.5804e-02 1 1  ON 27
eCo_8 3.6890e-03 1 1  ON 28
eCo_9 3.7736e-03 1 1  ON 29
  </optVariables>
   Restore the number of walkers to 1, removing 0 walkers.
</opt>
</optimization-report>
  QMC Execution time = 8.2127e+00 secs 
  Reusing QMCFixedSampleLinearOptimize
 Using QMCCostFunction::QMCCostFunction

=========================================================
  Start QMCFixedSampleLinearOptimize
  File Root Co.log.s004 append = no 
=========================================================
  Skip QMCDriver::putQMCInfo 
  Resetting Properties of the walkers 1 x 13

=========================================================
  Start VMC
  File Root Co.log.s004 append = no 
=========================================================
Using existing walkers 
  Resetting Properties of the walkers 1 x 13

<vmc function="put">
  qmc_counter=3  my_counter=3
  time step      = 1.5000e-01
  blocks         = 400
  steps          = 1
  substeps       = 5
  current        = 0
  target samples = 2.5600e+05
  walkers/mpi    = 1

  stepsbetweensamples = 1
<parameter name="blocks" condition="int">400</parameter>
<parameter name="blocks_between_recompute" condition="int">0</parameter>
<parameter name="check_properties" condition="int">100</parameter>
<parameter name="checkproperties" condition="int">100</parameter>
<parameter name="current" condition="int">0</parameter>
<parameter name="dmcwalkersperthread" condition="real">2.5000e+02</parameter>
<parameter name="maxcpusecs" condition="real">3.6000e+05</parameter>
<parameter name="record_configs" condition="int">0</parameter>
<parameter name="record_walkers" condition="int">1</parameter>
<parameter name="recordconfigs" condition="int">0</parameter>
<parameter name="recordwalkers" condition="int">1</parameter>
<parameter name="rewind" condition="int">0</parameter>
<parameter name="samples" condition="real">2.5600e+05</parameter>
<parameter name="samplesperthread" condition="real">2.5000e+02</parameter>
<parameter name="steps" condition="int">1</parameter>
<parameter name="stepsbetweensamples" condition="int">1</parameter>
<parameter name="store_configs" condition="int">0</parameter>
<parameter name="storeconfigs" condition="int">0</parameter>
<parameter name="sub_steps" condition="int">5</parameter>
<parameter name="substeps" condition="int">5</parameter>
<parameter name="tau" condition="au">1.5000e-01</parameter>
<parameter name="time_step" condition="au">1.5000e-01</parameter>
<parameter name="timestep" condition="au">1.5000e-01</parameter>
<parameter name="use_drift" condition="string">no</parameter>
<parameter name="usedrift" condition="string">no</parameter>
<parameter name="walkers" condition="int">1</parameter>
<parameter name="warmup_steps" condition="int">0</parameter>
<parameter name="warmupsteps" condition="int">0</parameter>
  DumpConfig==false Nothing (configurations, state) will be saved.
  Walker Samples are dumped every 1 steps.
</vmc>
  EstimatorManagerBase::add replace LocalEnergy estimator.
  EstimatorManagerBase::add replace LocalEnergy estimator.
<optimization-report>
<vmc stage="main" blocks="400">
  Cannot make clones again. Use existing 1 clones
  Initial partition of walkers 0 1 
  Using Particle by Particle moves
  Walker moves without drift
  Total Sample Size   =256000
  Walker distribution on root = 0 1 
  Using Locality Approximation
===== Memory Usage after the buffer registration =====
Available memory on node 0, free + buffers : 83028 MB
Memory footprint by rank 0 on node 0       : 84 MB
==================================================
====================================================
  SimpleFixedNodeBranch::finalize after a VMC block
    QMC counter        = 4
    time step          = 0.15
    reference energy   = -145.003
    reference variance = 2.94329
====================================================
  Execution time = 5.0367e+00
</vmc>
<opt stage="setup">
  <log>
   Reading configurations from h5FileRoot Co.log.s004
  QMCCostFunction is created with 1 threads.
  Using Nonlocal PP in Opt: NonLocalECP
   Number of samples loaded to each thread : 250 
  VMC Eavg = -1.4498e+02
  VMC Evar = 2.7397e+00
  Total weights = 2.5600e+05
  Execution time = 1.1694e+00
  </log>
</opt>
<opt stage="main" walkers="256000">
  <log>

*****************************************
Building overlap and Hamiltonian matrices
*****************************************

Among totally 30 optimized parameters, largest LM parameter change : 1.2330e-01 at parameter 20

******************************************************************************
Init Cost =   2.7397e+00    New Cost =   2.7613e+00  Delta Cost =   2.1562e-02
******************************************************************************

The new set of parameters is valid. Updating the trial wave function!

*****************************************************************************
Applying the update for shift_i =   1.0000e-02     and shift_s =   3.9062e-03
*****************************************************************************
  Execution time = 7.1894e+00
  </log>
  <optVariables href="Co.log.s004.opt.xml">
uu_0 1.7007e-01 1 1  ON 0
uu_1 1.5920e-02 1 1  ON 1
uu_2 -3.6670e-02 1 1  ON 2
uu_3 -5.8470e-02 1 1  ON 3
uu_4 -6.5551e-02 1 1  ON 4
uu_5 -4.8844e-02 1 1  ON 5
uu_6 -1.3527e-02 1 1  ON 6
uu_7 1.2156e-02 1 1  ON 7
uu_8 5.3888e-02 1 1  ON 8
uu_9 4.6831e-02 1 1  ON 9
ud_0 2.4249e-01 1 1  ON 10
ud_1 8.1873e-02 1 1  ON 11
ud_2 9.2667e-03 1 1  ON 12
ud_3 -2.5312e-02 1 1  ON 13
ud_4 -5.3498e-02 1 1  ON 14
ud_5 -6.2774e-02 1 1  ON 15
ud_6 -6.2550e-02 1 1  ON 16
ud_7 -4.6832e-02 1 1  ON 17
ud_8 -4.1869e-02 1 1  ON 18
ud_9 -4.4566e-03 1 1  ON 19
eCo_0 -1.9285e+00 1 1  ON 20
eCo_1 -7.1222e-01 1 1  ON 21
eCo_2 6.8958e-02 1 1  ON 22
eCo_3 5.2309e-01 1 1  ON 23
eCo_4 7.7007e-01 1 1  ON 24
eCo_5 7.1921e-01 1 1  ON 25
eCo_6 4.4129e-01 1 1  ON 26
eCo_7 1.1003e-01 1 1  ON 27
eCo_8 1.5203e-02 1 1  ON 28
eCo_9 7.8201e-03 1 1  ON 29
  </optVariables>
   Restore the number of walkers to 1, removing 0 walkers.
</opt>
</optimization-report>
  QMC Execution time = 8.0518e+00 secs 
  Reusing QMCFixedSampleLinearOptimize
 Using QMCCostFunction::QMCCostFunction

=========================================================
  Start QMCFixedSampleLinearOptimize
  File Root Co.log.s005 append = no 
=========================================================
  Skip QMCDriver::putQMCInfo 
  Resetting Properties of the walkers 1 x 13

=========================================================
  Start VMC
  File Root Co.log.s005 append = no 
=========================================================
Using existing walkers 
  Resetting Properties of the walkers 1 x 13

<vmc function="put">
  qmc_counter=4  my_counter=4
  time step      = 1.5000e-01
  blocks         = 400
  steps          = 1
  substeps       = 5
  current        = 0
  target samples = 2.5600e+05
  walkers/mpi    = 1

  stepsbetweensamples = 1
<parameter name="blocks" condition="int">400</parameter>
<parameter name="blocks_between_recompute" condition="int">0</parameter>
<parameter name="check_properties" condition="int">100</parameter>
<parameter name="checkproperties" condition="int">100</parameter>
<parameter name="current" condition="int">0</parameter>
<parameter name="dmcwalkersperthread" condition="real">2.5000e+02</parameter>
<parameter name="maxcpusecs" condition="real">3.6000e+05</parameter>
<parameter name="record_configs" condition="int">0</parameter>
<parameter name="record_walkers" condition="int">1</parameter>
<parameter name="recordconfigs" condition="int">0</parameter>
<parameter name="recordwalkers" condition="int">1</parameter>
<parameter name="rewind" condition="int">0</parameter>
<parameter name="samples" condition="real">2.5600e+05</parameter>
<parameter name="samplesperthread" condition="real">2.5000e+02</parameter>
<parameter name="steps" condition="int">1</parameter>
<parameter name="stepsbetweensamples" condition="int">1</parameter>
<parameter name="store_configs" condition="int">0</parameter>
<parameter name="storeconfigs" condition="int">0</parameter>
<parameter name="sub_steps" condition="int">5</parameter>
<parameter name="substeps" condition="int">5</parameter>
<parameter name="tau" condition="au">1.5000e-01</parameter>
<parameter name="time_step" condition="au">1.5000e-01</parameter>
<parameter name="timestep" condition="au">1.5000e-01</parameter>
<parameter name="use_drift" condition="string">no</parameter>
<parameter name="usedrift" condition="string">no</parameter>
<parameter name="walkers" condition="int">1</parameter>
<parameter name="warmup_steps" condition="int">0</parameter>
<parameter name="warmupsteps" condition="int">0</parameter>
  DumpConfig==false Nothing (configurations, state) will be saved.
  Walker Samples are dumped every 1 steps.
</vmc>
  EstimatorManagerBase::add replace LocalEnergy estimator.
  EstimatorManagerBase::add replace LocalEnergy estimator.
<optimization-report>
<vmc stage="main" blocks="400">
  Cannot make clones again. Use existing 1 clones
  Initial partition of walkers 0 1 
  Using Particle by Particle moves
  Walker moves without drift
  Total Sample Size   =256000
  Walker distribution on root = 0 1 
  Using Locality Approximation
===== Memory Usage after the buffer registration =====
Available memory on node 0, free + buffers : 83024 MB
Memory footprint by rank 0 on node 0       : 87 MB
==================================================
====================================================
  SimpleFixedNodeBranch::finalize after a VMC block
    QMC counter        = 5
    time step          = 0.15
    reference energy   = -145.059
    reference variance = 7.00676
====================================================
  Execution time = 4.6654e+00
</vmc>
<opt stage="setup">
  <log>
   Reading configurations from h5FileRoot Co.log.s005
  QMCCostFunction is created with 1 threads.
  Using Nonlocal PP in Opt: NonLocalECP
   Number of samples loaded to each thread : 250 
  VMC Eavg = -1.4497e+02
  VMC Evar = 2.6634e+00
  Total weights = 2.5600e+05
  Execution time = 1.0048e+00
  </log>
</opt>
<opt stage="main" walkers="256000">
  <log>

*****************************************
Building overlap and Hamiltonian matrices
*****************************************

Among totally 30 optimized parameters, largest LM parameter change : 1.0165e-01 at parameter 26

******************************************************************************
Init Cost =   2.6634e+00    New Cost =   2.6816e+00  Delta Cost =   1.8197e-02
******************************************************************************

The new set of parameters is valid. Updating the trial wave function!

*****************************************************************************
Applying the update for shift_i =   1.0000e-02     and shift_s =   3.9062e-03
*****************************************************************************
  Execution time = 6.5360e+00
  </log>
  <optVariables href="Co.log.s005.opt.xml">
uu_0 1.6666e-01 1 1  ON 0
uu_1 1.1334e-02 1 1  ON 1
uu_2 -4.2160e-02 1 1  ON 2
uu_3 -6.7072e-02 1 1  ON 3
uu_4 -7.3613e-02 1 1  ON 4
uu_5 -6.2935e-02 1 1  ON 5
uu_6 -2.6138e-02 1 1  ON 6
uu_7 2.0851e-02 1 1  ON 7
uu_8 6.2869e-02 1 1  ON 8
uu_9 5.1635e-02 1 1  ON 9
ud_0 2.5357e-01 1 1  ON 10
ud_1 9.2125e-02 1 1  ON 11
ud_2 1.8411e-02 1 1  ON 12
ud_3 -1.6578e-02 1 1  ON 13
ud_4 -4.7257e-02 1 1  ON 14
ud_5 -6.2997e-02 1 1  ON 15
ud_6 -6.3635e-02 1 1  ON 16
ud_7 -5.9263e-02 1 1  ON 17
ud_8 -5.5162e-02 1 1  ON 18
ud_9 -2.2807e-02 1 1  ON 19
eCo_0 -2.0114e+00 1 1  ON 20
eCo_1 -7.8654e-01 1 1  ON 21
eCo_2 8.1317e-03 1 1  ON 22
eCo_3 4.8802e-01 1 1  ON 23
eCo_4 7.8007e-01 1 1  ON 24
eCo_5 7.9882e-01 1 1  ON 25
eCo_6 5.4294e-01 1 1  ON 26
eCo_7 1.5581e-01 1 1  ON 27
eCo_8 2.6543e-02 1 1  ON 28
eCo_9 8.7182e-03 1 1  ON 29
  </optVariables>
   Restore the number of walkers to 1, removing 0 walkers.
</opt>
</optimization-report>
  QMC Execution time = 6.5440e+00 secs 
Loop execution max-interations = 5
  Reusing QMCFixedSampleLinearOptimize
 Using QMCCostFunction::QMCCostFunction

=========================================================
  Start QMCFixedSampleLinearOptimize
  File Root Co.log.s006 append = no 
=========================================================
  Skip QMCDriver::putQMCInfo 
  Resetting Properties of the walkers 1 x 13

=========================================================
  Start VMC
  File Root Co.log.s006 append = no 
=========================================================
  Using the current 1 walkers.
  Total number of walkers: 1.0240e+03
  Total weight: 1.0240e+03
  Resetting Properties of the walkers 1 x 13

<vmc function="put">
  qmc_counter=0  my_counter=5
  time step      = 1.5000e-01
  blocks         = 400
  steps          = 1
  substeps       = 5
  current        = 0
  target samples = 2.5600e+05
  walkers/mpi    = 1

  stepsbetweensamples = 1
<parameter name="blocks" condition="int">400</parameter>
<parameter name="blocks_between_recompute" condition="int">0</parameter>
<parameter name="check_properties" condition="int">100</parameter>
<parameter name="checkproperties" condition="int">100</parameter>
<parameter name="current" condition="int">0</parameter>
<parameter name="dmcwalkersperthread" condition="real">2.5000e+02</parameter>
<parameter name="maxcpusecs" condition="real">3.6000e+05</parameter>
<parameter name="record_configs" condition="int">0</parameter>
<parameter name="record_walkers" condition="int">1</parameter>
<parameter name="recordconfigs" condition="int">0</parameter>
<parameter name="recordwalkers" condition="int">1</parameter>
<parameter name="rewind" condition="int">0</parameter>
<parameter name="samples" condition="real">2.5600e+05</parameter>
<parameter name="samplesperthread" condition="real">2.5000e+02</parameter>
<parameter name="steps" condition="int">1</parameter>
<parameter name="stepsbetweensamples" condition="int">1</parameter>
<parameter name="store_configs" condition="int">0</parameter>
<parameter name="storeconfigs" condition="int">0</parameter>
<parameter name="sub_steps" condition="int">5</parameter>
<parameter name="substeps" condition="int">5</parameter>
<parameter name="tau" condition="au">1.5000e-01</parameter>
<parameter name="time_step" condition="au">1.5000e-01</parameter>
<parameter name="timestep" condition="au">1.5000e-01</parameter>
<parameter name="use_drift" condition="string">no</parameter>
<parameter name="usedrift" condition="string">no</parameter>
<parameter name="walkers" condition="int">1</parameter>
<parameter name="warmup_steps" condition="int">0</parameter>
<parameter name="warmupsteps" condition="int">0</parameter>
  DumpConfig==false Nothing (configurations, state) will be saved.
  Walker Samples are dumped every 1 steps.
</vmc>
  EstimatorManagerBase::add replace LocalEnergy estimator.
  EstimatorManagerBase::add replace LocalEnergy estimator.
<optimization-report>
<vmc stage="main" blocks="400">
  Cannot make clones again. Use existing 1 clones
  Initial partition of walkers 0 1 
  Using Particle by Particle moves
  Walker moves without drift
  Total Sample Size   =256000
  Walker distribution on root = 0 1 
  Using Locality Approximation
===== Memory Usage after the buffer registration =====
Available memory on node 0, free + buffers : 83021 MB
Memory footprint by rank 0 on node 0       : 90 MB
==================================================
====================================================
  SimpleFixedNodeBranch::finalize after a VMC block
    QMC counter        = 6
    time step          = 0.15
    reference energy   = -144.965
    reference variance = 2.90559
====================================================
  Execution time = 4.9583e+00
</vmc>
<opt stage="setup">
  <log>
   Reading configurations from h5FileRoot Co.log.s006
  QMCCostFunction is created with 1 threads.
  Using Nonlocal PP in Opt: NonLocalECP
   Number of samples loaded to each thread : 250 
  VMC Eavg = -1.4498e+02
  VMC Evar = 2.7412e+00
  Total weights = 2.5600e+05
  Execution time = 9.0632e-01
  </log>
</opt>
<opt stage="main" walkers="256000">
  <log>

*****************************************
Building overlap and Hamiltonian matrices
*****************************************

Among totally 30 optimized parameters, largest LM parameter change : 8.5702e-02 at parameter 26

******************************************************************************
Init Cost =   2.7412e+00    New Cost =   2.7381e+00  Delta Cost =  -3.0886e-03
******************************************************************************

The new set of parameters is valid. Updating the trial wave function!

*****************************************************************************
Applying the update for shift_i =   1.0000e-02     and shift_s =   3.9062e-03
*****************************************************************************
  Execution time = 6.6511e+00
  </log>
  <optVariables href="Co.log.s006.opt.xml">
uu_0 1.8580e-01 1 1  ON 0
uu_1 3.1572e-02 1 1  ON 1
uu_2 -2.1989e-02 1 1  ON 2
uu_3 -4.8297e-02 1 1  ON 3
uu_4 -5.9354e-02 1 1  ON 4
uu_5 -5.5346e-02 1 1  ON 5
uu_6 -2.5638e-02 1 1  ON 6
uu_7 9.2602e-03 1 1  ON 7
uu_8 4.0137e-02 1 1  ON 8
uu_9 2.5605e-02 1 1  ON 9
ud_0 2.5921e-01 1 1  ON 10
ud_1 9.8026e-02 1 1  ON 11
ud_2 2.3819e-02 1 1  ON 12
ud_3 -1.2242e-02 1 1  ON 13
ud_4 -4.5532e-02 1 1  ON 14
ud_5 -5.9399e-02 1 1  ON 15
ud_6 -5.7234e-02 1 1  ON 16
ud_7 -3.5632e-02 1 1  ON 17
ud_8 -3.1110e-02 1 1  ON 18
ud_9 -2.2701e-02 1 1  ON 19
eCo_0 -2.0717e+00 1 1  ON 20
eCo_1 -8.4519e-01 1 1  ON 21
eCo_2 -4.9999e-02 1 1  ON 22
eCo_3 4.5041e-01 1 1  ON 23
eCo_4 7.9086e-01 1 1  ON 24
eCo_5 8.7440e-01 1 1  ON 25
eCo_6 6.2864e-01 1 1  ON 26
eCo_7 2.0243e-01 1 1  ON 27
eCo_8 3.4217e-02 1 1  ON 28
eCo_9 3.9031e-03 1 1  ON 29
  </optVariables>
   Restore the number of walkers to 1, removing 0 walkers.
</opt>
</optimization-report>
  QMC Execution time = 6.6606e+00 secs 
  Reusing QMCFixedSampleLinearOptimize
 Using QMCCostFunction::QMCCostFunction

=========================================================
  Start QMCFixedSampleLinearOptimize
  File Root Co.log.s007 append = no 
=========================================================
  Skip QMCDriver::putQMCInfo 
  Resetting Properties of the walkers 1 x 13

=========================================================
  Start VMC
  File Root Co.log.s007 append = no 
=========================================================
Using existing walkers 
  Resetting Properties of the walkers 1 x 13

<vmc function="put">
  qmc_counter=1  my_counter=6
  time step      = 1.5000e-01
  blocks         = 400
  steps          = 1
  substeps       = 5
  current        = 0
  target samples = 2.5600e+05
  walkers/mpi    = 1

  stepsbetweensamples = 1
<parameter name="blocks" condition="int">400</parameter>
<parameter name="blocks_between_recompute" condition="int">0</parameter>
<parameter name="check_properties" condition="int">100</parameter>
<parameter name="checkproperties" condition="int">100</parameter>
<parameter name="current" condition="int">0</parameter>
<parameter name="dmcwalkersperthread" condition="real">2.5000e+02</parameter>
<parameter name="maxcpusecs" condition="real">3.6000e+05</parameter>
<parameter name="record_configs" condition="int">0</parameter>
<parameter name="record_walkers" condition="int">1</parameter>
<parameter name="recordconfigs" condition="int">0</parameter>
<parameter name="recordwalkers" condition="int">1</parameter>
<parameter name="rewind" condition="int">0</parameter>
<parameter name="samples" condition="real">2.5600e+05</parameter>
<parameter name="samplesperthread" condition="real">2.5000e+02</parameter>
<parameter name="steps" condition="int">1</parameter>
<parameter name="stepsbetweensamples" condition="int">1</parameter>
<parameter name="store_configs" condition="int">0</parameter>
<parameter name="storeconfigs" condition="int">0</parameter>
<parameter name="sub_steps" condition="int">5</parameter>
<parameter name="substeps" condition="int">5</parameter>
<parameter name="tau" condition="au">1.5000e-01</parameter>
<parameter name="time_step" condition="au">1.5000e-01</parameter>
<parameter name="timestep" condition="au">1.5000e-01</parameter>
<parameter name="use_drift" condition="string">no</parameter>
<parameter name="usedrift" condition="string">no</parameter>
<parameter name="walkers" condition="int">1</parameter>
<parameter name="warmup_steps" condition="int">0</parameter>
<parameter name="warmupsteps" condition="int">0</parameter>
  DumpConfig==false Nothing (configurations, state) will be saved.
  Walker Samples are dumped every 1 steps.
</vmc>
  EstimatorManagerBase::add replace LocalEnergy estimator.
  EstimatorManagerBase::add replace LocalEnergy estimator.
<optimization-report>
<vmc stage="main" blocks="400">
  Cannot make clones again. Use existing 1 clones
  Initial partition of walkers 0 1 
  Using Particle by Particle moves
  Walker moves without drift
  Total Sample Size   =256000
  Walker distribution on root = 0 1 
  Using Locality Approximation
===== Memory Usage after the buffer registration =====
Available memory on node 0, free + buffers : 83018 MB
Memory footprint by rank 0 on node 0       : 92 MB
==================================================
====================================================
  SimpleFixedNodeBranch::finalize after a VMC block
    QMC counter        = 7
    time step          = 0.15
    reference energy   = -144.927
    reference variance = 3.05844
====================================================
  Execution time = 4.3132e+00
</vmc>
<opt stage="setup">
  <log>
   Reading configurations from h5FileRoot Co.log.s007
  QMCCostFunction is created with 1 threads.
  Using Nonlocal PP in Opt: NonLocalECP
   Number of samples loaded to each thread : 250 
  VMC Eavg = -1.4498e+02
  VMC Evar = 2.8151e+00
  Total weights = 2.5600e+05
  Execution time = 8.3045e-01
  </log>
</opt>
<opt stage="main" walkers="256000">
  <log>

*****************************************
Building overlap and Hamiltonian matrices
*****************************************

Among totally 30 optimized parameters, largest LM parameter change : 7.5961e-02 at parameter 26

******************************************************************************
Init Cost =   2.8151e+00    New Cost =   2.8273e+00  Delta Cost =   1.2209e-02
******************************************************************************

The new set of parameters is valid. Updating the trial wave function!

*****************************************************************************
Applying the update for shift_i =   1.0000e-02     and shift_s =   3.9062e-03
*****************************************************************************
  Execution time = 5.8768e+00
  </log>
  <optVariables href="Co.log.s007.opt.xml">
uu_0 1.7837e-01 1 1  ON 0
uu_1 2.3931e-02 1 1  ON 1
uu_2 -3.1319e-02 1 1  ON 2
uu_3 -5.7232e-02 1 1  ON 3
uu_4 -6.6098e-02 1 1  ON 4
uu_5 -6.1890e-02 1 1  ON 5
uu_6 -3.1759e-02 1 1  ON 6
uu_7 1.2939e-02 1 1  ON 7
uu_8 5.4027e-02 1 1  ON 8
uu_9 3.9139e-02 1 1  ON 9
ud_0 2.5906e-01 1 1  ON 10
ud_1 9.7777e-02 1 1  ON 11
ud_2 2.3275e-02 1 1  ON 12
ud_3 -1.3885e-02 1 1  ON 13
ud_4 -4.9816e-02 1 1  ON 14
ud_5 -7.0789e-02 1 1  ON 15
ud_6 -6.5502e-02 1 1  ON 16
ud_7 -4.0045e-02 1 1  ON 17
ud_8 -2.8496e-02 1 1  ON 18
ud_9 -1.1203e-02 1 1  ON 19
eCo_0 -2.1337e+00 1 1  ON 20
eCo_1 -9.0333e-01 1 1  ON 21
eCo_2 -9.6439e-02 1 1  ON 22
eCo_3 4.1545e-01 1 1  ON 23
eCo_4 7.9189e-01 1 1  ON 24
eCo_5 9.3690e-01 1 1  ON 25
eCo_6 7.0460e-01 1 1  ON 26
eCo_7 2.5103e-01 1 1  ON 27
eCo_8 4.4749e-02 1 1  ON 28
eCo_9 5.3751e-03 1 1  ON 29
  </optVariables>
   Restore the number of walkers to 1, removing 0 walkers.
</opt>
</optimization-report>
  QMC Execution time = 5.8863e+00 secs 
  Reusing QMCFixedSampleLinearOptimize
 Using QMCCostFunction::QMCCostFunction

=========================================================
  Start QMCFixedSampleLinearOptimize
  File Root Co.log.s008 append = no 
=========================================================
  Skip QMCDriver::putQMCInfo 
  Resetting Properties of the walkers 1 x 13

=========================================================
  Start VMC
  File Root Co.log.s008 append = no 
=========================================================
Using existing walkers 
  Resetting Properties of the walkers 1 x 13

<vmc function="put">
  qmc_counter=2  my_counter=7
  time step      = 1.5000e-01
  blocks         = 400
  steps          = 1
  substeps       = 5
  current        = 0
  target samples = 2.5600e+05
  walkers/mpi    = 1

  stepsbetweensamples = 1
<parameter name="blocks" condition="int">400</parameter>
<parameter name="blocks_between_recompute" condition="int">0</parameter>
<parameter name="check_properties" condition="int">100</parameter>
<parameter name="checkproperties" condition="int">100</parameter>
<parameter name="current" condition="int">0</parameter>
<parameter name="dmcwalkersperthread" condition="real">2.5000e+02</parameter>
<parameter name="maxcpusecs" condition="real">3.6000e+05</parameter>
<parameter name="record_configs" condition="int">0</parameter>
<parameter name="record_walkers" condition="int">1</parameter>
<parameter name="recordconfigs" condition="int">0</parameter>
<parameter name="recordwalkers" condition="int">1</parameter>
<parameter name="rewind" condition="int">0</parameter>
<parameter name="samples" condition="real">2.5600e+05</parameter>
<parameter name="samplesperthread" condition="real">2.5000e+02</parameter>
<parameter name="steps" condition="int">1</parameter>
<parameter name="stepsbetweensamples" condition="int">1</parameter>
<parameter name="store_configs" condition="int">0</parameter>
<parameter name="storeconfigs" condition="int">0</parameter>
<parameter name="sub_steps" condition="int">5</parameter>
<parameter name="substeps" condition="int">5</parameter>
<parameter name="tau" condition="au">1.5000e-01</parameter>
<parameter name="time_step" condition="au">1.5000e-01</parameter>
<parameter name="timestep" condition="au">1.5000e-01</parameter>
<parameter name="use_drift" condition="string">no</parameter>
<parameter name="usedrift" condition="string">no</parameter>
<parameter name="walkers" condition="int">1</parameter>
<parameter name="warmup_steps" condition="int">0</parameter>
<parameter name="warmupsteps" condition="int">0</parameter>
  DumpConfig==false Nothing (configurations, state) will be saved.
  Walker Samples are dumped every 1 steps.
</vmc>
  EstimatorManagerBase::add replace LocalEnergy estimator.
  EstimatorManagerBase::add replace LocalEnergy estimator.
<optimization-report>
<vmc stage="main" blocks="400">
  Cannot make clones again. Use existing 1 clones
  Initial partition of walkers 0 1 
  Using Particle by Particle moves
  Walker moves without drift
  Total Sample Size   =256000
  Walker distribution on root = 0 1 
  Using Locality Approximation
===== Memory Usage after the buffer registration =====
Available memory on node 0, free + buffers : 83015 MB
Memory footprint by rank 0 on node 0       : 95 MB
==================================================
====================================================
  SimpleFixedNodeBranch::finalize after a VMC block
    QMC counter        = 8
    time step          = 0.15
    reference energy   = -145.014
    reference variance = 2.45176
====================================================
  Execution time = 4.1787e+00
</vmc>
<opt stage="setup">
  <log>
   Reading configurations from h5FileRoot Co.log.s008
  QMCCostFunction is created with 1 threads.
  Using Nonlocal PP in Opt: NonLocalECP
   Number of samples loaded to each thread : 250 
  VMC Eavg = -1.4498e+02
  VMC Evar = 2.7490e+00
  Total weights = 2.5600e+05
  Execution time = 7.4875e-01
  </log>
</opt>
<opt stage="main" walkers="256000">
  <log>

*****************************************
Building overlap and Hamiltonian matrices
*****************************************

Among totally 30 optimized parameters, largest LM parameter change : 5.5865e-02 at parameter 26

******************************************************************************
Init Cost =   2.7490e+00    New Cost =   2.7513e+00  Delta Cost =   2.3147e-03
******************************************************************************

The new set of parameters is valid. Updating the trial wave function!

*****************************************************************************
Applying the update for shift_i =   1.0000e-02     and shift_s =   3.9062e-03
*****************************************************************************
  Execution time = 5.6491e+00
  </log>
  <optVariables href="Co.log.s008.opt.xml">
uu_0 1.7794e-01 1 1  ON 0
uu_1 2.3218e-02 1 1  ON 1
uu_2 -3.1908e-02 1 1  ON 2
uu_3 -5.8853e-02 1 1  ON 3
uu_4 -7.2025e-02 1 1  ON 4
uu_5 -6.9320e-02 1 1  ON 5
uu_6 -4.3668e-02 1 1  ON 6
uu_7 5.7704e-03 1 1  ON 7
uu_8 2.6987e-02 1 1  ON 8
uu_9 4.6009e-02 1 1  ON 9
ud_0 2.6568e-01 1 1  ON 10
ud_1 1.0428e-01 1 1  ON 11
ud_2 2.9152e-02 1 1  ON 12
ud_3 -8.4808e-03 1 1  ON 13
ud_4 -4.2056e-02 1 1  ON 14
ud_5 -6.9107e-02 1 1  ON 15
ud_6 -6.9024e-02 1 1  ON 16
ud_7 -4.4383e-02 1 1  ON 17
ud_8 -3.5956e-02 1 1  ON 18
ud_9 -3.5435e-02 1 1  ON 19
eCo_0 -2.1720e+00 1 1  ON 20
eCo_1 -9.4056e-01 1 1  ON 21
eCo_2 -1.2556e-01 1 1  ON 22
eCo_3 3.9785e-01 1 1  ON 23
eCo_4 7.7213e-01 1 1  ON 24
eCo_5 9.6051e-01 1 1  ON 25
eCo_6 7.6047e-01 1 1  ON 26
eCo_7 3.0521e-01 1 1  ON 27
eCo_8 5.1598e-02 1 1  ON 28
eCo_9 3.5171e-03 1 1  ON 29
  </optVariables>
   Restore the number of walkers to 1, removing 0 walkers.
</opt>
</optimization-report>
  QMC Execution time = 5.6586e+00 secs 
  Reusing QMCFixedSampleLinearOptimize
 Using QMCCostFunction::QMCCostFunction

=========================================================
  Start QMCFixedSampleLinearOptimize
  File Root Co.log.s009 append = no 
=========================================================
  Skip QMCDriver::putQMCInfo 
  Resetting Properties of the walkers 1 x 13

=========================================================
  Start VMC
  File Root Co.log.s009 append = no 
=========================================================
Using existing walkers 
  Resetting Properties of the walkers 1 x 13

<vmc function="put">
  qmc_counter=3  my_counter=8
  time step      = 1.5000e-01
  blocks         = 400
  steps          = 1
  substeps       = 5
  current        = 0
  target samples = 2.5600e+05
  walkers/mpi    = 1

  stepsbetweensamples = 1
<parameter name="blocks" condition="int">400</parameter>
<parameter name="blocks_between_recompute" condition="int">0</parameter>
<parameter name="check_properties" condition="int">100</parameter>
<parameter name="checkproperties" condition="int">100</parameter>
<parameter name="current" condition="int">0</parameter>
<parameter name="dmcwalkersperthread" condition="real">2.5000e+02</parameter>
<parameter name="maxcpusecs" condition="real">3.6000e+05</parameter>
<parameter name="record_configs" condition="int">0</parameter>
<parameter name="record_walkers" condition="int">1</parameter>
<parameter name="recordconfigs" condition="int">0</parameter>
<parameter name="recordwalkers" condition="int">1</parameter>
<parameter name="rewind" condition="int">0</parameter>
<parameter name="samples" condition="real">2.5600e+05</parameter>
<parameter name="samplesperthread" condition="real">2.5000e+02</parameter>
<parameter name="steps" condition="int">1</parameter>
<parameter name="stepsbetweensamples" condition="int">1</parameter>
<parameter name="store_configs" condition="int">0</parameter>
<parameter name="storeconfigs" condition="int">0</parameter>
<parameter name="sub_steps" condition="int">5</parameter>
<parameter name="substeps" condition="int">5</parameter>
<parameter name="tau" condition="au">1.5000e-01</parameter>
<parameter name="time_step" condition="au">1.5000e-01</parameter>
<parameter name="timestep" condition="au">1.5000e-01</parameter>
<parameter name="use_drift" condition="string">no</parameter>
<parameter name="usedrift" condition="string">no</parameter>
<parameter name="walkers" condition="int">1</parameter>
<parameter name="warmup_steps" condition="int">0</parameter>
<parameter name="warmupsteps" condition="int">0</parameter>
  DumpConfig==false Nothing (configurations, state) will be saved.
  Walker Samples are dumped every 1 steps.
</vmc>
  EstimatorManagerBase::add replace LocalEnergy estimator.
  EstimatorManagerBase::add replace LocalEnergy estimator.
<optimization-report>
<vmc stage="main" blocks="400">
  Cannot make clones again. Use existing 1 clones
  Initial partition of walkers 0 1 
  Using Particle by Particle moves
  Walker moves without drift
  Total Sample Size   =256000
  Walker distribution on root = 0 1 
  Using Locality Approximation
===== Memory Usage after the buffer registration =====
Available memory on node 0, free + buffers : 83012 MB
Memory footprint by rank 0 on node 0       : 98 MB
==================================================
====================================================
  SimpleFixedNodeBranch::finalize after a VMC block
    QMC counter        = 9
    time step          = 0.15
    reference energy   = -145.09
    reference variance = 2.81437
====================================================
  Execution time = 4.0733e+00
</vmc>
<opt stage="setup">
  <log>
   Reading configurations from h5FileRoot Co.log.s009
  QMCCostFunction is created with 1 threads.
  Using Nonlocal PP in Opt: NonLocalECP
   Number of samples loaded to each thread : 250 
  VMC Eavg = -1.4498e+02
  VMC Evar = 2.6565e+00
  Total weights = 2.5600e+05
  Execution time = 7.0752e-01
  </log>
</opt>
<opt stage="main" walkers="256000">
  <log>

*****************************************
Building overlap and Hamiltonian matrices
*****************************************

Among totally 30 optimized parameters, largest LM parameter change : 6.7646e-02 at parameter 26

******************************************************************************
Init Cost =   2.6565e+00    New Cost =   2.6678e+00  Delta Cost =   1.1347e-02
******************************************************************************

The new set of parameters is valid. Updating the trial wave function!

*****************************************************************************
Applying the update for shift_i =   1.0000e-02     and shift_s =   3.9062e-03
*****************************************************************************
  Execution time = 5.4314e+00
  </log>
  <optVariables href="Co.log.s009.opt.xml">
uu_0 1.7373e-01 1 1  ON 0
uu_1 1.7934e-02 1 1  ON 1
uu_2 -3.7334e-02 1 1  ON 2
uu_3 -6.5846e-02 1 1  ON 3
uu_4 -7.7458e-02 1 1  ON 4
uu_5 -8.0931e-02 1 1  ON 5
uu_6 -5.1539e-02 1 1  ON 6
uu_7 4.4579e-03 1 1  ON 7
uu_8 4.2692e-02 1 1  ON 8
uu_9 4.6192e-02 1 1  ON 9
ud_0 2.6220e-01 1 1  ON 10
ud_1 9.9886e-02 1 1  ON 11
ud_2 2.5081e-02 1 1  ON 12
ud_3 -1.2146e-02 1 1  ON 13
ud_4 -4.8378e-02 1 1  ON 14
ud_5 -7.1198e-02 1 1  ON 15
ud_6 -7.6546e-02 1 1  ON 16
ud_7 -4.6994e-02 1 1  ON 17
ud_8 -2.7150e-02 1 1  ON 18
ud_9 -3.1668e-02 1 1  ON 19
eCo_0 -2.2188e+00 1 1  ON 20
eCo_1 -9.8458e-01 1 1  ON 21
eCo_2 -1.6468e-01 1 1  ON 22
eCo_3 3.6805e-01 1 1  ON 23
eCo_4 7.6583e-01 1 1  ON 24
eCo_5 9.9055e-01 1 1  ON 25
eCo_6 8.2812e-01 1 1  ON 26
eCo_7 3.6093e-01 1 1  ON 27
eCo_8 5.8737e-02 1 1  ON 28
eCo_9 4.5252e-03 1 1  ON 29
  </optVariables>
   Restore the number of walkers to 1, removing 0 walkers.
</opt>
</optimization-report>
  QMC Execution time = 5.4406e+00 secs 
  Reusing QMCFixedSampleLinearOptimize
 Using QMCCostFunction::QMCCostFunction

=========================================================
  Start QMCFixedSampleLinearOptimize
  File Root Co.log.s010 append = no 
=========================================================
  Skip QMCDriver::putQMCInfo 
  Resetting Properties of the walkers 1 x 13

=========================================================
  Start VMC
  File Root Co.log.s010 append = no 
=========================================================
Using existing walkers 
  Resetting Properties of the walkers 1 x 13

<vmc function="put">
  qmc_counter=4  my_counter=9
  time step      = 1.5000e-01
  blocks         = 400
  steps          = 1
  substeps       = 5
  current        = 0
  target samples = 2.5600e+05
  walkers/mpi    = 1

  stepsbetweensamples = 1
<parameter name="blocks" condition="int">400</parameter>
<parameter name="blocks_between_recompute" condition="int">0</parameter>
<parameter name="check_properties" condition="int">100</parameter>
<parameter name="checkproperties" condition="int">100</parameter>
<parameter name="current" condition="int">0</parameter>
<parameter name="dmcwalkersperthread" condition="real">2.5000e+02</parameter>
<parameter name="maxcpusecs" condition="real">3.6000e+05</parameter>
<parameter name="record_configs" condition="int">0</parameter>
<parameter name="record_walkers" condition="int">1</parameter>
<parameter name="recordconfigs" condition="int">0</parameter>
<parameter name="recordwalkers" condition="int">1</parameter>
<parameter name="rewind" condition="int">0</parameter>
<parameter name="samples" condition="real">2.5600e+05</parameter>
<parameter name="samplesperthread" condition="real">2.5000e+02</parameter>
<parameter name="steps" condition="int">1</parameter>
<parameter name="stepsbetweensamples" condition="int">1</parameter>
<parameter name="store_configs" condition="int">0</parameter>
<parameter name="storeconfigs" condition="int">0</parameter>
<parameter name="sub_steps" condition="int">5</parameter>
<parameter name="substeps" condition="int">5</parameter>
<parameter name="tau" condition="au">1.5000e-01</parameter>
<parameter name="time_step" condition="au">1.5000e-01</parameter>
<parameter name="timestep" condition="au">1.5000e-01</parameter>
<parameter name="use_drift" condition="string">no</parameter>
<parameter name="usedrift" condition="string">no</parameter>
<parameter name="walkers" condition="int">1</parameter>
<parameter name="warmup_steps" condition="int">0</parameter>
<parameter name="warmupsteps" condition="int">0</parameter>
  DumpConfig==false Nothing (configurations, state) will be saved.
  Walker Samples are dumped every 1 steps.
</vmc>
  EstimatorManagerBase::add replace LocalEnergy estimator.
  EstimatorManagerBase::add replace LocalEnergy estimator.
<optimization-report>
<vmc stage="main" blocks="400">
  Cannot make clones again. Use existing 1 clones
  Initial partition of walkers 0 1 
  Using Particle by Particle moves
  Walker moves without drift
  Total Sample Size   =256000
  Walker distribution on root = 0 1 
  Using Locality Approximation
===== Memory Usage after the buffer registration =====
Available memory on node 0, free + buffers : 83009 MB
Memory footprint by rank 0 on node 0       : 100 MB
==================================================
====================================================
  SimpleFixedNodeBranch::finalize after a VMC block
    QMC counter        = 10
    time step          = 0.15
    reference energy   = -144.999
    reference variance = 2.79474
====================================================
  Execution time = 3.9792e+00
</vmc>
<opt stage="setup">
  <log>
   Reading configurations from h5FileRoot Co.log.s010
  QMCCostFunction is created with 1 threads.
  Using Nonlocal PP in Opt: NonLocalECP
   Number of samples loaded to each thread : 250 
  VMC Eavg = -1.4498e+02
  VMC Evar = 2.7128e+00
  Total weights = 2.5600e+05
  Execution time = 6.8848e-01
  </log>
</opt>
<opt stage="main" walkers="256000">
  <log>

*****************************************
Building overlap and Hamiltonian matrices
*****************************************

Among totally 30 optimized parameters, largest LM parameter change : 5.0883e-02 at parameter 26

******************************************************************************
Init Cost =   2.7128e+00    New Cost =   2.7048e+00  Delta Cost =  -7.9312e-03
******************************************************************************

The new set of parameters is valid. Updating the trial wave function!

*****************************************************************************
Applying the update for shift_i =   1.0000e-02     and shift_s =   3.9062e-03
*****************************************************************************
  Execution time = 5.3032e+00
  </log>
  <optVariables href="Co.log.s010.opt.xml">
uu_0 1.8106e-01 1 1  ON 0
uu_1 2.5676e-02 1 1  ON 1
uu_2 -2.9416e-02 1 1  ON 2
uu_3 -5.6547e-02 1 1  ON 3
uu_4 -6.8700e-02 1 1  ON 4
uu_5 -7.1908e-02 1 1  ON 5
uu_6 -5.4081e-02 1 1  ON 6
uu_7 -5.1024e-03 1 1  ON 7
uu_8 2.9850e-02 1 1  ON 8
uu_9 3.0678e-02 1 1  ON 9
ud_0 2.8464e-01 1 1  ON 10
ud_1 1.2358e-01 1 1  ON 11
ud_2 4.8733e-02 1 1  ON 12
ud_3 9.6902e-03 1 1  ON 13
ud_4 -3.0227e-02 1 1  ON 14
ud_5 -5.8849e-02 1 1  ON 15
ud_6 -6.8496e-02 1 1  ON 16
ud_7 -5.1359e-02 1 1  ON 17
ud_8 -4.8749e-02 1 1  ON 18
ud_9 -6.0716e-02 1 1  ON 19
eCo_0 -2.2452e+00 1 1  ON 20
eCo_1 -1.0119e+00 1 1  ON 21
eCo_2 -1.9632e-01 1 1  ON 22
eCo_3 3.5363e-01 1 1  ON 23
eCo_4 7.6989e-01 1 1  ON 24
eCo_5 9.9289e-01 1 1  ON 25
eCo_6 8.7900e-01 1 1  ON 26
eCo_7 4.0057e-01 1 1  ON 27
eCo_8 6.7448e-02 1 1  ON 28
eCo_9 3.2759e-03 1 1  ON 29
  </optVariables>
   Restore the number of walkers to 1, removing 0 walkers.
</opt>
</optimization-report>
  QMC Execution time = 5.3109e+00 secs 
Loop execution max-interations = 10
  Reusing QMCFixedSampleLinearOptimize
 Using QMCCostFunction::QMCCostFunction

=========================================================
  Start QMCFixedSampleLinearOptimize
  File Root Co.log.s011 append = no 
=========================================================
  Skip QMCDriver::putQMCInfo 
  Resetting Properties of the walkers 1 x 13

=========================================================
  Start VMC
  File Root Co.log.s011 append = no 
=========================================================
  Using the current 1 walkers.
  Total number of walkers: 1.0240e+03
  Total weight: 1.0240e+03
  Resetting Properties of the walkers 1 x 13

<vmc function="put">
  qmc_counter=0  my_counter=10
  time step      = 1.5000e-01
  blocks         = 400
  steps          = 2
  substeps       = 5
  current        = 0
  target samples = 5.1200e+05
  walkers/mpi    = 1

  stepsbetweensamples = 1
<parameter name="blocks" condition="int">400</parameter>
<parameter name="blocks_between_recompute" condition="int">0</parameter>
<parameter name="check_properties" condition="int">100</parameter>
<parameter name="checkproperties" condition="int">100</parameter>
<parameter name="current" condition="int">0</parameter>
<parameter name="dmcwalkersperthread" condition="real">5.0000e+02</parameter>
<parameter name="maxcpusecs" condition="real">3.6000e+05</parameter>
<parameter name="record_configs" condition="int">0</parameter>
<parameter name="record_walkers" condition="int">1</parameter>
<parameter name="recordconfigs" condition="int">0</parameter>
<parameter name="recordwalkers" condition="int">1</parameter>
<parameter name="rewind" condition="int">0</parameter>
<parameter name="samples" condition="real">5.1200e+05</parameter>
<parameter name="samplesperthread" condition="real">5.0000e+02</parameter>
<parameter name="steps" condition="int">2</parameter>
<parameter name="stepsbetweensamples" condition="int">1</parameter>
<parameter name="store_configs" condition="int">0</parameter>
<parameter name="storeconfigs" condition="int">0</parameter>
<parameter name="sub_steps" condition="int">5</parameter>
<parameter name="substeps" condition="int">5</parameter>
<parameter name="tau" condition="au">1.5000e-01</parameter>
<parameter name="time_step" condition="au">1.5000e-01</parameter>
<parameter name="timestep" condition="au">1.5000e-01</parameter>
<parameter name="use_drift" condition="string">no</parameter>
<parameter name="usedrift" condition="string">no</parameter>
<parameter name="walkers" condition="int">1</parameter>
<parameter name="warmup_steps" condition="int">0</parameter>
<parameter name="warmupsteps" condition="int">0</parameter>
  DumpConfig==false Nothing (configurations, state) will be saved.
  Walker Samples are dumped every 1 steps.
</vmc>
  EstimatorManagerBase::add replace LocalEnergy estimator.
  EstimatorManagerBase::add replace LocalEnergy estimator.
<optimization-report>
<vmc stage="main" blocks="400">
  Cannot make clones again. Use existing 1 clones
  Initial partition of walkers 0 1 
  Using Particle by Particle moves
  Walker moves without drift
  Total Sample Size   =512000
  Walker distribution on root = 0 1 
  Using Locality Approximation
===== Memory Usage after the buffer registration =====
Available memory on node 0, free + buffers : 83006 MB
Memory footprint by rank 0 on node 0       : 103 MB
==================================================
====================================================
  SimpleFixedNodeBranch::finalize after a VMC block
    QMC counter        = 11
    time step          = 0.15
    reference energy   = -145.037
    reference variance = 2.8699
====================================================
  Execution time = 6.3002e+00
</vmc>
<opt stage="setup">
  <log>
   Reading configurations from h5FileRoot Co.log.s011
  QMCCostFunction is created with 1 threads.
  Using Nonlocal PP in Opt: NonLocalECP
   Number of samples loaded to each thread : 500 
  VMC Eavg = -1.4498e+02
  VMC Evar = 2.7290e+00
  Total weights = 5.1200e+05
  Execution time = 1.3261e+00
  </log>
</opt>
<opt stage="main" walkers="512000">
  <log>

*****************************************
Building overlap and Hamiltonian matrices
*****************************************

Among totally 30 optimized parameters, largest LM parameter change : 4.5969e-02 at parameter 27

******************************************************************************
Init Cost =  -1.3760e+02    New Cost =  -1.3760e+02  Delta Cost =   5.7420e-05
******************************************************************************

The new set of parameters is valid. Updating the trial wave function!

*****************************************************************************
Applying the update for shift_i =   1.0000e-02     and shift_s =   3.9062e-03
*****************************************************************************
  Execution time = 8.8882e+00
  </log>
  <optVariables href="Co.log.s011.opt.xml">
uu_0 1.7981e-01 1 1  ON 0
uu_1 2.4015e-02 1 1  ON 1
uu_2 -3.1637e-02 1 1  ON 2
uu_3 -6.0152e-02 1 1  ON 3
uu_4 -7.4066e-02 1 1  ON 4
uu_5 -7.9781e-02 1 1  ON 5
uu_6 -5.7959e-02 1 1  ON 6
uu_7 -7.5026e-03 1 1  ON 7
uu_8 2.4861e-02 1 1  ON 8
uu_9 4.1546e-02 1 1  ON 9
ud_0 2.8217e-01 1 1  ON 10
ud_1 1.2005e-01 1 1  ON 11
ud_2 4.5319e-02 1 1  ON 12
ud_3 6.7443e-03 1 1  ON 13
ud_4 -3.1614e-02 1 1  ON 14
ud_5 -6.0693e-02 1 1  ON 15
ud_6 -7.1557e-02 1 1  ON 16
ud_7 -5.6107e-02 1 1  ON 17
ud_8 -4.0855e-02 1 1  ON 18
ud_9 -4.2478e-02 1 1  ON 19
eCo_0 -2.2744e+00 1 1  ON 20
eCo_1 -1.0380e+00 1 1  ON 21
eCo_2 -2.1326e-01 1 1  ON 22
eCo_3 3.3497e-01 1 1  ON 23
eCo_4 7.5313e-01 1 1  ON 24
eCo_5 1.0014e+00 1 1  ON 25
eCo_6 9.1763e-01 1 1  ON 26
eCo_7 4.4654e-01 1 1  ON 27
eCo_8 8.0206e-02 1 1  ON 28
eCo_9 4.7042e-03 1 1  ON 29
  </optVariables>
   Restore the number of walkers to 1, removing 0 walkers.
</opt>
</optimization-report>
  QMC Execution time = 8.9668e+00 secs 
  Reusing QMCFixedSampleLinearOptimize
 Using QMCCostFunction::QMCCostFunction

=========================================================
  Start QMCFixedSampleLinearOptimize
  File Root Co.log.s012 append = no 
=========================================================
  Skip QMCDriver::putQMCInfo 
  Resetting Properties of the walkers 1 x 13

=========================================================
  Start VMC
  File Root Co.log.s012 append = no 
=========================================================
Using existing walkers 
  Resetting Properties of the walkers 1 x 13

<vmc function="put">
  qmc_counter=1  my_counter=11
  time step      = 1.5000e-01
  blocks         = 400
  steps          = 2
  substeps       = 5
  current        = 0
  target samples = 5.1200e+05
  walkers/mpi    = 1

  stepsbetweensamples = 1
<parameter name="blocks" condition="int">400</parameter>
<parameter name="blocks_between_recompute" condition="int">0</parameter>
<parameter name="check_properties" condition="int">100</parameter>
<parameter name="checkproperties" condition="int">100</parameter>
<parameter name="current" condition="int">0</parameter>
<parameter name="dmcwalkersperthread" condition="real">5.0000e+02</parameter>
<parameter name="maxcpusecs" condition="real">3.6000e+05</parameter>
<parameter name="record_configs" condition="int">0</parameter>
<parameter name="record_walkers" condition="int">1</parameter>
<parameter name="recordconfigs" condition="int">0</parameter>
<parameter name="recordwalkers" condition="int">1</parameter>
<parameter name="rewind" condition="int">0</parameter>
<parameter name="samples" condition="real">5.1200e+05</parameter>
<parameter name="samplesperthread" condition="real">5.0000e+02</parameter>
[...]
</vmc>
<opt stage="setup">
  <log>
   Reading configurations from h5FileRoot Co.log.s017
  QMCCostFunction is created with 1 threads.
  Using Nonlocal PP in Opt: NonLocalECP
   Number of samples loaded to each thread : 500 
  VMC Eavg = -1.4498e+02
  VMC Evar = 2.7149e+00
  Total weights = 5.1200e+05
  Execution time = 1.6680e+00
  </log>
</opt>
<opt stage="main" walkers="512000">
  <log>

*****************************************
Building overlap and Hamiltonian matrices
*****************************************

Among totally 30 optimized parameters, largest LM parameter change : 3.3055e-02 at parameter 27

******************************************************************************
Init Cost =  -1.3760e+02    New Cost =  -1.3760e+02  Delta Cost =  -7.7101e-04
******************************************************************************

The new set of parameters is valid. Updating the trial wave function!

*****************************************************************************
Applying the update for shift_i =   1.0000e-02     and shift_s =   3.9062e-03
*****************************************************************************
  Execution time = 1.0305e+01
  </log>
  <optVariables href="Co.log.s017.opt.xml">
uu_0 1.8486e-01 1 1  ON 0
uu_1 2.9429e-02 1 1  ON 1
uu_2 -2.6308e-02 1 1  ON 2
uu_3 -5.5316e-02 1 1  ON 3
uu_4 -7.3646e-02 1 1  ON 4
uu_5 -8.4593e-02 1 1  ON 5
uu_6 -7.7101e-02 1 1  ON 6
uu_7 -4.1376e-02 1 1  ON 7
uu_8 1.3588e-02 1 1  ON 8
uu_9 2.9301e-02 1 1  ON 9
ud_0 2.7475e-01 1 1  ON 10
ud_1 1.1316e-01 1 1  ON 11
ud_2 3.7949e-02 1 1  ON 12
ud_3 -2.1888e-03 1 1  ON 13
ud_4 -4.1343e-02 1 1  ON 14
ud_5 -7.5174e-02 1 1  ON 15
ud_6 -9.3458e-02 1 1  ON 16
ud_7 -7.5799e-02 1 1  ON 17
ud_8 -4.9534e-02 1 1  ON 18
ud_9 -3.3686e-02 1 1  ON 19
eCo_0 -2.4072e+00 1 1  ON 20
eCo_1 -1.1711e+00 1 1  ON 21
eCo_2 -3.4163e-01 1 1  ON 22
eCo_3 2.3027e-01 1 1  ON 23
eCo_4 7.0220e-01 1 1  ON 24
eCo_5 1.0403e+00 1 1  ON 25
eCo_6 1.0964e+00 1 1  ON 26
eCo_7 6.8464e-01 1 1  ON 27
eCo_8 1.6193e-01 1 1  ON 28
eCo_9 1.1074e-02 1 1  ON 29
  </optVariables>
   Restore the number of walkers to 1, removing 0 walkers.
</opt>
</optimization-report>
  QMC Execution time = 1.0315e+01 secs 
  Reusing QMCFixedSampleLinearOptimize
 Using QMCCostFunction::QMCCostFunction

=========================================================
  Start QMCFixedSampleLinearOptimize
  File Root Co.log.s018 append = no 
=========================================================
  Skip QMCDriver::putQMCInfo 
  Resetting Properties of the walkers 1 x 13

=========================================================
  Start VMC
  File Root Co.log.s018 append = no 
=========================================================
Using existing walkers 
  Resetting Properties of the walkers 1 x 13

<vmc function="put">
  qmc_counter=7  my_counter=17
  time step      = 1.5000e-01
  blocks         = 400
  steps          = 2
  substeps       = 5
  current        = 0
  target samples = 5.1200e+05
  walkers/mpi    = 1

  stepsbetweensamples = 1
<parameter name="blocks" condition="int">400</parameter>
<parameter name="blocks_between_recompute" condition="int">0</parameter>
<parameter name="check_properties" condition="int">100</parameter>
<parameter name="checkproperties" condition="int">100</parameter>
<parameter name="current" condition="int">0</parameter>
<parameter name="dmcwalkersperthread" condition="real">5.0000e+02</parameter>
<parameter name="maxcpusecs" condition="real">3.6000e+05</parameter>
<parameter name="record_configs" condition="int">0</parameter>
<parameter name="record_walkers" condition="int">1</parameter>
<parameter name="recordconfigs" condition="int">0</parameter>
<parameter name="recordwalkers" condition="int">1</parameter>
<parameter name="rewind" condition="int">0</parameter>
<parameter name="samples" condition="real">5.1200e+05</parameter>
<parameter name="samplesperthread" condition="real">5.0000e+02</parameter>
<parameter name="steps" condition="int">2</parameter>
<parameter name="stepsbetweensamples" condition="int">1</parameter>
<parameter name="store_configs" condition="int">0</parameter>
<parameter name="storeconfigs" condition="int">0</parameter>
<parameter name="sub_steps" condition="int">5</parameter>
<parameter name="substeps" condition="int">5</parameter>
<parameter name="tau" condition="au">1.5000e-01</parameter>
<parameter name="time_step" condition="au">1.5000e-01</parameter>
<parameter name="timestep" condition="au">1.5000e-01</parameter>
<parameter name="use_drift" condition="string">no</parameter>
<parameter name="usedrift" condition="string">no</parameter>
<parameter name="walkers" condition="int">1</parameter>
<parameter name="warmup_steps" condition="int">0</parameter>
<parameter name="warmupsteps" condition="int">0</parameter>
  DumpConfig==false Nothing (configurations, state) will be saved.
  Walker Samples are dumped every 1 steps.
</vmc>
  EstimatorManagerBase::add replace LocalEnergy estimator.
  EstimatorManagerBase::add replace LocalEnergy estimator.
<optimization-report>
<vmc stage="main" blocks="400">
  Cannot make clones again. Use existing 1 clones
  Initial partition of walkers 0 1 
  Using Particle by Particle moves
  Walker moves without drift
  Total Sample Size   =512000
  Walker distribution on root = 0 1 
  Using Locality Approximation
===== Memory Usage after the buffer registration =====
Available memory on node 0, free + buffers : 82935 MB
Memory footprint by rank 0 on node 0       : 122 MB
==================================================
====================================================
  SimpleFixedNodeBranch::finalize after a VMC block
    QMC counter        = 18
    time step          = 0.15
    reference energy   = -144.894
    reference variance = 2.6916
====================================================
  Execution time = 6.9903e+00
</vmc>
<opt stage="setup">
  <log>
   Reading configurations from h5FileRoot Co.log.s018
  QMCCostFunction is created with 1 threads.
  Using Nonlocal PP in Opt: NonLocalECP
   Number of samples loaded to each thread : 500 
  VMC Eavg = -1.4498e+02
  VMC Evar = 2.7438e+00
  Total weights = 5.1200e+05
  Execution time = 1.6489e+00
  </log>
</opt>
<opt stage="main" walkers="512000">
  <log>

*****************************************
Building overlap and Hamiltonian matrices
*****************************************

Among totally 30 optimized parameters, largest LM parameter change : 3.4923e-02 at parameter 27

******************************************************************************
Init Cost =  -1.3759e+02    New Cost =  -1.3759e+02  Delta Cost =   1.1801e-04
******************************************************************************

The new set of parameters is valid. Updating the trial wave function!

*****************************************************************************
Applying the update for shift_i =   1.0000e-02     and shift_s =   3.9062e-03
*****************************************************************************
  Execution time = 1.0226e+01
  </log>
  <optVariables href="Co.log.s018.opt.xml">
uu_0 1.8419e-01 1 1  ON 0
uu_1 2.8780e-02 1 1  ON 1
uu_2 -2.7700e-02 1 1  ON 2
uu_3 -5.7796e-02 1 1  ON 3
uu_4 -7.3791e-02 1 1  ON 4
uu_5 -8.5695e-02 1 1  ON 5
uu_6 -7.8680e-02 1 1  ON 6
uu_7 -3.5253e-02 1 1  ON 7
uu_8 2.5638e-02 1 1  ON 8
uu_9 3.7014e-02 1 1  ON 9
ud_0 2.7501e-01 1 1  ON 10
ud_1 1.1301e-01 1 1  ON 11
ud_2 3.6410e-02 1 1  ON 12
ud_3 -3.2197e-03 1 1  ON 13
ud_4 -4.3331e-02 1 1  ON 14
ud_5 -7.3458e-02 1 1  ON 15
ud_6 -9.2211e-02 1 1  ON 16
ud_7 -7.5260e-02 1 1  ON 17
ud_8 -4.7011e-02 1 1  ON 18
ud_9 -2.6096e-02 1 1  ON 19
eCo_0 -2.4282e+00 1 1  ON 20
eCo_1 -1.1876e+00 1 1  ON 21
eCo_2 -3.4513e-01 1 1  ON 22
eCo_3 2.2238e-01 1 1  ON 23
eCo_4 6.8686e-01 1 1  ON 24
eCo_5 1.0329e+00 1 1  ON 25
eCo_6 1.1154e+00 1 1  ON 26
eCo_7 7.1957e-01 1 1  ON 27
eCo_8 1.7946e-01 1 1  ON 28
eCo_9 1.3415e-02 1 1  ON 29
  </optVariables>
   Restore the number of walkers to 1, removing 0 walkers.
</opt>
</optimization-report>
  QMC Execution time = 1.0236e+01 secs 
  Reusing QMCFixedSampleLinearOptimize
 Using QMCCostFunction::QMCCostFunction

=========================================================
  Start QMCFixedSampleLinearOptimize
  File Root Co.log.s019 append = no 
=========================================================
  Skip QMCDriver::putQMCInfo 
  Resetting Properties of the walkers 1 x 13

=========================================================
  Start VMC
  File Root Co.log.s019 append = no 
=========================================================
Using existing walkers 
  Resetting Properties of the walkers 1 x 13

<vmc function="put">
  qmc_counter=8  my_counter=18
  time step      = 1.5000e-01
  blocks         = 400
  steps          = 2
  substeps       = 5
  current        = 0
  target samples = 5.1200e+05
  walkers/mpi    = 1

  stepsbetweensamples = 1
<parameter name="blocks" condition="int">400</parameter>
<parameter name="blocks_between_recompute" condition="int">0</parameter>
<parameter name="check_properties" condition="int">100</parameter>
<parameter name="checkproperties" condition="int">100</parameter>
<parameter name="current" condition="int">0</parameter>
<parameter name="dmcwalkersperthread" condition="real">5.0000e+02</parameter>
<parameter name="maxcpusecs" condition="real">3.6000e+05</parameter>
<parameter name="record_configs" condition="int">0</parameter>
<parameter name="record_walkers" condition="int">1</parameter>
<parameter name="recordconfigs" condition="int">0</parameter>
<parameter name="recordwalkers" condition="int">1</parameter>
<parameter name="rewind" condition="int">0</parameter>
<parameter name="samples" condition="real">5.1200e+05</parameter>
<parameter name="samplesperthread" condition="real">5.0000e+02</parameter>
<parameter name="steps" condition="int">2</parameter>
<parameter name="stepsbetweensamples" condition="int">1</parameter>
<parameter name="store_configs" condition="int">0</parameter>
<parameter name="storeconfigs" condition="int">0</parameter>
<parameter name="sub_steps" condition="int">5</parameter>
<parameter name="substeps" condition="int">5</parameter>
<parameter name="tau" condition="au">1.5000e-01</parameter>
<parameter name="time_step" condition="au">1.5000e-01</parameter>
<parameter name="timestep" condition="au">1.5000e-01</parameter>
<parameter name="use_drift" condition="string">no</parameter>
<parameter name="usedrift" condition="string">no</parameter>
<parameter name="walkers" condition="int">1</parameter>
<parameter name="warmup_steps" condition="int">0</parameter>
<parameter name="warmupsteps" condition="int">0</parameter>
  DumpConfig==false Nothing (configurations, state) will be saved.
  Walker Samples are dumped every 1 steps.
</vmc>
  EstimatorManagerBase::add replace LocalEnergy estimator.
  EstimatorManagerBase::add replace LocalEnergy estimator.
<optimization-report>
<vmc stage="main" blocks="400">
  Cannot make clones again. Use existing 1 clones
  Initial partition of walkers 0 1 
  Using Particle by Particle moves
  Walker moves without drift
  Total Sample Size   =512000
  Walker distribution on root = 0 1 
  Using Locality Approximation
===== Memory Usage after the buffer registration =====
Available memory on node 0, free + buffers : 82932 MB
Memory footprint by rank 0 on node 0       : 125 MB
==================================================
====================================================
  SimpleFixedNodeBranch::finalize after a VMC block
    QMC counter        = 19
    time step          = 0.15
    reference energy   = -145.015
    reference variance = 2.82977
====================================================
  Execution time = 6.8757e+00
</vmc>
<opt stage="setup">
  <log>
   Reading configurations from h5FileRoot Co.log.s019
  QMCCostFunction is created with 1 threads.
  Using Nonlocal PP in Opt: NonLocalECP
   Number of samples loaded to each thread : 500 
  VMC Eavg = -1.4498e+02
  VMC Evar = 2.7396e+00
  Total weights = 5.1200e+05
  Execution time = 1.3188e+00
  </log>
</opt>
<opt stage="main" walkers="512000">
  <log>

*****************************************
Building overlap and Hamiltonian matrices
*****************************************

Among totally 30 optimized parameters, largest LM parameter change : 3.6454e-02 at parameter 27

******************************************************************************
Init Cost =  -1.3760e+02    New Cost =  -1.3760e+02  Delta Cost =  -4.8624e-04
******************************************************************************

The new set of parameters is valid. Updating the trial wave function!

*****************************************************************************
Applying the update for shift_i =   1.0000e-02     and shift_s =   3.9062e-03
*****************************************************************************
  Execution time = 9.4471e+00
  </log>
  <optVariables href="Co.log.s019.opt.xml">
uu_0 1.7831e-01 1 1  ON 0
uu_1 2.3129e-02 1 1  ON 1
uu_2 -3.2238e-02 1 1  ON 2
uu_3 -6.1525e-02 1 1  ON 3
uu_4 -7.7790e-02 1 1  ON 4
uu_5 -8.9247e-02 1 1  ON 5
uu_6 -8.3807e-02 1 1  ON 6
uu_7 -3.4378e-02 1 1  ON 7
uu_8 2.3681e-02 1 1  ON 8
uu_9 4.0429e-02 1 1  ON 9
ud_0 2.7916e-01 1 1  ON 10
ud_1 1.1745e-01 1 1  ON 11
ud_2 4.1177e-02 1 1  ON 12
ud_3 7.7346e-04 1 1  ON 13
ud_4 -4.1929e-02 1 1  ON 14
ud_5 -7.4671e-02 1 1  ON 15
ud_6 -9.5054e-02 1 1  ON 16
ud_7 -8.5720e-02 1 1  ON 17
ud_8 -6.1351e-02 1 1  ON 18
ud_9 -2.9439e-02 1 1  ON 19
eCo_0 -2.4341e+00 1 1  ON 20
eCo_1 -1.1968e+00 1 1  ON 21
eCo_2 -3.6171e-01 1 1  ON 22
eCo_3 2.0304e-01 1 1  ON 23
eCo_4 6.8236e-01 1 1  ON 24
eCo_5 1.0359e+00 1 1  ON 25
eCo_6 1.1190e+00 1 1  ON 26
eCo_7 7.5602e-01 1 1  ON 27
eCo_8 1.8761e-01 1 1  ON 28
eCo_9 1.4534e-02 1 1  ON 29
  </optVariables>
   Restore the number of walkers to 1, removing 0 walkers.
</opt>
</optimization-report>
  QMC Execution time = 9.4563e+00 secs 
  Reusing QMCFixedSampleLinearOptimize
 Using QMCCostFunction::QMCCostFunction

=========================================================
  Start QMCFixedSampleLinearOptimize
  File Root Co.log.s020 append = no 
=========================================================
  Skip QMCDriver::putQMCInfo 
  Resetting Properties of the walkers 1 x 13

=========================================================
  Start VMC
  File Root Co.log.s020 append = no 
=========================================================
Using existing walkers 
  Resetting Properties of the walkers 1 x 13

<vmc function="put">
  qmc_counter=9  my_counter=19
  time step      = 1.5000e-01
  blocks         = 400
  steps          = 2
  substeps       = 5
  current        = 0
  target samples = 5.1200e+05
  walkers/mpi    = 1

  stepsbetweensamples = 1
<parameter name="blocks" condition="int">400</parameter>
<parameter name="blocks_between_recompute" condition="int">0</parameter>
<parameter name="check_properties" condition="int">100</parameter>
<parameter name="checkproperties" condition="int">100</parameter>
<parameter name="current" condition="int">0</parameter>
<parameter name="dmcwalkersperthread" condition="real">5.0000e+02</parameter>
<parameter name="maxcpusecs" condition="real">3.6000e+05</parameter>
<parameter name="record_configs" condition="int">0</parameter>
<parameter name="record_walkers" condition="int">1</parameter>
<parameter name="recordconfigs" condition="int">0</parameter>
<parameter name="recordwalkers" condition="int">1</parameter>
<parameter name="rewind" condition="int">0</parameter>
<parameter name="samples" condition="real">5.1200e+05</parameter>
<parameter name="samplesperthread" condition="real">5.0000e+02</parameter>
<parameter name="steps" condition="int">2</parameter>
<parameter name="stepsbetweensamples" condition="int">1</parameter>
<parameter name="store_configs" condition="int">0</parameter>
<parameter name="storeconfigs" condition="int">0</parameter>
<parameter name="sub_steps" condition="int">5</parameter>
<parameter name="substeps" condition="int">5</parameter>
<parameter name="tau" condition="au">1.5000e-01</parameter>
<parameter name="time_step" condition="au">1.5000e-01</parameter>
<parameter name="timestep" condition="au">1.5000e-01</parameter>
<parameter name="use_drift" condition="string">no</parameter>
<parameter name="usedrift" condition="string">no</parameter>
<parameter name="walkers" condition="int">1</parameter>
<parameter name="warmup_steps" condition="int">0</parameter>
<parameter name="warmupsteps" condition="int">0</parameter>
  DumpConfig==false Nothing (configurations, state) will be saved.
  Walker Samples are dumped every 1 steps.
</vmc>
  EstimatorManagerBase::add replace LocalEnergy estimator.
  EstimatorManagerBase::add replace LocalEnergy estimator.
<optimization-report>
<vmc stage="main" blocks="400">
  Cannot make clones again. Use existing 1 clones
  Initial partition of walkers 0 1 
  Using Particle by Particle moves
  Walker moves without drift
  Total Sample Size   =512000
  Walker distribution on root = 0 1 
  Using Locality Approximation
===== Memory Usage after the buffer registration =====
Available memory on node 0, free + buffers : 82928 MB
Memory footprint by rank 0 on node 0       : 127 MB
==================================================
====================================================
  SimpleFixedNodeBranch::finalize after a VMC block
    QMC counter        = 20
    time step          = 0.15
    reference energy   = -144.98
    reference variance = 2.8632
====================================================
  Execution time = 6.1476e+00
</vmc>
<opt stage="setup">
  <log>
   Reading configurations from h5FileRoot Co.log.s020
  QMCCostFunction is created with 1 threads.
  Using Nonlocal PP in Opt: NonLocalECP
   Number of samples loaded to each thread : 500 
  VMC Eavg = -1.4498e+02
  VMC Evar = 2.8443e+00
  Total weights = 5.1200e+05
  Execution time = 1.3421e+00
  </log>
</opt>
<opt stage="main" walkers="512000">
  <log>

*****************************************
Building overlap and Hamiltonian matrices
*****************************************

Among totally 30 optimized parameters, largest LM parameter change : 3.0447e-02 at parameter 27

******************************************************************************
Init Cost =  -1.3759e+02    New Cost =  -1.3759e+02  Delta Cost =  -1.0714e-04
******************************************************************************

The new set of parameters is valid. Updating the trial wave function!

*****************************************************************************
Applying the update for shift_i =   1.0000e-02     and shift_s =   3.9062e-03
*****************************************************************************
  Execution time = 8.7759e+00
  </log>
  <optVariables href="Co.log.s020.opt.xml">
uu_0 1.8061e-01 1 1  ON 0
uu_1 2.5106e-02 1 1  ON 1
uu_2 -3.1336e-02 1 1  ON 2
uu_3 -6.0405e-02 1 1  ON 3
uu_4 -7.8528e-02 1 1  ON 4
uu_5 -8.4919e-02 1 1  ON 5
uu_6 -7.9471e-02 1 1  ON 6
uu_7 -4.2204e-02 1 1  ON 7
uu_8 2.5357e-02 1 1  ON 8
uu_9 5.5101e-02 1 1  ON 9
ud_0 2.8656e-01 1 1  ON 10
ud_1 1.2475e-01 1 1  ON 11
ud_2 4.9116e-02 1 1  ON 12
ud_3 8.4134e-03 1 1  ON 13
ud_4 -3.1503e-02 1 1  ON 14
ud_5 -6.6891e-02 1 1  ON 15
ud_6 -8.8904e-02 1 1  ON 16
ud_7 -8.3600e-02 1 1  ON 17
ud_8 -5.5999e-02 1 1  ON 18
ud_9 -3.3836e-02 1 1  ON 19
eCo_0 -2.4522e+00 1 1  ON 20
eCo_1 -1.2146e+00 1 1  ON 21
eCo_2 -3.7518e-01 1 1  ON 22
eCo_3 2.0228e-01 1 1  ON 23
eCo_4 6.7200e-01 1 1  ON 24
eCo_5 1.0259e+00 1 1  ON 25
eCo_6 1.1451e+00 1 1  ON 26
eCo_7 7.8647e-01 1 1  ON 27
eCo_8 2.0451e-01 1 1  ON 28
eCo_9 1.7349e-02 1 1  ON 29
  </optVariables>
   Restore the number of walkers to 1, removing 0 walkers.
</opt>
</optimization-report>
  QMC Execution time = 8.7839e+00 secs 
  Total Execution time = 1.6864e+02 secs

=========================================================
  A new xml input file : Co.log.s020.cont.xml
TACC:  Shutdown complete. Exiting. 
