TACC:  Starting up job 2983002 
TACC:  Starting parallel tasks... 
  Input file(s): Ne.log.qmc.in-wfj.xml 

=====================================================
                    QMCPACK 3.6.0

       (c) Copyright 2003-  QMCPACK developers

                    Please cite:
 J. Kim et al. J. Phys. Cond. Mat. 30 195901 (2018)
      https://doi.org/10.1088/1361-648X/aab9c3

  Git branch: develop
  Last git commit: 278b2da505fe49852d465a6e4d7961918d794c87
  Last git commit date: Thu Feb 14 11:22:02 2019 -0500
  Last git commit subject: Merge pull request #1379 from ye-luo/raise-boost-version
=====================================================
  Global options 

  MPI Nodes             = 1024
  MPI Nodes per group   = 1024
  MPI Group ID          = 0
  OMP 1st level threads = 1
  OMP nested threading disabled or only 1 thread on the 2nd level

  Precision used in this calculation, see definitions in the manual:
  Base precision      = double
  Full precision      = double

  Structure-of-arrays (SoA) optimization enabled

  Input XML = Ne.log.qmc.in-wfj.xml

  Project = Ne.log
  date    = 2019-02-21 12:33:45 CST
  host    = c415-124.stampede2.tacc.utexas.edu

 Random Number
 -------------
  Offset for the random number seeds based on time: 777

  Range of prime numbers to use as seeds over processors and threads = 5927-15439


 Particle Set 
 ------------
  Name: ion0
  All the species have the same mass 1
  Particle set size: 1

 Particle Set 
 ------------
  Name: e
  All the species have the same mass 1
  Particle set size: 8

 Wavefunction setup: 
 ------------------- 
  Name: psi0
  LCAO: SoaAtomicBasisSet<MultiQuintic,0>

  Distance table for similar particles (A-A):
    source/target: e
    Using structure-of-arrays (SoA) data layout
    Distance computations use open boundary conditions in 3D.


  Distance table for dissimilar particles (A-B):
    source: ion0  target: e
    Using structure-of-arrays (SoA) data layout
    Distance computations use open boundary conditions in 3D.

Reading BasisSet from HDF5 file:Ne.log.orbs.h5
<input node="atomicBasisSet" name="Gaussian" expandYlm="Gamess" angular="cartesian" elementType="Ne" normalized="no" type="Numerical" expM="0" />
  AO BasisSet for Ne
   Angular momentum expanded in cartesian functions x^lx y^ly z^lz according to Gamess
   Grid is created by the input paremters in h5
    Using log grid ri = 1e-06 rf = 100 npts = 1001
   R(n,l,m,s) 0 0 0 0
   R(n,l,m,s) 1 1 0 0
   R(n,l,m,s) 2 0 0 0
   R(n,l,m,s) 3 1 0 0
   R(n,l,m,s) 4 2 0 0
Expanding Ylm (angular function) according to Gamess using cartesian gaussians
Adding 1 cartesian gaussian orbitals for l= 0
Adding 3 cartesian gaussian orbitals for l= 1
Adding 1 cartesian gaussian orbitals for l= 0
Adding 3 cartesian gaussian orbitals for l= 1
Adding 6 cartesian gaussian orbitals for l= 2
  Setting cutoff radius 8.79023

   Maximum Angular Momentum  = 2
   Number of Radial functors = 5
   Basis size                = 14

  Created SPOSet builder named 'LCAOBSet' of type molecularorbital
Reuse SPOSetBuilder "LCAOBSet" type MolecularOrbital
  Building SPOSet '' with '' basis set.
Reuse SPOSetBuilder "LCAOBSet" type MolecularOrbital
  Building SPOSet '' with '' basis set.
  Creating a determinant updet group=0 sposet=updet
  Reusing a SPO set updet
Using DiracDeterminant
Using rank-1 Sherman-Morrison Fahy update

  Creating a determinant downdet group=1 sposet=downdet
  Reusing a SPO set downdet
Using DiracDeterminant
Using rank-1 Sherman-Morrison Fahy update

  FermionWF = SlaterDet
  RadialJastrowBuilder adds a functor with cusp = -0.25
 size = 10 parameters 
 cusp = -0.25
 rcut = 4.5
Parameter     Name      Value
uu_0 0 1 1  ON 0
uu_1 0 1 1  ON 1
uu_2 0 1 1  ON 2
uu_3 0 1 1  ON 3
uu_4 0 1 1  ON 4
uu_5 0 1 1  ON 5
uu_6 0 1 1  ON 6
uu_7 0 1 1  ON 7
uu_8 0 1 1  ON 8
uu_9 0 1 1  ON 9
  RadialJastrowBuilder adds a functor with cusp = -0.5
 size = 10 parameters 
 cusp = -0.5
 rcut = 4.5
Parameter     Name      Value
ud_0 0 1 1  ON 0
ud_1 0 1 1  ON 1
ud_2 0 1 1  ON 2
ud_3 0 1 1  ON 3
ud_4 0 1 1  ON 4
ud_5 0 1 1  ON 5
ud_6 0 1 1  ON 6
ud_7 0 1 1  ON 7
ud_8 0 1 1  ON 8
ud_9 0 1 1  ON 9
 size = 10 parameters 
 cusp = 0
 rcut = 4.5
Parameter     Name      Value
eNe_0 0 1 1  ON 0
eNe_1 0 1 1  ON 1
eNe_2 0 1 1  ON 2
eNe_3 0 1 1  ON 3
eNe_4 0 1 1  ON 4
eNe_5 0 1 1  ON 5
eNe_6 0 1 1  ON 6
eNe_7 0 1 1  ON 7
eNe_8 0 1 1  ON 8
eNe_9 0 1 1  ON 9
Expected 26 parameters, but found 0 in PolynomialFunctor3D.
Expected 26 parameters, but found 0 in PolynomialFunctor3D.
  QMCHamiltonian::addOperator Kinetic to H, physical Hamiltonian 
  QMCHamiltonian::addOperator ElecElec to H, physical Hamiltonian 
QMCHamiltonian::addOperatorType added type coulomb named ElecElec
  CoulombAA for ion0 is not created.  Number of particles == 1 and nonPeriodic

  ECPotential builder for pseudopotential 

  Adding pseudopotential for Ne
   Linear grid  ri=0 rf=10 npts = 10001
    ECPComponentBuilder::buildSemiLocalAndLocal 
    Assuming Hartree unit
   Number of angular momentum channels 2
   Maximum angular momentum channel 1
   Creating a Linear Grid Rmax=0.975
  Using global grid with delta = 0.001
   Making L=1 a local potential with a radial cutoff of 9.999
    Non-local pseudopotential parameters
    Maximum angular mementum = 0
    Number of non-local channels = 1
       l(0)=0
    Cutoff radius = 0.975
    Spherical grids and weights: 
                        1                 0                 0       0.08333333333
                       -1   1.224646799e-16                 0       0.08333333333
             0.4472135955       0.894427191                 0       0.08333333333
            -0.4472135955      0.7236067977      0.5257311121       0.08333333333
             0.4472135955      0.2763932023      0.8506508084       0.08333333333
            -0.4472135955     -0.2763932023      0.8506508084       0.08333333333
             0.4472135955     -0.7236067977      0.5257311121       0.08333333333
            -0.4472135955      -0.894427191   1.095357397e-16       0.08333333333
             0.4472135955     -0.7236067977     -0.5257311121       0.08333333333
            -0.4472135955     -0.2763932023     -0.8506508084       0.08333333333
             0.4472135955      0.2763932023     -0.8506508084       0.08333333333
            -0.4472135955      0.7236067977     -0.5257311121       0.08333333333
    Maximum cutoff radius 0.975
  QMCHamiltonian::addOperator LocalECP to H, physical Hamiltonian 

  Using NonLocalECP potential 
    Maximum grid on a sphere for NonLocalECPotential: 12
  QMCHamiltonian::addOperator NonLocalECP to H, physical Hamiltonian 
QMCHamiltonian::addOperatorType added type pseudo named PseudoPot

  QMCHamiltonian::add2WalkerProperty added
    4 to P::PropertyList 
    0 to P::Collectables 
    starting Index of the observables in P::PropertyList = 9
ParticleSetPool::randomize 
<init source="ion0" target="e">
</init>
  Initialization Execution time = 0.7762 secs
=========================================================
 Summary of QMC systems 
=========================================================
ParticleSetPool has: 

  ParticleSet e : 0 4 8 

    8

    u  4.7816017532e-01  1.7717591885e+00  4.8984278383e-01
    u -2.6428220859e-02 -1.4766262143e+00  5.5609701912e-01
    u  1.1623566146e+00  1.5099878777e+00 -7.2990615518e-01
    u  1.3446620072e+00  2.1586695714e+00 -8.5163619783e-01
    d  9.9055758756e-01 -7.0730066516e-01  8.3592887387e-01
    d -2.9871988060e+00  8.3986799784e-01 -8.5801536149e-01
    d  1.7115625477e+00 -9.4939325549e-01  1.0852551685e-01
    d -1.9546590799e+00  1.3840897846e+00  1.3220979066e+00

  ParticleSet ion0 : 0 1 

    1

    Ne  0.0000000000e+00  0.0000000000e+00  0.0000000000e+00

  Hamiltonian h0
  Kinetic         Kinetic energy
  ElecElec        CoulombAA source/target e

  LocalECP        LocalECPotential: ion0
  NonLocalECP     NonLocalECPotential: ion0

=========================================================
  Start VMC
  File Root Ne.log.s000 append = no 
=========================================================
  Adding 1 walkers to 0 existing sets
  Total number of walkers: 1.0240000000e+03
  Total weight: 1.0240000000e+03
  Resetting Properties of the walkers 1 x 13

<vmc function="put">
  qmc_counter=0  my_counter=0
  time step      = 1.5000000000e-01
  blocks         = 200
  steps          = 1
  substeps       = 5
  current        = 0
  target samples = 1.0240000000e+03
  walkers/mpi    = 1

  stepsbetweensamples = 200
<parameter name="blocks" condition="int">200</parameter>
<parameter name="blocks_between_recompute" condition="int">0</parameter>
<parameter name="check_properties" condition="int">100</parameter>
<parameter name="checkproperties" condition="int">100</parameter>
<parameter name="current" condition="int">0</parameter>
<parameter name="dmcwalkersperthread" condition="real">1.0000000000e+00</parameter>
<parameter name="maxcpusecs" condition="real">3.6000000000e+05</parameter>
<parameter name="record_configs" condition="int">0</parameter>
<parameter name="record_walkers" condition="int">200</parameter>
<parameter name="recordconfigs" condition="int">0</parameter>
<parameter name="recordwalkers" condition="int">200</parameter>
<parameter name="rewind" condition="int">0</parameter>
<parameter name="samples" condition="real">1.0240000000e+03</parameter>
<parameter name="samplesperthread" condition="real">1.0000000000e+00</parameter>
<parameter name="steps" condition="int">1</parameter>
<parameter name="stepsbetweensamples" condition="int">200</parameter>
<parameter name="store_configs" condition="int">0</parameter>
<parameter name="storeconfigs" condition="int">0</parameter>
<parameter name="sub_steps" condition="int">5</parameter>
<parameter name="substeps" condition="int">5</parameter>
<parameter name="tau" condition="au">1.5000000000e-01</parameter>
<parameter name="time_step" condition="au">1.5000000000e-01</parameter>
<parameter name="timestep" condition="au">1.5000000000e-01</parameter>
<parameter name="use_drift" condition="string">no</parameter>
<parameter name="usedrift" condition="string">no</parameter>
<parameter name="walkers" condition="int">1</parameter>
<parameter name="warmup_steps" condition="int">100</parameter>
<parameter name="warmupsteps" condition="int">100</parameter>
  DumpConfig==false Nothing (configurations, state) will be saved.
  Walker Samples are dumped every 200 steps.
</vmc>
  Initial partition of walkers 0 1 

  Using Particle by Particle moves
  Walker moves without drift
  Total Sample Size   =1024
  Walker distribution on root = 0 1 
  Using Locality Approximation
===== Memory Usage after the buffer registration =====
Available memory on node 0, free + buffers : 84808 MB
Memory footprint by rank 0 on node 0       : 72 MB
==================================================
  Anonymous Buffer size per walker : 2912 Bytes.
MEMORY increase 0 MB VMC::resetRun
====================================================
  SimpleFixedNodeBranch::finalize after a VMC block
    QMC counter        = 0
    time step          = 0.15
    reference energy   = -34.6943
    reference variance = 4.29017
====================================================
  QMC Execution time = 8.6868e-01 secs
Loop execution max-interations = 5

=========================================================
  Start QMCFixedSampleLinearOptimize
  File Root Ne.log.s001 append = no 
=========================================================
  Skip QMCDriver::putQMCInfo 
  Resetting Properties of the walkers 1 x 13

=========================================================
  Start VMC
  File Root Ne.log.s001 append = no 
=========================================================
  Using the current 1 walkers.
  Total number of walkers: 1.0240e+03
  Total weight: 1.0240e+03
  Resetting Properties of the walkers 1 x 13

<vmc function="put">
  qmc_counter=0  my_counter=0
  time step      = 1.5000e-01
  blocks         = 200
  steps          = 2
  substeps       = 5
  current        = 0
  target samples = 2.5600e+05
  walkers/mpi    = 1

  stepsbetweensamples = 1
<parameter name="blocks" condition="int">200</parameter>
<parameter name="blocks_between_recompute" condition="int">0</parameter>
<parameter name="check_properties" condition="int">100</parameter>
<parameter name="checkproperties" condition="int">100</parameter>
<parameter name="current" condition="int">0</parameter>
<parameter name="dmcwalkersperthread" condition="real">2.5000e+02</parameter>
<parameter name="maxcpusecs" condition="real">3.6000e+05</parameter>
<parameter name="record_configs" condition="int">0</parameter>
<parameter name="record_walkers" condition="int">1</parameter>
<parameter name="recordconfigs" condition="int">0</parameter>
<parameter name="recordwalkers" condition="int">1</parameter>
<parameter name="rewind" condition="int">0</parameter>
<parameter name="samples" condition="real">2.5600e+05</parameter>
<parameter name="samplesperthread" condition="real">2.5000e+02</parameter>
<parameter name="steps" condition="int">2</parameter>
<parameter name="stepsbetweensamples" condition="int">1</parameter>
<parameter name="store_configs" condition="int">0</parameter>
<parameter name="storeconfigs" condition="int">0</parameter>
<parameter name="sub_steps" condition="int">5</parameter>
<parameter name="substeps" condition="int">5</parameter>
<parameter name="tau" condition="au">1.5000e-01</parameter>
<parameter name="time_step" condition="au">1.5000e-01</parameter>
<parameter name="timestep" condition="au">1.5000e-01</parameter>
<parameter name="use_drift" condition="string">no</parameter>
<parameter name="usedrift" condition="string">no</parameter>
<parameter name="walkers" condition="int">1</parameter>
<parameter name="warmup_steps" condition="int">0</parameter>
<parameter name="warmupsteps" condition="int">0</parameter>
  DumpConfig==false Nothing (configurations, state) will be saved.
  Walker Samples are dumped every 1 steps.
</vmc>
    Restarting, cummulative properties:
      energy     = -3.4694e+01
      variance   = 0.0000e+00
      r2accepted = 1.0000e-10
      r2proposed = 1.0000e-10
 Using QMCCostFunction::QMCCostFunction
  EstimatorManagerBase::add replace LocalEnergy estimator.
<optimization-report>
<vmc stage="main" blocks="200">
  Cannot make clones again. Use existing 1 clones
  Initial partition of walkers 0 1 

  Using Particle by Particle moves
  Walker moves without drift
  Total Sample Size   =256000
  Walker distribution on root = 0 1 
  Using Locality Approximation
===== Memory Usage after the buffer registration =====
Available memory on node 0, free + buffers : 84795 MB
Memory footprint by rank 0 on node 0       : 72 MB
==================================================
  Anonymous Buffer size per walker : 2912 Bytes.
MEMORY increase 0 MB VMC::resetRun
====================================================
  SimpleFixedNodeBranch::finalize after a VMC block
    QMC counter        = 1
    time step          = 0.15
    reference energy   = -34.7764
    reference variance = 4.34924
====================================================
  Execution time = 1.3392e+00
</vmc>
<opt stage="setup">
  <log>
   Reading configurations from h5FileRoot Ne.log.s001
  QMCCostFunction is created with 1 threads.
  Using Nonlocal PP in Opt: NonLocalECP
   Number of samples loaded to each thread : 250 
  VMC Eavg = -3.4720e+01
  VMC Evar = 4.3034e+00
  Total weights = 2.5600e+05
  Execution time = 1.4034e-01
  </log>
</opt>
<opt stage="main" walkers="256000">
  <log>

*****************************************
Building overlap and Hamiltonian matrices
*****************************************

Among totally 30 optimized parameters, largest LM parameter change : 4.2571e-01 at parameter 20

******************************************************************************
Init Cost =   4.3034e+00    New Cost =   7.5393e-01  Delta Cost =  -3.5494e+00
******************************************************************************

The new set of parameters is valid. Updating the trial wave function!

*****************************************************************************
Applying the update for shift_i =   1.0000e-02     and shift_s =   2.5000e-01
*****************************************************************************
  Execution time = 1.9575e+00
  </log>
  <optVariables href="Ne.log.s001.opt.xml">
uu_0 1.6846e-01 1 1  ON 0
uu_1 9.6614e-02 1 1  ON 1
uu_2 4.1863e-02 1 1  ON 2
uu_3 4.7604e-03 1 1  ON 3
uu_4 -2.0026e-02 1 1  ON 4
uu_5 -3.4320e-02 1 1  ON 5
uu_6 -4.0251e-02 1 1  ON 6
uu_7 -3.9437e-02 1 1  ON 7
uu_8 -3.1585e-02 1 1  ON 8
uu_9 -2.1214e-02 1 1  ON 9
ud_0 2.5782e-01 1 1  ON 10
ud_1 1.2368e-01 1 1  ON 11
ud_2 4.2184e-02 1 1  ON 12
ud_3 -5.5947e-03 1 1  ON 13
ud_4 -3.4818e-02 1 1  ON 14
ud_5 -5.0384e-02 1 1  ON 15
ud_6 -5.6006e-02 1 1  ON 16
ud_7 -5.2567e-02 1 1  ON 17
ud_8 -4.1732e-02 1 1  ON 18
ud_9 -2.8869e-02 1 1  ON 19
eNe_0 -4.2571e-01 1 1  ON 20
eNe_1 -3.2661e-01 1 1  ON 21
eNe_2 -1.4554e-01 1 1  ON 22
eNe_3 2.1170e-02 1 1  ON 23
eNe_4 1.4090e-01 1 1  ON 24
eNe_5 2.0691e-01 1 1  ON 25
eNe_6 2.2041e-01 1 1  ON 26
eNe_7 1.8663e-01 1 1  ON 27
eNe_8 1.2171e-01 1 1  ON 28
eNe_9 4.1885e-02 1 1  ON 29
  </optVariables>
   Restore the number of walkers to 1, removing 0 walkers.
</opt>
</optimization-report>
  QMC Execution time = 1.9666e+00 secs
  Reusing QMCFixedSampleLinearOptimize
 Using QMCCostFunction::QMCCostFunction

=========================================================
  Start QMCFixedSampleLinearOptimize
  File Root Ne.log.s002 append = no 
=========================================================
  Skip QMCDriver::putQMCInfo 
  Resetting Properties of the walkers 1 x 13

=========================================================
  Start VMC
  File Root Ne.log.s002 append = no 
=========================================================
Using existing walkers 
  Resetting Properties of the walkers 1 x 13

<vmc function="put">
  qmc_counter=1  my_counter=1
  time step      = 1.5000e-01
  blocks         = 200
  steps          = 2
  substeps       = 5
  current        = 0
  target samples = 2.5600e+05
  walkers/mpi    = 1

  stepsbetweensamples = 1
<parameter name="blocks" condition="int">200</parameter>
<parameter name="blocks_between_recompute" condition="int">0</parameter>
<parameter name="check_properties" condition="int">100</parameter>
<parameter name="checkproperties" condition="int">100</parameter>
<parameter name="current" condition="int">0</parameter>
<parameter name="dmcwalkersperthread" condition="real">2.5000e+02</parameter>
<parameter name="maxcpusecs" condition="real">3.6000e+05</parameter>
<parameter name="record_configs" condition="int">0</parameter>
<parameter name="record_walkers" condition="int">1</parameter>
<parameter name="recordconfigs" condition="int">0</parameter>
<parameter name="recordwalkers" condition="int">1</parameter>
<parameter name="rewind" condition="int">0</parameter>
<parameter name="samples" condition="real">2.5600e+05</parameter>
<parameter name="samplesperthread" condition="real">2.5000e+02</parameter>
<parameter name="steps" condition="int">2</parameter>
<parameter name="stepsbetweensamples" condition="int">1</parameter>
<parameter name="store_configs" condition="int">0</parameter>
<parameter name="storeconfigs" condition="int">0</parameter>
<parameter name="sub_steps" condition="int">5</parameter>
<parameter name="substeps" condition="int">5</parameter>
<parameter name="tau" condition="au">1.5000e-01</parameter>
<parameter name="time_step" condition="au">1.5000e-01</parameter>
<parameter name="timestep" condition="au">1.5000e-01</parameter>
<parameter name="use_drift" condition="string">no</parameter>
<parameter name="usedrift" condition="string">no</parameter>
<parameter name="walkers" condition="int">1</parameter>
<parameter name="warmup_steps" condition="int">0</parameter>
<parameter name="warmupsteps" condition="int">0</parameter>
  DumpConfig==false Nothing (configurations, state) will be saved.
  Walker Samples are dumped every 1 steps.
</vmc>
  EstimatorManagerBase::add replace LocalEnergy estimator.
  EstimatorManagerBase::add replace LocalEnergy estimator.
<optimization-report>
<vmc stage="main" blocks="200">
  Cannot make clones again. Use existing 1 clones
  Initial partition of walkers 0 1 
  Using Particle by Particle moves
  Walker moves without drift
  Total Sample Size   =256000
  Walker distribution on root = 0 1 
  Using Locality Approximation
===== Memory Usage after the buffer registration =====
Available memory on node 0, free + buffers : 84780 MB
Memory footprint by rank 0 on node 0       : 75 MB
==================================================
====================================================
  SimpleFixedNodeBranch::finalize after a VMC block
    QMC counter        = 2
    time step          = 0.15
    reference energy   = -34.97
    reference variance = 0.694096
====================================================
  Execution time = 2.1765e+00
</vmc>
<opt stage="setup">
  <log>
   Reading configurations from h5FileRoot Ne.log.s002
  QMCCostFunction is created with 1 threads.
  Using Nonlocal PP in Opt: NonLocalECP
   Number of samples loaded to each thread : 250 
  VMC Eavg = -3.4977e+01
  VMC Evar = 6.4052e-01
  Total weights = 2.5600e+05
  Execution time = 4.3834e-01
  </log>
</opt>
<opt stage="main" walkers="256000">
  <log>

*****************************************
Building overlap and Hamiltonian matrices
*****************************************

Among totally 30 optimized parameters, largest LM parameter change : 1.3692e-01 at parameter 20

******************************************************************************
Init Cost =   6.4052e-01    New Cost =   7.4993e-01  Delta Cost =   1.0942e-01
******************************************************************************

The new set of parameters is valid. Updating the trial wave function!

*****************************************************************************
Applying the update for shift_i =   1.0000e-02     and shift_s =   6.2500e-02
*****************************************************************************
  Execution time = 3.1618e+00
  </log>
  <optVariables href="Ne.log.s002.opt.xml">
uu_0 2.1889e-01 1 1  ON 0
uu_1 1.3393e-01 1 1  ON 1
uu_2 6.8300e-02 1 1  ON 2
uu_3 2.0540e-02 1 1  ON 3
uu_4 -1.2719e-02 1 1  ON 4
uu_5 -3.4119e-02 1 1  ON 5
uu_6 -4.5033e-02 1 1  ON 6
uu_7 -4.7280e-02 1 1  ON 7
uu_8 -3.9792e-02 1 1  ON 8
uu_9 -2.8942e-02 1 1  ON 9
ud_0 3.1753e-01 1 1  ON 10
ud_1 1.6553e-01 1 1  ON 11
ud_2 7.1765e-02 1 1  ON 12
ud_3 1.0884e-02 1 1  ON 13
ud_4 -2.8813e-02 1 1  ON 14
ud_5 -5.2988e-02 1 1  ON 15
ud_6 -6.4601e-02 1 1  ON 16
ud_7 -6.5647e-02 1 1  ON 17
ud_8 -5.5148e-02 1 1  ON 18
ud_9 -3.8676e-02 1 1  ON 19
eNe_0 -5.6263e-01 1 1  ON 20
eNe_1 -4.4454e-01 1 1  ON 21
eNe_2 -2.2039e-01 1 1  ON 22
eNe_3 -3.6755e-03 1 1  ON 23
eNe_4 1.6102e-01 1 1  ON 24
eNe_5 2.6164e-01 1 1  ON 25
eNe_6 2.9990e-01 1 1  ON 26
eNe_7 2.7841e-01 1 1  ON 27
eNe_8 2.0172e-01 1 1  ON 28
eNe_9 8.8106e-02 1 1  ON 29
  </optVariables>
   Restore the number of walkers to 1, removing 0 walkers.
</opt>
</optimization-report>
  QMC Execution time = 3.1705e+00 secs
  Reusing QMCFixedSampleLinearOptimize
 Using QMCCostFunction::QMCCostFunction

=========================================================
  Start QMCFixedSampleLinearOptimize
  File Root Ne.log.s003 append = no 
=========================================================
  Skip QMCDriver::putQMCInfo 
  Resetting Properties of the walkers 1 x 13

=========================================================
  Start VMC
  File Root Ne.log.s003 append = no 
=========================================================
Using existing walkers 
  Resetting Properties of the walkers 1 x 13

<vmc function="put">
  qmc_counter=2  my_counter=2
  time step      = 1.5000e-01
  blocks         = 200
  steps          = 2
  substeps       = 5
  current        = 0
  target samples = 2.5600e+05
  walkers/mpi    = 1

  stepsbetweensamples = 1
<parameter name="blocks" condition="int">200</parameter>
<parameter name="blocks_between_recompute" condition="int">0</parameter>
<parameter name="check_properties" condition="int">100</parameter>
<parameter name="checkproperties" condition="int">100</parameter>
<parameter name="current" condition="int">0</parameter>
<parameter name="dmcwalkersperthread" condition="real">2.5000e+02</parameter>
<parameter name="maxcpusecs" condition="real">3.6000e+05</parameter>
<parameter name="record_configs" condition="int">0</parameter>
<parameter name="record_walkers" condition="int">1</parameter>
<parameter name="recordconfigs" condition="int">0</parameter>
<parameter name="recordwalkers" condition="int">1</parameter>
<parameter name="rewind" condition="int">0</parameter>
<parameter name="samples" condition="real">2.5600e+05</parameter>
<parameter name="samplesperthread" condition="real">2.5000e+02</parameter>
<parameter name="steps" condition="int">2</parameter>
<parameter name="stepsbetweensamples" condition="int">1</parameter>
<parameter name="store_configs" condition="int">0</parameter>
<parameter name="storeconfigs" condition="int">0</parameter>
<parameter name="sub_steps" condition="int">5</parameter>
<parameter name="substeps" condition="int">5</parameter>
<parameter name="tau" condition="au">1.5000e-01</parameter>
<parameter name="time_step" condition="au">1.5000e-01</parameter>
<parameter name="timestep" condition="au">1.5000e-01</parameter>
<parameter name="use_drift" condition="string">no</parameter>
<parameter name="usedrift" condition="string">no</parameter>
<parameter name="walkers" condition="int">1</parameter>
<parameter name="warmup_steps" condition="int">0</parameter>
<parameter name="warmupsteps" condition="int">0</parameter>
  DumpConfig==false Nothing (configurations, state) will be saved.
  Walker Samples are dumped every 1 steps.
</vmc>
  EstimatorManagerBase::add replace LocalEnergy estimator.
  EstimatorManagerBase::add replace LocalEnergy estimator.
<optimization-report>
<vmc stage="main" blocks="200">
  Cannot make clones again. Use existing 1 clones
  Initial partition of walkers 0 1 
  Using Particle by Particle moves
  Walker moves without drift
  Total Sample Size   =256000
  Walker distribution on root = 0 1 
  Using Locality Approximation
===== Memory Usage after the buffer registration =====
Available memory on node 0, free + buffers : 84777 MB
Memory footprint by rank 0 on node 0       : 76 MB
==================================================
====================================================
  SimpleFixedNodeBranch::finalize after a VMC block
    QMC counter        = 3
    time step          = 0.15
    reference energy   = -35.0173
    reference variance = 0.733584
====================================================
  Execution time = 2.2501e+00
</vmc>
<opt stage="setup">
  <log>
   Reading configurations from h5FileRoot Ne.log.s003
  QMCCostFunction is created with 1 threads.
  Using Nonlocal PP in Opt: NonLocalECP
   Number of samples loaded to each thread : 250 
  VMC Eavg = -3.4988e+01
  VMC Evar = 6.9142e-01
  Total weights = 2.5600e+05
  Execution time = 6.2596e-01
  </log>
</opt>
<opt stage="main" walkers="256000">
  <log>

*****************************************
Building overlap and Hamiltonian matrices
*****************************************

Among totally 30 optimized parameters, largest LM parameter change : 5.0336e-02 at parameter 29

******************************************************************************
Init Cost =   6.9142e-01    New Cost =   7.0600e-01  Delta Cost =   1.4583e-02
******************************************************************************

The new set of parameters is valid. Updating the trial wave function!

*****************************************************************************
Applying the update for shift_i =   1.0000e-02     and shift_s =   1.5625e-02
*****************************************************************************
  Execution time = 3.4516e+00
  </log>
  <optVariables href="Ne.log.s003.opt.xml">
uu_0 2.3085e-01 1 1  ON 0
uu_1 1.4433e-01 1 1  ON 1
uu_2 7.8183e-02 1 1  ON 2
uu_3 2.8995e-02 1 1  ON 3
uu_4 -6.1394e-03 1 1  ON 4
uu_5 -2.9683e-02 1 1  ON 5
uu_6 -4.2700e-02 1 1  ON 6
uu_7 -4.7020e-02 1 1  ON 7
uu_8 -4.0957e-02 1 1  ON 8
uu_9 -3.0908e-02 1 1  ON 9
ud_0 3.3748e-01 1 1  ON 10
ud_1 1.8452e-01 1 1  ON 11
ud_2 8.9982e-02 1 1  ON 12
ud_3 2.7743e-02 1 1  ON 13
ud_4 -1.3436e-02 1 1  ON 14
ud_5 -3.9481e-02 1 1  ON 15
ud_6 -5.3969e-02 1 1  ON 16
ud_7 -5.8824e-02 1 1  ON 17
ud_8 -5.2127e-02 1 1  ON 18
ud_9 -3.8651e-02 1 1  ON 19
eNe_0 -6.0735e-01 1 1  ON 20
eNe_1 -4.8629e-01 1 1  ON 21
eNe_2 -2.5601e-01 1 1  ON 22
eNe_3 -3.0124e-02 1 1  ON 23
eNe_4 1.4505e-01 1 1  ON 24
eNe_5 2.6030e-01 1 1  ON 25
eNe_6 3.1374e-01 1 1  ON 26
eNe_7 3.0841e-01 1 1  ON 27
eNe_8 2.4531e-01 1 1  ON 28
eNe_9 1.3844e-01 1 1  ON 29
  </optVariables>
   Restore the number of walkers to 1, removing 0 walkers.
</opt>
</optimization-report>
  QMC Execution time = 3.4604e+00 secs
  Reusing QMCFixedSampleLinearOptimize
 Using QMCCostFunction::QMCCostFunction

=========================================================
  Start QMCFixedSampleLinearOptimize
  File Root Ne.log.s004 append = no 
=========================================================
  Skip QMCDriver::putQMCInfo 
  Resetting Properties of the walkers 1 x 13

=========================================================
  Start VMC
  File Root Ne.log.s004 append = no 
=========================================================
Using existing walkers 
  Resetting Properties of the walkers 1 x 13

<vmc function="put">
  qmc_counter=3  my_counter=3
  time step      = 1.5000e-01
  blocks         = 200
  steps          = 2
  substeps       = 5
  current        = 0
  target samples = 2.5600e+05
  walkers/mpi    = 1

  stepsbetweensamples = 1
<parameter name="blocks" condition="int">200</parameter>
<parameter name="blocks_between_recompute" condition="int">0</parameter>
<parameter name="check_properties" condition="int">100</parameter>
<parameter name="checkproperties" condition="int">100</parameter>
<parameter name="current" condition="int">0</parameter>
<parameter name="dmcwalkersperthread" condition="real">2.5000e+02</parameter>
<parameter name="maxcpusecs" condition="real">3.6000e+05</parameter>
<parameter name="record_configs" condition="int">0</parameter>
<parameter name="record_walkers" condition="int">1</parameter>
<parameter name="recordconfigs" condition="int">0</parameter>
<parameter name="recordwalkers" condition="int">1</parameter>
<parameter name="rewind" condition="int">0</parameter>
<parameter name="samples" condition="real">2.5600e+05</parameter>
<parameter name="samplesperthread" condition="real">2.5000e+02</parameter>
<parameter name="steps" condition="int">2</parameter>
<parameter name="stepsbetweensamples" condition="int">1</parameter>
<parameter name="store_configs" condition="int">0</parameter>
<parameter name="storeconfigs" condition="int">0</parameter>
<parameter name="sub_steps" condition="int">5</parameter>
<parameter name="substeps" condition="int">5</parameter>
<parameter name="tau" condition="au">1.5000e-01</parameter>
<parameter name="time_step" condition="au">1.5000e-01</parameter>
<parameter name="timestep" condition="au">1.5000e-01</parameter>
<parameter name="use_drift" condition="string">no</parameter>
<parameter name="usedrift" condition="string">no</parameter>
<parameter name="walkers" condition="int">1</parameter>
<parameter name="warmup_steps" condition="int">0</parameter>
<parameter name="warmupsteps" condition="int">0</parameter>
  DumpConfig==false Nothing (configurations, state) will be saved.
  Walker Samples are dumped every 1 steps.
</vmc>
  EstimatorManagerBase::add replace LocalEnergy estimator.
  EstimatorManagerBase::add replace LocalEnergy estimator.
<optimization-report>
<vmc stage="main" blocks="200">
  Cannot make clones again. Use existing 1 clones
  Initial partition of walkers 0 1 
  Using Particle by Particle moves
  Walker moves without drift
  Total Sample Size   =256000
  Walker distribution on root = 0 1 
  Using Locality Approximation
===== Memory Usage after the buffer registration =====
Available memory on node 0, free + buffers : 84775 MB
Memory footprint by rank 0 on node 0       : 78 MB
==================================================
====================================================
  SimpleFixedNodeBranch::finalize after a VMC block
    QMC counter        = 4
    time step          = 0.15
    reference energy   = -35.0352
    reference variance = 0.760909
====================================================
  Execution time = 2.1835e+00
</vmc>
<opt stage="setup">
  <log>
   Reading configurations from h5FileRoot Ne.log.s004
  QMCCostFunction is created with 1 threads.
  Using Nonlocal PP in Opt: NonLocalECP
   Number of samples loaded to each thread : 250 
  VMC Eavg = -3.4987e+01
  VMC Evar = 7.2099e-01
  Total weights = 2.5600e+05
  Execution time = 5.8235e-01
  </log>
</opt>
<opt stage="main" walkers="256000">
  <log>

*****************************************
Building overlap and Hamiltonian matrices
*****************************************

Among totally 30 optimized parameters, largest LM parameter change : 2.8235e-02 at parameter 29

******************************************************************************
Init Cost =   7.2099e-01    New Cost =   7.2819e-01  Delta Cost =   7.2078e-03
******************************************************************************

The new set of parameters is valid. Updating the trial wave function!

*****************************************************************************
Applying the update for shift_i =   1.0000e-02     and shift_s =   3.9062e-03
*****************************************************************************
  Execution time = 3.3547e+00
  </log>
  <optVariables href="Ne.log.s004.opt.xml">
uu_0 2.4029e-01 1 1  ON 0
uu_1 1.5427e-01 1 1  ON 1
uu_2 8.7542e-02 1 1  ON 2
uu_3 3.7727e-02 1 1  ON 3
uu_4 2.0096e-03 1 1  ON 4
uu_5 -2.2626e-02 1 1  ON 5
uu_6 -3.7057e-02 1 1  ON 6
uu_7 -4.3005e-02 1 1  ON 7
uu_8 -3.9885e-02 1 1  ON 8
uu_9 -2.9754e-02 1 1  ON 9
ud_0 3.5027e-01 1 1  ON 10
ud_1 1.9683e-01 1 1  ON 11
ud_2 1.0175e-01 1 1  ON 12
ud_3 3.8918e-02 1 1  ON 13
ud_4 -3.2097e-03 1 1  ON 14
ud_5 -3.0332e-02 1 1  ON 15
ud_6 -4.5595e-02 1 1  ON 16
ud_7 -5.0699e-02 1 1  ON 17
ud_8 -4.5507e-02 1 1  ON 18
ud_9 -3.4241e-02 1 1  ON 19
eNe_0 -6.3313e-01 1 1  ON 20
eNe_1 -5.1116e-01 1 1  ON 21
eNe_2 -2.7843e-01 1 1  ON 22
eNe_3 -4.8224e-02 1 1  ON 23
eNe_4 1.3406e-01 1 1  ON 24
eNe_5 2.5639e-01 1 1  ON 25
eNe_6 3.1971e-01 1 1  ON 26
eNe_7 3.2301e-01 1 1  ON 27
eNe_8 2.6796e-01 1 1  ON 28
eNe_9 1.6668e-01 1 1  ON 29
  </optVariables>
   Restore the number of walkers to 1, removing 0 walkers.
</opt>
</optimization-report>
  QMC Execution time = 3.3630e+00 secs
  Reusing QMCFixedSampleLinearOptimize
 Using QMCCostFunction::QMCCostFunction

=========================================================
  Start QMCFixedSampleLinearOptimize
  File Root Ne.log.s005 append = no 
=========================================================
  Skip QMCDriver::putQMCInfo 
  Resetting Properties of the walkers 1 x 13

=========================================================
  Start VMC
  File Root Ne.log.s005 append = no 
=========================================================
Using existing walkers 
  Resetting Properties of the walkers 1 x 13

<vmc function="put">
  qmc_counter=4  my_counter=4
  time step      = 1.5000e-01
  blocks         = 200
  steps          = 2
  substeps       = 5
  current        = 0
  target samples = 2.5600e+05
  walkers/mpi    = 1

  stepsbetweensamples = 1
<parameter name="blocks" condition="int">200</parameter>
<parameter name="blocks_between_recompute" condition="int">0</parameter>
<parameter name="check_properties" condition="int">100</parameter>
<parameter name="checkproperties" condition="int">100</parameter>
<parameter name="current" condition="int">0</parameter>
<parameter name="dmcwalkersperthread" condition="real">2.5000e+02</parameter>
<parameter name="maxcpusecs" condition="real">3.6000e+05</parameter>
<parameter name="record_configs" condition="int">0</parameter>
<parameter name="record_walkers" condition="int">1</parameter>
<parameter name="recordconfigs" condition="int">0</parameter>
<parameter name="recordwalkers" condition="int">1</parameter>
<parameter name="rewind" condition="int">0</parameter>
<parameter name="samples" condition="real">2.5600e+05</parameter>
<parameter name="samplesperthread" condition="real">2.5000e+02</parameter>
<parameter name="steps" condition="int">2</parameter>
<parameter name="stepsbetweensamples" condition="int">1</parameter>
<parameter name="store_configs" condition="int">0</parameter>
<parameter name="storeconfigs" condition="int">0</parameter>
<parameter name="sub_steps" condition="int">5</parameter>
<parameter name="substeps" condition="int">5</parameter>
<parameter name="tau" condition="au">1.5000e-01</parameter>
<parameter name="time_step" condition="au">1.5000e-01</parameter>
<parameter name="timestep" condition="au">1.5000e-01</parameter>
<parameter name="use_drift" condition="string">no</parameter>
<parameter name="usedrift" condition="string">no</parameter>
<parameter name="walkers" condition="int">1</parameter>
<parameter name="warmup_steps" condition="int">0</parameter>
<parameter name="warmupsteps" condition="int">0</parameter>
  DumpConfig==false Nothing (configurations, state) will be saved.
  Walker Samples are dumped every 1 steps.
</vmc>
  EstimatorManagerBase::add replace LocalEnergy estimator.
  EstimatorManagerBase::add replace LocalEnergy estimator.
<optimization-report>
<vmc stage="main" blocks="200">
  Cannot make clones again. Use existing 1 clones
  Initial partition of walkers 0 1 
  Using Particle by Particle moves
  Walker moves without drift
  Total Sample Size   =256000
  Walker distribution on root = 0 1 
  Using Locality Approximation
===== Memory Usage after the buffer registration =====
Available memory on node 0, free + buffers : 84773 MB
Memory footprint by rank 0 on node 0       : 80 MB
==================================================
====================================================
  SimpleFixedNodeBranch::finalize after a VMC block
    QMC counter        = 5
    time step          = 0.15
    reference energy   = -35.0282
    reference variance = 0.922989
====================================================
  Execution time = 2.2098e+00
</vmc>
<opt stage="setup">
  <log>
   Reading configurations from h5FileRoot Ne.log.s005
  QMCCostFunction is created with 1 threads.
  Using Nonlocal PP in Opt: NonLocalECP
   Number of samples loaded to each thread : 250 
  VMC Eavg = -3.4987e+01
  VMC Evar = 7.2615e-01
  Total weights = 2.5600e+05
  Execution time = 5.8825e-01
  </log>
</opt>
<opt stage="main" walkers="256000">
  <log>

*****************************************
Building overlap and Hamiltonian matrices
*****************************************

Among totally 30 optimized parameters, largest LM parameter change : 1.4794e-02 at parameter 24

******************************************************************************
Init Cost =   7.2615e-01    New Cost =   7.2507e-01  Delta Cost =  -1.0832e-03
******************************************************************************

The new set of parameters is valid. Updating the trial wave function!

*****************************************************************************
Applying the update for shift_i =   1.0000e-02     and shift_s =   3.9062e-03
*****************************************************************************
  Execution time = 3.3946e+00
  </log>
  <optVariables href="Ne.log.s005.opt.xml">
uu_0 2.4008e-01 1 1  ON 0
uu_1 1.5400e-01 1 1  ON 1
uu_2 8.7225e-02 1 1  ON 2
uu_3 3.7426e-02 1 1  ON 3
uu_4 1.6327e-03 1 1  ON 4
uu_5 -2.2951e-02 1 1  ON 5
uu_6 -3.7745e-02 1 1  ON 6
uu_7 -4.4309e-02 1 1  ON 7
uu_8 -4.1310e-02 1 1  ON 8
uu_9 -3.2045e-02 1 1  ON 9
ud_0 3.4993e-01 1 1  ON 10
ud_1 1.9660e-01 1 1  ON 11
ud_2 1.0174e-01 1 1  ON 12
ud_3 3.9077e-02 1 1  ON 13
ud_4 -3.1001e-03 1 1  ON 14
ud_5 -3.0271e-02 1 1  ON 15
ud_6 -4.5252e-02 1 1  ON 16
ud_7 -5.1181e-02 1 1  ON 17
ud_8 -4.5703e-02 1 1  ON 18
ud_9 -3.5886e-02 1 1  ON 19
eNe_0 -6.4792e-01 1 1  ON 20
eNe_1 -5.2573e-01 1 1  ON 21
eNe_2 -2.9271e-01 1 1  ON 22
eNe_3 -6.2652e-02 1 1  ON 23
eNe_4 1.1927e-01 1 1  ON 24
eNe_5 2.4453e-01 1 1  ON 25
eNe_6 3.1004e-01 1 1  ON 26
eNe_7 3.1727e-01 1 1  ON 27
eNe_8 2.6910e-01 1 1  ON 28
eNe_9 1.7560e-01 1 1  ON 29
  </optVariables>
   Restore the number of walkers to 1, removing 0 walkers.
</opt>
</optimization-report>
  QMC Execution time = 3.4024e+00 secs
Loop execution max-interations = 5
  Reusing QMCFixedSampleLinearOptimize
 Using QMCCostFunction::QMCCostFunction

=========================================================
  Start QMCFixedSampleLinearOptimize
  File Root Ne.log.s006 append = no 
=========================================================
  Skip QMCDriver::putQMCInfo 
  Resetting Properties of the walkers 1 x 13

=========================================================
  Start VMC
  File Root Ne.log.s006 append = no 
=========================================================
  Using the current 1 walkers.
  Total number of walkers: 1.0240e+03
  Total weight: 1.0240e+03
  Resetting Properties of the walkers 1 x 13

<vmc function="put">
  qmc_counter=0  my_counter=5
  time step      = 1.5000e-01
  blocks         = 200
  steps          = 2
  substeps       = 5
  current        = 0
  target samples = 2.5600e+05
  walkers/mpi    = 1

  stepsbetweensamples = 1
<parameter name="blocks" condition="int">200</parameter>
<parameter name="blocks_between_recompute" condition="int">0</parameter>
<parameter name="check_properties" condition="int">100</parameter>
<parameter name="checkproperties" condition="int">100</parameter>
<parameter name="current" condition="int">0</parameter>
<parameter name="dmcwalkersperthread" condition="real">2.5000e+02</parameter>
<parameter name="maxcpusecs" condition="real">3.6000e+05</parameter>
<parameter name="record_configs" condition="int">0</parameter>
<parameter name="record_walkers" condition="int">1</parameter>
<parameter name="recordconfigs" condition="int">0</parameter>
<parameter name="recordwalkers" condition="int">1</parameter>
<parameter name="rewind" condition="int">0</parameter>
<parameter name="samples" condition="real">2.5600e+05</parameter>
<parameter name="samplesperthread" condition="real">2.5000e+02</parameter>
<parameter name="steps" condition="int">2</parameter>
<parameter name="stepsbetweensamples" condition="int">1</parameter>
<parameter name="store_configs" condition="int">0</parameter>
<parameter name="storeconfigs" condition="int">0</parameter>
<parameter name="sub_steps" condition="int">5</parameter>
<parameter name="substeps" condition="int">5</parameter>
<parameter name="tau" condition="au">1.5000e-01</parameter>
<parameter name="time_step" condition="au">1.5000e-01</parameter>
<parameter name="timestep" condition="au">1.5000e-01</parameter>
<parameter name="use_drift" condition="string">no</parameter>
<parameter name="usedrift" condition="string">no</parameter>
<parameter name="walkers" condition="int">1</parameter>
<parameter name="warmup_steps" condition="int">0</parameter>
<parameter name="warmupsteps" condition="int">0</parameter>
  DumpConfig==false Nothing (configurations, state) will be saved.
  Walker Samples are dumped every 1 steps.
</vmc>
  EstimatorManagerBase::add replace LocalEnergy estimator.
  EstimatorManagerBase::add replace LocalEnergy estimator.
<optimization-report>
<vmc stage="main" blocks="200">
  Cannot make clones again. Use existing 1 clones
  Initial partition of walkers 0 1 
  Using Particle by Particle moves
  Walker moves without drift
  Total Sample Size   =256000
  Walker distribution on root = 0 1 
  Using Locality Approximation
===== Memory Usage after the buffer registration =====
Available memory on node 0, free + buffers : 84771 MB
Memory footprint by rank 0 on node 0       : 81 MB
==================================================
====================================================
  SimpleFixedNodeBranch::finalize after a VMC block
    QMC counter        = 6
    time step          = 0.15
    reference energy   = -34.9708
    reference variance = 1.12358
====================================================
  Execution time = 2.2182e+00
</vmc>
<opt stage="setup">
  <log>
   Reading configurations from h5FileRoot Ne.log.s006
  QMCCostFunction is created with 1 threads.
  Using Nonlocal PP in Opt: NonLocalECP
   Number of samples loaded to each thread : 250 
  VMC Eavg = -3.4985e+01
  VMC Evar = 7.4205e-01
  Total weights = 2.5600e+05
  Execution time = 5.9648e-01
  </log>
</opt>
<opt stage="main" walkers="256000">
  <log>

*****************************************
Building overlap and Hamiltonian matrices
*****************************************

Among totally 30 optimized parameters, largest LM parameter change : 3.7604e+01 at parameter 20

******************************************************************************
Init Cost =   7.4205e-01    New Cost =   1.5130e+03  Delta Cost =   1.5123e+03
******************************************************************************

The new set of parameters is not valid. Revert to the old set!

*****************************************************************************
Applying the update for shift_i =   1.0000e-02     and shift_s =   1.5625e-02
*****************************************************************************
  Execution time = 2.9368e+00
  </log>
  <optVariables href="Ne.log.s006.opt.xml">
uu_0 2.4008e-01 1 1  ON 0
uu_1 1.5400e-01 1 1  ON 1
uu_2 8.7225e-02 1 1  ON 2
uu_3 3.7426e-02 1 1  ON 3
uu_4 1.6327e-03 1 1  ON 4
uu_5 -2.2951e-02 1 1  ON 5
uu_6 -3.7745e-02 1 1  ON 6
uu_7 -4.4309e-02 1 1  ON 7
uu_8 -4.1310e-02 1 1  ON 8
uu_9 -3.2045e-02 1 1  ON 9
ud_0 3.4993e-01 1 1  ON 10
ud_1 1.9660e-01 1 1  ON 11
ud_2 1.0174e-01 1 1  ON 12
ud_3 3.9077e-02 1 1  ON 13
ud_4 -3.1001e-03 1 1  ON 14
ud_5 -3.0271e-02 1 1  ON 15
ud_6 -4.5252e-02 1 1  ON 16
ud_7 -5.1181e-02 1 1  ON 17
ud_8 -4.5703e-02 1 1  ON 18
ud_9 -3.5886e-02 1 1  ON 19
eNe_0 -6.4792e-01 1 1  ON 20
eNe_1 -5.2573e-01 1 1  ON 21
eNe_2 -2.9271e-01 1 1  ON 22
eNe_3 -6.2652e-02 1 1  ON 23
eNe_4 1.1927e-01 1 1  ON 24
eNe_5 2.4453e-01 1 1  ON 25
eNe_6 3.1004e-01 1 1  ON 26
eNe_7 3.1727e-01 1 1  ON 27
eNe_8 2.6910e-01 1 1  ON 28
eNe_9 1.7560e-01 1 1  ON 29
  </optVariables>
   Restore the number of walkers to 1, removing 0 walkers.
</opt>
</optimization-report>
  QMC Execution time = 2.9450e+00 secs
  Reusing QMCFixedSampleLinearOptimize
 Using QMCCostFunction::QMCCostFunction

=========================================================
  Start QMCFixedSampleLinearOptimize
  File Root Ne.log.s007 append = no 
=========================================================
  Skip QMCDriver::putQMCInfo 
  Resetting Properties of the walkers 1 x 13

=========================================================
  Start VMC
  File Root Ne.log.s007 append = no 
=========================================================
Using existing walkers 
  Resetting Properties of the walkers 1 x 13

<vmc function="put">
  qmc_counter=1  my_counter=6
  time step      = 1.5000e-01
  blocks         = 200
  steps          = 2
  substeps       = 5
  current        = 0
  target samples = 2.5600e+05
  walkers/mpi    = 1

  stepsbetweensamples = 1
<parameter name="blocks" condition="int">200</parameter>
<parameter name="blocks_between_recompute" condition="int">0</parameter>
<parameter name="check_properties" condition="int">100</parameter>
<parameter name="checkproperties" condition="int">100</parameter>
<parameter name="current" condition="int">0</parameter>
<parameter name="dmcwalkersperthread" condition="real">2.5000e+02</parameter>
<parameter name="maxcpusecs" condition="real">3.6000e+05</parameter>
<parameter name="record_configs" condition="int">0</parameter>
<parameter name="record_walkers" condition="int">1</parameter>
<parameter name="recordconfigs" condition="int">0</parameter>
<parameter name="recordwalkers" condition="int">1</parameter>
<parameter name="rewind" condition="int">0</parameter>
<parameter name="samples" condition="real">2.5600e+05</parameter>
<parameter name="samplesperthread" condition="real">2.5000e+02</parameter>
<parameter name="steps" condition="int">2</parameter>
<parameter name="stepsbetweensamples" condition="int">1</parameter>
<parameter name="store_configs" condition="int">0</parameter>
<parameter name="storeconfigs" condition="int">0</parameter>
<parameter name="sub_steps" condition="int">5</parameter>
<parameter name="substeps" condition="int">5</parameter>
<parameter name="tau" condition="au">1.5000e-01</parameter>
<parameter name="time_step" condition="au">1.5000e-01</parameter>
<parameter name="timestep" condition="au">1.5000e-01</parameter>
<parameter name="use_drift" condition="string">no</parameter>
<parameter name="usedrift" condition="string">no</parameter>
<parameter name="walkers" condition="int">1</parameter>
<parameter name="warmup_steps" condition="int">0</parameter>
<parameter name="warmupsteps" condition="int">0</parameter>
  DumpConfig==false Nothing (configurations, state) will be saved.
  Walker Samples are dumped every 1 steps.
</vmc>
  EstimatorManagerBase::add replace LocalEnergy estimator.
  EstimatorManagerBase::add replace LocalEnergy estimator.
<optimization-report>
<vmc stage="main" blocks="200">
  Cannot make clones again. Use existing 1 clones
  Initial partition of walkers 0 1 
  Using Particle by Particle moves
  Walker moves without drift
  Total Sample Size   =256000
  Walker distribution on root = 0 1 
  Using Locality Approximation
===== Memory Usage after the buffer registration =====
Available memory on node 0, free + buffers : 84769 MB
Memory footprint by rank 0 on node 0       : 83 MB
==================================================
====================================================
  SimpleFixedNodeBranch::finalize after a VMC block
    QMC counter        = 7
    time step          = 0.15
    reference energy   = -34.9935
    reference variance = 0.892577
====================================================
  Execution time = 2.2006e+00
</vmc>
<opt stage="setup">
  <log>
   Reading configurations from h5FileRoot Ne.log.s007
  QMCCostFunction is created with 1 threads.
  Using Nonlocal PP in Opt: NonLocalECP
   Number of samples loaded to each thread : 250 
  VMC Eavg = -3.4986e+01
  VMC Evar = 7.2141e-01
  Total weights = 2.5600e+05
  Execution time = 5.9912e-01
  </log>
</opt>
<opt stage="main" walkers="256000">
  <log>

*****************************************
Building overlap and Hamiltonian matrices
*****************************************

Among totally 30 optimized parameters, largest LM parameter change : 1.1435e-02 at parameter 26

******************************************************************************
Init Cost =   7.2141e-01    New Cost =   7.2490e-01  Delta Cost =   3.4850e-03
******************************************************************************

The new set of parameters is valid. Updating the trial wave function!

*****************************************************************************
Applying the update for shift_i =   1.0000e-02     and shift_s =   3.9062e-03
*****************************************************************************
  Execution time = 3.3990e+00
  </log>
  <optVariables href="Ne.log.s007.opt.xml">
uu_0 2.4685e-01 1 1  ON 0
uu_1 1.5949e-01 1 1  ON 1
uu_2 9.2784e-02 1 1  ON 2
uu_3 4.3021e-02 1 1  ON 3
uu_4 7.3251e-03 1 1  ON 4
uu_5 -1.7423e-02 1 1  ON 5
uu_6 -3.2802e-02 1 1  ON 6
uu_7 -3.9783e-02 1 1  ON 7
uu_8 -3.8091e-02 1 1  ON 8
uu_9 -3.0003e-02 1 1  ON 9
ud_0 3.5006e-01 1 1  ON 10
ud_1 1.9630e-01 1 1  ON 11
ud_2 1.0116e-01 1 1  ON 12
ud_3 3.8114e-02 1 1  ON 13
ud_4 -4.1239e-03 1 1  ON 14
ud_5 -3.1624e-02 1 1  ON 15
ud_6 -4.6871e-02 1 1  ON 16
ud_7 -5.2061e-02 1 1  ON 17
ud_8 -4.6745e-02 1 1  ON 18
ud_9 -3.5500e-02 1 1  ON 19
eNe_0 -6.5924e-01 1 1  ON 20
eNe_1 -5.3622e-01 1 1  ON 21
eNe_2 -3.0341e-01 1 1  ON 22
eNe_3 -7.3039e-02 1 1  ON 23
eNe_4 1.0936e-01 1 1  ON 24
eNe_5 2.3339e-01 1 1  ON 25
eNe_6 2.9860e-01 1 1  ON 26
eNe_7 3.1061e-01 1 1  ON 27
eNe_8 2.6924e-01 1 1  ON 28
eNe_9 1.8008e-01 1 1  ON 29
  </optVariables>
   Restore the number of walkers to 1, removing 0 walkers.
</opt>
</optimization-report>
  QMC Execution time = 3.4069e+00 secs
  Reusing QMCFixedSampleLinearOptimize
 Using QMCCostFunction::QMCCostFunction

=========================================================
  Start QMCFixedSampleLinearOptimize
  File Root Ne.log.s008 append = no 
=========================================================
  Skip QMCDriver::putQMCInfo 
  Resetting Properties of the walkers 1 x 13

=========================================================
  Start VMC
  File Root Ne.log.s008 append = no 
=========================================================
Using existing walkers 
  Resetting Properties of the walkers 1 x 13

<vmc function="put">
  qmc_counter=2  my_counter=7
  time step      = 1.5000e-01
  blocks         = 200
  steps          = 2
  substeps       = 5
  current        = 0
  target samples = 2.5600e+05
  walkers/mpi    = 1

  stepsbetweensamples = 1
<parameter name="blocks" condition="int">200</parameter>
<parameter name="blocks_between_recompute" condition="int">0</parameter>
<parameter name="check_properties" condition="int">100</parameter>
<parameter name="checkproperties" condition="int">100</parameter>
<parameter name="current" condition="int">0</parameter>
<parameter name="dmcwalkersperthread" condition="real">2.5000e+02</parameter>
<parameter name="maxcpusecs" condition="real">3.6000e+05</parameter>
<parameter name="record_configs" condition="int">0</parameter>
<parameter name="record_walkers" condition="int">1</parameter>
<parameter name="recordconfigs" condition="int">0</parameter>
<parameter name="recordwalkers" condition="int">1</parameter>
<parameter name="rewind" condition="int">0</parameter>
<parameter name="samples" condition="real">2.5600e+05</parameter>
<parameter name="samplesperthread" condition="real">2.5000e+02</parameter>
<parameter name="steps" condition="int">2</parameter>
<parameter name="stepsbetweensamples" condition="int">1</parameter>
<parameter name="store_configs" condition="int">0</parameter>
<parameter name="storeconfigs" condition="int">0</parameter>
<parameter name="sub_steps" condition="int">5</parameter>
<parameter name="substeps" condition="int">5</parameter>
<parameter name="tau" condition="au">1.5000e-01</parameter>
<parameter name="time_step" condition="au">1.5000e-01</parameter>
<parameter name="timestep" condition="au">1.5000e-01</parameter>
<parameter name="use_drift" condition="string">no</parameter>
<parameter name="usedrift" condition="string">no</parameter>
<parameter name="walkers" condition="int">1</parameter>
<parameter name="warmup_steps" condition="int">0</parameter>
<parameter name="warmupsteps" condition="int">0</parameter>
  DumpConfig==false Nothing (configurations, state) will be saved.
  Walker Samples are dumped every 1 steps.
</vmc>
  EstimatorManagerBase::add replace LocalEnergy estimator.
  EstimatorManagerBase::add replace LocalEnergy estimator.
<optimization-report>
<vmc stage="main" blocks="200">
  Cannot make clones again. Use existing 1 clones
  Initial partition of walkers 0 1 
  Using Particle by Particle moves
  Walker moves without drift
  Total Sample Size   =256000
  Walker distribution on root = 0 1 
  Using Locality Approximation
===== Memory Usage after the buffer registration =====
Available memory on node 0, free + buffers : 84767 MB
Memory footprint by rank 0 on node 0       : 85 MB
==================================================
====================================================
  SimpleFixedNodeBranch::finalize after a VMC block
    QMC counter        = 8
    time step          = 0.15
    reference energy   = -34.9968
    reference variance = 0.601742
====================================================
  Execution time = 2.1974e+00
</vmc>
<opt stage="setup">
  <log>
   Reading configurations from h5FileRoot Ne.log.s008
  QMCCostFunction is created with 1 threads.
  Using Nonlocal PP in Opt: NonLocalECP
   Number of samples loaded to each thread : 250 
  VMC Eavg = -3.4987e+01
  VMC Evar = 7.2183e-01
  Total weights = 2.5600e+05
  Execution time = 6.0067e-01
  </log>
</opt>
<opt stage="main" walkers="256000">
  <log>

*****************************************
Building overlap and Hamiltonian matrices
*****************************************

Among totally 30 optimized parameters, largest LM parameter change : 1.3630e-02 at parameter 28

******************************************************************************
Init Cost =   7.2183e-01    New Cost =   7.1992e-01  Delta Cost =  -1.9014e-03
******************************************************************************

The new set of parameters is valid. Updating the trial wave function!

*****************************************************************************
Applying the update for shift_i =   1.0000e-02     and shift_s =   3.9062e-03
*****************************************************************************
  Execution time = 3.4121e+00
  </log>
  <optVariables href="Ne.log.s008.opt.xml">
uu_0 2.5206e-01 1 1  ON 0
uu_1 1.6524e-01 1 1  ON 1
uu_2 9.8248e-02 1 1  ON 2
uu_3 4.8327e-02 1 1  ON 3
uu_4 1.2444e-02 1 1  ON 4
uu_5 -1.2546e-02 1 1  ON 5
uu_6 -2.8471e-02 1 1  ON 6
uu_7 -3.5459e-02 1 1  ON 7
uu_8 -3.4753e-02 1 1  ON 8
uu_9 -2.7606e-02 1 1  ON 9
ud_0 3.5601e-01 1 1  ON 10
ud_1 2.0313e-01 1 1  ON 11
ud_2 1.0798e-01 1 1  ON 12
ud_3 4.4696e-02 1 1  ON 13
ud_4 2.3713e-03 1 1  ON 14
ud_5 -2.5193e-02 1 1  ON 15
ud_6 -4.0924e-02 1 1  ON 16
ud_7 -4.6846e-02 1 1  ON 17
ud_8 -4.1560e-02 1 1  ON 18
ud_9 -3.1199e-02 1 1  ON 19
eNe_0 -6.6549e-01 1 1  ON 20
eNe_1 -5.4205e-01 1 1  ON 21
eNe_2 -3.0887e-01 1 1  ON 22
eNe_3 -7.7521e-02 1 1  ON 23
eNe_4 1.0586e-01 1 1  ON 24
eNe_5 2.3170e-01 1 1  ON 25
eNe_6 2.9628e-01 1 1  ON 26
eNe_7 3.0658e-01 1 1  ON 27
eNe_8 2.5561e-01 1 1  ON 28
eNe_9 1.7098e-01 1 1  ON 29
  </optVariables>
   Restore the number of walkers to 1, removing 0 walkers.
</opt>
</optimization-report>
  QMC Execution time = 3.4366e+00 secs
  Reusing QMCFixedSampleLinearOptimize
 Using QMCCostFunction::QMCCostFunction

=========================================================
  Start QMCFixedSampleLinearOptimize
  File Root Ne.log.s009 append = no 
=========================================================
  Skip QMCDriver::putQMCInfo 
  Resetting Properties of the walkers 1 x 13

=========================================================
  Start VMC
  File Root Ne.log.s009 append = no 
=========================================================
Using existing walkers 
  Resetting Properties of the walkers 1 x 13

<vmc function="put">
  qmc_counter=3  my_counter=8
  time step      = 1.5000e-01
  blocks         = 200
  steps          = 2
  substeps       = 5
  current        = 0
  target samples = 2.5600e+05
  walkers/mpi    = 1

  stepsbetweensamples = 1
<parameter name="blocks" condition="int">200</parameter>
<parameter name="blocks_between_recompute" condition="int">0</parameter>
<parameter name="check_properties" condition="int">100</parameter>
<parameter name="checkproperties" condition="int">100</parameter>
<parameter name="current" condition="int">0</parameter>
<parameter name="dmcwalkersperthread" condition="real">2.5000e+02</parameter>
<parameter name="maxcpusecs" condition="real">3.6000e+05</parameter>
<parameter name="record_configs" condition="int">0</parameter>
<parameter name="record_walkers" condition="int">1</parameter>
<parameter name="recordconfigs" condition="int">0</parameter>
<parameter name="recordwalkers" condition="int">1</parameter>
<parameter name="rewind" condition="int">0</parameter>
<parameter name="samples" condition="real">2.5600e+05</parameter>
<parameter name="samplesperthread" condition="real">2.5000e+02</parameter>
<parameter name="steps" condition="int">2</parameter>
<parameter name="stepsbetweensamples" condition="int">1</parameter>
<parameter name="store_configs" condition="int">0</parameter>
<parameter name="storeconfigs" condition="int">0</parameter>
<parameter name="sub_steps" condition="int">5</parameter>
<parameter name="substeps" condition="int">5</parameter>
<parameter name="tau" condition="au">1.5000e-01</parameter>
<parameter name="time_step" condition="au">1.5000e-01</parameter>
<parameter name="timestep" condition="au">1.5000e-01</parameter>
<parameter name="use_drift" condition="string">no</parameter>
<parameter name="usedrift" condition="string">no</parameter>
<parameter name="walkers" condition="int">1</parameter>
<parameter name="warmup_steps" condition="int">0</parameter>
<parameter name="warmupsteps" condition="int">0</parameter>
  DumpConfig==false Nothing (configurations, state) will be saved.
  Walker Samples are dumped every 1 steps.
</vmc>
  EstimatorManagerBase::add replace LocalEnergy estimator.
  EstimatorManagerBase::add replace LocalEnergy estimator.
<optimization-report>
<vmc stage="main" blocks="200">
  Cannot make clones again. Use existing 1 clones
  Initial partition of walkers 0 1 
  Using Particle by Particle moves
  Walker moves without drift
  Total Sample Size   =256000
  Walker distribution on root = 0 1 
  Using Locality Approximation
===== Memory Usage after the buffer registration =====
Available memory on node 0, free + buffers : 84765 MB
Memory footprint by rank 0 on node 0       : 87 MB
==================================================
====================================================
  SimpleFixedNodeBranch::finalize after a VMC block
    QMC counter        = 9
    time step          = 0.15
    reference energy   = -34.9535
    reference variance = 0.814335
====================================================
  Execution time = 2.2032e+00
</vmc>
<opt stage="setup">
  <log>
   Reading configurations from h5FileRoot Ne.log.s009
  QMCCostFunction is created with 1 threads.
  Using Nonlocal PP in Opt: NonLocalECP
   Number of samples loaded to each thread : 250 
  VMC Eavg = -3.4987e+01
  VMC Evar = 7.1864e-01
  Total weights = 2.5600e+05
  Execution time = 6.1347e-01
  </log>
</opt>
<opt stage="main" walkers="256000">
  <log>

*****************************************
Building overlap and Hamiltonian matrices
*****************************************

Among totally 30 optimized parameters, largest LM parameter change : 1.1591e-02 at parameter 25

******************************************************************************
Init Cost =   7.1864e-01    New Cost =   7.1876e-01  Delta Cost =   1.2127e-04
******************************************************************************

The new set of parameters is valid. Updating the trial wave function!

*****************************************************************************
Applying the update for shift_i =   1.0000e-02     and shift_s =   3.9062e-03
*****************************************************************************
  Execution time = 3.4224e+00
  </log>
  <optVariables href="Ne.log.s009.opt.xml">
uu_0 2.5250e-01 1 1  ON 0
uu_1 1.6583e-01 1 1  ON 1
uu_2 9.8976e-02 1 1  ON 2
uu_3 4.9085e-02 1 1  ON 3
uu_4 1.2973e-02 1 1  ON 4
uu_5 -1.1751e-02 1 1  ON 5
uu_6 -2.6855e-02 1 1  ON 6
uu_7 -3.3628e-02 1 1  ON 7
uu_8 -3.1659e-02 1 1  ON 8
uu_9 -2.4416e-02 1 1  ON 9
ud_0 3.5466e-01 1 1  ON 10
ud_1 2.0128e-01 1 1  ON 11
ud_2 1.0616e-01 1 1  ON 12
ud_3 4.3021e-02 1 1  ON 13
ud_4 8.4399e-04 1 1  ON 14
ud_5 -2.6521e-02 1 1  ON 15
ud_6 -4.2182e-02 1 1  ON 16
ud_7 -4.7981e-02 1 1  ON 17
ud_8 -4.4120e-02 1 1  ON 18
ud_9 -3.3346e-02 1 1  ON 19
eNe_0 -6.7545e-01 1 1  ON 20
eNe_1 -5.5327e-01 1 1  ON 21
eNe_2 -3.1946e-01 1 1  ON 22
eNe_3 -8.8591e-02 1 1  ON 23
eNe_4 9.4603e-02 1 1  ON 24
eNe_5 2.2011e-01 1 1  ON 25
eNe_6 2.8670e-01 1 1  ON 26
eNe_7 2.9981e-01 1 1  ON 27
eNe_8 2.5754e-01 1 1  ON 28
eNe_9 1.7085e-01 1 1  ON 29
  </optVariables>
   Restore the number of walkers to 1, removing 0 walkers.
</opt>
</optimization-report>
  QMC Execution time = 3.4310e+00 secs
  Reusing QMCFixedSampleLinearOptimize
 Using QMCCostFunction::QMCCostFunction

=========================================================
  Start QMCFixedSampleLinearOptimize
  File Root Ne.log.s010 append = no 
=========================================================
  Skip QMCDriver::putQMCInfo 
  Resetting Properties of the walkers 1 x 13

=========================================================
  Start VMC
  File Root Ne.log.s010 append = no 
=========================================================
Using existing walkers 
  Resetting Properties of the walkers 1 x 13

<vmc function="put">
  qmc_counter=4  my_counter=9
  time step      = 1.5000e-01
  blocks         = 200
  steps          = 2
  substeps       = 5
  current        = 0
  target samples = 2.5600e+05
  walkers/mpi    = 1

  stepsbetweensamples = 1
<parameter name="blocks" condition="int">200</parameter>
<parameter name="blocks_between_recompute" condition="int">0</parameter>
<parameter name="check_properties" condition="int">100</parameter>
<parameter name="checkproperties" condition="int">100</parameter>
<parameter name="current" condition="int">0</parameter>
<parameter name="dmcwalkersperthread" condition="real">2.5000e+02</parameter>
<parameter name="maxcpusecs" condition="real">3.6000e+05</parameter>
<parameter name="record_configs" condition="int">0</parameter>
<parameter name="record_walkers" condition="int">1</parameter>
<parameter name="recordconfigs" condition="int">0</parameter>
<parameter name="recordwalkers" condition="int">1</parameter>
<parameter name="rewind" condition="int">0</parameter>
<parameter name="samples" condition="real">2.5600e+05</parameter>
<parameter name="samplesperthread" condition="real">2.5000e+02</parameter>
<parameter name="steps" condition="int">2</parameter>
<parameter name="stepsbetweensamples" condition="int">1</parameter>
<parameter name="store_configs" condition="int">0</parameter>
<parameter name="storeconfigs" condition="int">0</parameter>
<parameter name="sub_steps" condition="int">5</parameter>
<parameter name="substeps" condition="int">5</parameter>
<parameter name="tau" condition="au">1.5000e-01</parameter>
<parameter name="time_step" condition="au">1.5000e-01</parameter>
<parameter name="timestep" condition="au">1.5000e-01</parameter>
<parameter name="use_drift" condition="string">no</parameter>
<parameter name="usedrift" condition="string">no</parameter>
<parameter name="walkers" condition="int">1</parameter>
<parameter name="warmup_steps" condition="int">0</parameter>
<parameter name="warmupsteps" condition="int">0</parameter>
  DumpConfig==false Nothing (configurations, state) will be saved.
  Walker Samples are dumped every 1 steps.
</vmc>
  EstimatorManagerBase::add replace LocalEnergy estimator.
  EstimatorManagerBase::add replace LocalEnergy estimator.
<optimization-report>
<vmc stage="main" blocks="200">
  Cannot make clones again. Use existing 1 clones
  Initial partition of walkers 0 1 
  Using Particle by Particle moves
  Walker moves without drift
  Total Sample Size   =256000
  Walker distribution on root = 0 1 
  Using Locality Approximation
===== Memory Usage after the buffer registration =====
Available memory on node 0, free + buffers : 84762 MB
Memory footprint by rank 0 on node 0       : 88 MB
==================================================
====================================================
  SimpleFixedNodeBranch::finalize after a VMC block
    QMC counter        = 10
    time step          = 0.15
    reference energy   = -34.9837
    reference variance = 0.765646
====================================================
  Execution time = 2.2017e+00
</vmc>
<opt stage="setup">
  <log>
   Reading configurations from h5FileRoot Ne.log.s010
  QMCCostFunction is created with 1 threads.
  Using Nonlocal PP in Opt: NonLocalECP
   Number of samples loaded to each thread : 250 
  VMC Eavg = -3.4987e+01
  VMC Evar = 7.1442e-01
  Total weights = 2.5600e+05
  Execution time = 6.0469e-01
  </log>
</opt>
<opt stage="main" walkers="256000">
  <log>

*****************************************
Building overlap and Hamiltonian matrices
*****************************************

Among totally 30 optimized parameters, largest LM parameter change : 1.0016e-02 at parameter 24

******************************************************************************
Init Cost =   7.1442e-01    New Cost =   7.1263e-01  Delta Cost =  -1.7830e-03
******************************************************************************

The new set of parameters is valid. Updating the trial wave function!

*****************************************************************************
Applying the update for shift_i =   1.0000e-02     and shift_s =   3.9062e-03
*****************************************************************************
  Execution time = 3.4151e+00
  </log>
  <optVariables href="Ne.log.s010.opt.xml">
uu_0 2.4913e-01 1 1  ON 0
uu_1 1.6315e-01 1 1  ON 1
uu_2 9.6272e-02 1 1  ON 2
uu_3 4.6365e-02 1 1  ON 3
uu_4 1.0052e-02 1 1  ON 4
uu_5 -1.5016e-02 1 1  ON 5
uu_6 -3.0680e-02 1 1  ON 6
uu_7 -3.7965e-02 1 1  ON 7
uu_8 -3.5012e-02 1 1  ON 8
uu_9 -2.7495e-02 1 1  ON 9
ud_0 3.5244e-01 1 1  ON 10
ud_1 1.9937e-01 1 1  ON 11
ud_2 1.0439e-01 1 1  ON 12
ud_3 4.1422e-02 1 1  ON 13
ud_4 -6.7179e-04 1 1  ON 14
ud_5 -2.7931e-02 1 1  ON 15
ud_6 -4.3423e-02 1 1  ON 16
ud_7 -4.8806e-02 1 1  ON 17
ud_8 -4.3492e-02 1 1  ON 18
ud_9 -3.2323e-02 1 1  ON 19
eNe_0 -6.8526e-01 1 1  ON 20
eNe_1 -5.6269e-01 1 1  ON 21
eNe_2 -3.2943e-01 1 1  ON 22
eNe_3 -9.8337e-02 1 1  ON 23
eNe_4 8.4587e-02 1 1  ON 24
eNe_5 2.1025e-01 1 1  ON 25
eNe_6 2.7752e-01 1 1  ON 26
eNe_7 2.9118e-01 1 1  ON 27
eNe_8 2.4985e-01 1 1  ON 28
eNe_9 1.7298e-01 1 1  ON 29
  </optVariables>
   Restore the number of walkers to 1, removing 0 walkers.
</opt>
</optimization-report>
  QMC Execution time = 3.4228e+00 secs
Loop execution max-interations = 10
  Reusing QMCFixedSampleLinearOptimize
 Using QMCCostFunction::QMCCostFunction

=========================================================
  Start QMCFixedSampleLinearOptimize
  File Root Ne.log.s011 append = no 
=========================================================
  Skip QMCDriver::putQMCInfo 
  Resetting Properties of the walkers 1 x 13

=========================================================
  Start VMC
  File Root Ne.log.s011 append = no 
=========================================================
  Using the current 1 walkers.
  Total number of walkers: 1.0240e+03
  Total weight: 1.0240e+03
  Resetting Properties of the walkers 1 x 13

<vmc function="put">
  qmc_counter=0  my_counter=10
  time step      = 1.5000e-01
  blocks         = 200
  steps          = 3
  substeps       = 5
  current        = 0
  target samples = 5.1200e+05
  walkers/mpi    = 1

  stepsbetweensamples = 1
<parameter name="blocks" condition="int">200</parameter>
<parameter name="blocks_between_recompute" condition="int">0</parameter>
<parameter name="check_properties" condition="int">100</parameter>
<parameter name="checkproperties" condition="int">100</parameter>
<parameter name="current" condition="int">0</parameter>
<parameter name="dmcwalkersperthread" condition="real">5.0000e+02</parameter>
<parameter name="maxcpusecs" condition="real">3.6000e+05</parameter>
<parameter name="record_configs" condition="int">0</parameter>
<parameter name="record_walkers" condition="int">1</parameter>
<parameter name="recordconfigs" condition="int">0</parameter>
<parameter name="recordwalkers" condition="int">1</parameter>
<parameter name="rewind" condition="int">0</parameter>
<parameter name="samples" condition="real">5.1200e+05</parameter>
<parameter name="samplesperthread" condition="real">5.0000e+02</parameter>
<parameter name="steps" condition="int">3</parameter>
<parameter name="stepsbetweensamples" condition="int">1</parameter>
<parameter name="store_configs" condition="int">0</parameter>
<parameter name="storeconfigs" condition="int">0</parameter>
<parameter name="sub_steps" condition="int">5</parameter>
<parameter name="substeps" condition="int">5</parameter>
<parameter name="tau" condition="au">1.5000e-01</parameter>
<parameter name="time_step" condition="au">1.5000e-01</parameter>
<parameter name="timestep" condition="au">1.5000e-01</parameter>
<parameter name="use_drift" condition="string">no</parameter>
<parameter name="usedrift" condition="string">no</parameter>
<parameter name="walkers" condition="int">1</parameter>
<parameter name="warmup_steps" condition="int">0</parameter>
<parameter name="warmupsteps" condition="int">0</parameter>
  DumpConfig==false Nothing (configurations, state) will be saved.
  Walker Samples are dumped every 1 steps.
</vmc>
  EstimatorManagerBase::add replace LocalEnergy estimator.
  EstimatorManagerBase::add replace LocalEnergy estimator.
<optimization-report>
<vmc stage="main" blocks="200">
  Cannot make clones again. Use existing 1 clones
  Initial partition of walkers 0 1 
  Using Particle by Particle moves
  Walker moves without drift
  Total Sample Size   =512000
  Walker distribution on root = 0 1 
  Using Locality Approximation
===== Memory Usage after the buffer registration =====
Available memory on node 0, free + buffers : 84761 MB
Memory footprint by rank 0 on node 0       : 90 MB
==================================================
====================================================
  SimpleFixedNodeBranch::finalize after a VMC block
    QMC counter        = 11
    time step          = 0.15
    reference energy   = -35.0322
    reference variance = 0.791076
====================================================
  Execution time = 2.7866e+00
</vmc>
<opt stage="setup">
  <log>
   Reading configurations from h5FileRoot Ne.log.s011
  QMCCostFunction is created with 1 threads.
  Using Nonlocal PP in Opt: NonLocalECP
   Number of samples loaded to each thread : 500 
  VMC Eavg = -3.4986e+01
  VMC Evar = 7.2444e-01
  Total weights = 5.1200e+05
  Execution time = 1.1916e+00
  </log>
</opt>
<opt stage="main" walkers="512000">
  <log>

*****************************************
Building overlap and Hamiltonian matrices
*****************************************

Among totally 30 optimized parameters, largest LM parameter change : 8.0291e-03 at parameter 21

******************************************************************************
Init Cost =  -3.3200e+01    New Cost =  -3.3200e+01  Delta Cost =   4.7154e-06
******************************************************************************

The new set of parameters is valid. Updating the trial wave function!

*****************************************************************************
Applying the update for shift_i =   1.0000e-02     and shift_s =   3.9062e-03
*****************************************************************************
  Execution time = 5.2304e+00
  </log>
  <optVariables href="Ne.log.s011.opt.xml">
uu_0 2.5186e-01 1 1  ON 0
uu_1 1.6584e-01 1 1  ON 1
uu_2 9.9053e-02 1 1  ON 2
uu_3 4.9130e-02 1 1  ON 3
uu_4 1.2748e-02 1 1  ON 4
uu_5 -1.2285e-02 1 1  ON 5
uu_6 -2.7933e-02 1 1  ON 6
uu_7 -3.5083e-02 1 1  ON 7
uu_8 -3.3423e-02 1 1  ON 8
uu_9 -2.7135e-02 1 1  ON 9
ud_0 3.5668e-01 1 1  ON 10
ud_1 2.0349e-01 1 1  ON 11
ud_2 1.0845e-01 1 1  ON 12
ud_3 4.5439e-02 1 1  ON 13
ud_4 3.0551e-03 1 1  ON 14
ud_5 -2.4340e-02 1 1  ON 15
ud_6 -4.0035e-02 1 1  ON 16
ud_7 -4.5924e-02 1 1  ON 17
ud_8 -4.1392e-02 1 1  ON 18
ud_9 -3.2049e-02 1 1  ON 19
eNe_0 -6.9315e-01 1 1  ON 20
eNe_1 -5.7071e-01 1 1  ON 21
eNe_2 -3.3740e-01 1 1  ON 22
eNe_3 -1.0586e-01 1 1  ON 23
eNe_4 7.7717e-02 1 1  ON 24
eNe_5 2.0386e-01 1 1  ON 25
eNe_6 2.7201e-01 1 1  ON 26
eNe_7 2.8524e-01 1 1  ON 27
eNe_8 2.4371e-01 1 1  ON 28
eNe_9 1.6878e-01 1 1  ON 29
  </optVariables>
   Restore the number of walkers to 1, removing 0 walkers.
</opt>
</optimization-report>
  QMC Execution time = 5.2389e+00 secs
  Reusing QMCFixedSampleLinearOptimize
 Using QMCCostFunction::QMCCostFunction

=========================================================
  Start QMCFixedSampleLinearOptimize
  File Root Ne.log.s012 append = no 
=========================================================
  Skip QMCDriver::putQMCInfo 
  Resetting Properties of the walkers 1 x 13

=========================================================
  Start VMC
  File Root Ne.log.s012 append = no 
=========================================================
Using existing walkers 
  Resetting Properties of the walkers 1 x 13

<vmc function="put">
  qmc_counter=1  my_counter=11
  time step      = 1.5000e-01
  blocks         = 200
  steps          = 3
  substeps       = 5
  current        = 0
  target samples = 5.1200e+05
  walkers/mpi    = 1

  stepsbetweensamples = 1
<parameter name="blocks" condition="int">200</parameter>
<parameter name="blocks_between_recompute" condition="int">0</parameter>
<parameter name="check_properties" condition="int">100</parameter>
<parameter name="checkproperties" condition="int">100</parameter>
<parameter name="current" condition="int">0</parameter>
<parameter name="dmcwalkersperthread" condition="real">5.0000e+02</parameter>
<parameter name="maxcpusecs" condition="real">3.6000e+05</parameter>
<parameter name="record_configs" condition="int">0</parameter>
<parameter name="record_walkers" condition="int">1</parameter>
<parameter name="recordconfigs" condition="int">0</parameter>
<parameter name="recordwalkers" condition="int">1</parameter>
<parameter name="rewind" condition="int">0</parameter>
<parameter name="samples" condition="real">5.1200e+05</parameter>
<parameter name="samplesperthread" condition="real">5.0000e+02</parameter>
<parameter name="steps" condition="int">3</parameter>
<parameter name="stepsbetweensamples" condition="int">1</parameter>
<parameter name="store_configs" condition="int">0</parameter>
<parameter name="storeconfigs" condition="int">0</parameter>
<parameter name="sub_steps" condition="int">5</parameter>
<parameter name="substeps" condition="int">5</parameter>
<parameter name="tau" condition="au">1.5000e-01</parameter>
<parameter name="time_step" condition="au">1.5000e-01</parameter>
<parameter name="timestep" condition="au">1.5000e-01</parameter>
<parameter name="use_drift" condition="string">no</parameter>
<parameter name="usedrift" condition="string">no</parameter>
<parameter name="walkers" condition="int">1</parameter>
<parameter name="warmup_steps" condition="int">0</parameter>
<parameter name="warmupsteps" condition="int">0</parameter>
  DumpConfig==false Nothing (configurations, state) will be saved.
  Walker Samples are dumped every 1 steps.
</vmc>
  EstimatorManagerBase::add replace LocalEnergy estimator.
  EstimatorManagerBase::add replace LocalEnergy estimator.
<optimization-report>
<vmc stage="main" blocks="200">
  Cannot make clones again. Use existing 1 clones
  Initial partition of walkers 0 1 
  Using Particle by Particle moves
  Walker moves without drift
  Total Sample Size   =512000
  Walker distribution on root = 0 1 
  Using Locality Approximation
===== Memory Usage after the buffer registration =====
Available memory on node 0, free + buffers : 84738 MB
Memory footprint by rank 0 on node 0       : 92 MB
==================================================
====================================================
  SimpleFixedNodeBranch::finalize after a VMC block
    QMC counter        = 12
    time step          = 0.15
    reference energy   = -34.9923
    reference variance = 0.703961
====================================================
  Execution time = 2.8178e+00
</vmc>
<opt stage="setup">
  <log>
   Reading configurations from h5FileRoot Ne.log.s012
[...]
</vmc>
<opt stage="setup">
  <log>
   Reading configurations from h5FileRoot Ne.log.s017
  QMCCostFunction is created with 1 threads.
  Using Nonlocal PP in Opt: NonLocalECP
   Number of samples loaded to each thread : 500 
  VMC Eavg = -3.4988e+01
  VMC Evar = 7.1201e-01
  Total weights = 5.1200e+05
  Execution time = 1.1944e+00
  </log>
</opt>
<opt stage="main" walkers="512000">
  <log>

*****************************************
Building overlap and Hamiltonian matrices
*****************************************

Among totally 30 optimized parameters, largest LM parameter change : 9.0132e-03 at parameter 26

******************************************************************************
Init Cost =  -3.3203e+01    New Cost =  -3.3203e+01  Delta Cost =  -1.7864e-04
******************************************************************************

The new set of parameters is valid. Updating the trial wave function!

*****************************************************************************
Applying the update for shift_i =   1.0000e-02     and shift_s =   3.9062e-03
*****************************************************************************
  Execution time = 5.1203e+00
  </log>
  <optVariables href="Ne.log.s017.opt.xml">
uu_0 2.5650e-01 1 1  ON 0
uu_1 1.6994e-01 1 1  ON 1
uu_2 1.0303e-01 1 1  ON 2
uu_3 5.3092e-02 1 1  ON 3
uu_4 1.6902e-02 1 1  ON 4
uu_5 -8.0452e-03 1 1  ON 5
uu_6 -2.3433e-02 1 1  ON 6
uu_7 -3.0747e-02 1 1  ON 7
uu_8 -3.0244e-02 1 1  ON 8
uu_9 -2.3999e-02 1 1  ON 9
ud_0 3.6294e-01 1 1  ON 10
ud_1 2.0998e-01 1 1  ON 11
ud_2 1.1497e-01 1 1  ON 12
ud_3 5.2098e-02 1 1  ON 13
ud_4 9.9238e-03 1 1  ON 14
ud_5 -1.7723e-02 1 1  ON 15
ud_6 -3.3364e-02 1 1  ON 16
ud_7 -3.9814e-02 1 1  ON 17
ud_8 -3.6495e-02 1 1  ON 18
ud_9 -2.6725e-02 1 1  ON 19
eNe_0 -7.3308e-01 1 1  ON 20
eNe_1 -6.1038e-01 1 1  ON 21
eNe_2 -3.7694e-01 1 1  ON 22
eNe_3 -1.4582e-01 1 1  ON 23
eNe_4 3.7543e-02 1 1  ON 24
eNe_5 1.6326e-01 1 1  ON 25
eNe_6 2.3272e-01 1 1  ON 26
eNe_7 2.4920e-01 1 1  ON 27
eNe_8 2.1370e-01 1 1  ON 28
eNe_9 1.4597e-01 1 1  ON 29
  </optVariables>
   Restore the number of walkers to 1, removing 0 walkers.
</opt>
</optimization-report>
  QMC Execution time = 5.1286e+00 secs
  Reusing QMCFixedSampleLinearOptimize
 Using QMCCostFunction::QMCCostFunction

=========================================================
  Start QMCFixedSampleLinearOptimize
  File Root Ne.log.s018 append = no 
=========================================================
  Skip QMCDriver::putQMCInfo 
  Resetting Properties of the walkers 1 x 13

=========================================================
  Start VMC
  File Root Ne.log.s018 append = no 
=========================================================
Using existing walkers 
  Resetting Properties of the walkers 1 x 13

<vmc function="put">
  qmc_counter=7  my_counter=17
  time step      = 1.5000e-01
  blocks         = 200
  steps          = 3
  substeps       = 5
  current        = 0
  target samples = 5.1200e+05
  walkers/mpi    = 1

  stepsbetweensamples = 1
<parameter name="blocks" condition="int">200</parameter>
<parameter name="blocks_between_recompute" condition="int">0</parameter>
<parameter name="check_properties" condition="int">100</parameter>
<parameter name="checkproperties" condition="int">100</parameter>
<parameter name="current" condition="int">0</parameter>
<parameter name="dmcwalkersperthread" condition="real">5.0000e+02</parameter>
<parameter name="maxcpusecs" condition="real">3.6000e+05</parameter>
<parameter name="record_configs" condition="int">0</parameter>
<parameter name="record_walkers" condition="int">1</parameter>
<parameter name="recordconfigs" condition="int">0</parameter>
<parameter name="recordwalkers" condition="int">1</parameter>
<parameter name="rewind" condition="int">0</parameter>
<parameter name="samples" condition="real">5.1200e+05</parameter>
<parameter name="samplesperthread" condition="real">5.0000e+02</parameter>
<parameter name="steps" condition="int">3</parameter>
<parameter name="stepsbetweensamples" condition="int">1</parameter>
<parameter name="store_configs" condition="int">0</parameter>
<parameter name="storeconfigs" condition="int">0</parameter>
<parameter name="sub_steps" condition="int">5</parameter>
<parameter name="substeps" condition="int">5</parameter>
<parameter name="tau" condition="au">1.5000e-01</parameter>
<parameter name="time_step" condition="au">1.5000e-01</parameter>
<parameter name="timestep" condition="au">1.5000e-01</parameter>
<parameter name="use_drift" condition="string">no</parameter>
<parameter name="usedrift" condition="string">no</parameter>
<parameter name="walkers" condition="int">1</parameter>
<parameter name="warmup_steps" condition="int">0</parameter>
<parameter name="warmupsteps" condition="int">0</parameter>
  DumpConfig==false Nothing (configurations, state) will be saved.
  Walker Samples are dumped every 1 steps.
</vmc>
  EstimatorManagerBase::add replace LocalEnergy estimator.
  EstimatorManagerBase::add replace LocalEnergy estimator.
<optimization-report>
<vmc stage="main" blocks="200">
  Cannot make clones again. Use existing 1 clones
  Initial partition of walkers 0 1 
  Using Particle by Particle moves
  Walker moves without drift
  Total Sample Size   =512000
  Walker distribution on root = 0 1 
  Using Locality Approximation
===== Memory Usage after the buffer registration =====
Available memory on node 0, free + buffers : 84716 MB
Memory footprint by rank 0 on node 0       : 103 MB
==================================================
====================================================
  SimpleFixedNodeBranch::finalize after a VMC block
    QMC counter        = 18
    time step          = 0.15
    reference energy   = -34.9434
    reference variance = 0.557938
====================================================
  Execution time = 2.7624e+00
</vmc>
<opt stage="setup">
  <log>
   Reading configurations from h5FileRoot Ne.log.s018
  QMCCostFunction is created with 1 threads.
  Using Nonlocal PP in Opt: NonLocalECP
   Number of samples loaded to each thread : 500 
  VMC Eavg = -3.4988e+01
  VMC Evar = 7.1001e-01
  Total weights = 5.1200e+05
  Execution time = 1.1838e+00
  </log>
</opt>
<opt stage="main" walkers="512000">
  <log>

*****************************************
Building overlap and Hamiltonian matrices
*****************************************

Among totally 30 optimized parameters, largest LM parameter change : 1.0866e-02 at parameter 20

******************************************************************************
Init Cost =  -3.3203e+01    New Cost =  -3.3203e+01  Delta Cost =  -1.4870e-05
******************************************************************************

The new set of parameters is valid. Updating the trial wave function!

*****************************************************************************
Applying the update for shift_i =   1.0000e-02     and shift_s =   3.9062e-03
*****************************************************************************
  Execution time = 5.1042e+00
  </log>
  <optVariables href="Ne.log.s018.opt.xml">
uu_0 2.5570e-01 1 1  ON 0
uu_1 1.6922e-01 1 1  ON 1
uu_2 1.0237e-01 1 1  ON 2
uu_3 5.2557e-02 1 1  ON 3
uu_4 1.6434e-02 1 1  ON 4
uu_5 -8.5557e-03 1 1  ON 5
uu_6 -2.3987e-02 1 1  ON 6
uu_7 -3.1486e-02 1 1  ON 7
uu_8 -2.9795e-02 1 1  ON 8
uu_9 -2.4031e-02 1 1  ON 9
ud_0 3.5919e-01 1 1  ON 10
ud_1 2.0604e-01 1 1  ON 11
ud_2 1.1097e-01 1 1  ON 12
ud_3 4.8132e-02 1 1  ON 13
ud_4 5.9062e-03 1 1  ON 14
ud_5 -2.1715e-02 1 1  ON 15
ud_6 -3.7500e-02 1 1  ON 16
ud_7 -4.3583e-02 1 1  ON 17
ud_8 -3.9478e-02 1 1  ON 18
ud_9 -2.9080e-02 1 1  ON 19
eNe_0 -7.4395e-01 1 1  ON 20
eNe_1 -6.2120e-01 1 1  ON 21
eNe_2 -3.8773e-01 1 1  ON 22
eNe_3 -1.5610e-01 1 1  ON 23
eNe_4 2.8898e-02 1 1  ON 24
eNe_5 1.5660e-01 1 1  ON 25
eNe_6 2.2818e-01 1 1  ON 26
eNe_7 2.4605e-01 1 1  ON 27
eNe_8 2.1238e-01 1 1  ON 28
eNe_9 1.4466e-01 1 1  ON 29
  </optVariables>
   Restore the number of walkers to 1, removing 0 walkers.
</opt>
</optimization-report>
  QMC Execution time = 5.1129e+00 secs
  Reusing QMCFixedSampleLinearOptimize
 Using QMCCostFunction::QMCCostFunction

=========================================================
  Start QMCFixedSampleLinearOptimize
  File Root Ne.log.s019 append = no 
=========================================================
  Skip QMCDriver::putQMCInfo 
  Resetting Properties of the walkers 1 x 13

=========================================================
  Start VMC
  File Root Ne.log.s019 append = no 
=========================================================
Using existing walkers 
  Resetting Properties of the walkers 1 x 13

<vmc function="put">
  qmc_counter=8  my_counter=18
  time step      = 1.5000e-01
  blocks         = 200
  steps          = 3
  substeps       = 5
  current        = 0
  target samples = 5.1200e+05
  walkers/mpi    = 1

  stepsbetweensamples = 1
<parameter name="blocks" condition="int">200</parameter>
<parameter name="blocks_between_recompute" condition="int">0</parameter>
<parameter name="check_properties" condition="int">100</parameter>
<parameter name="checkproperties" condition="int">100</parameter>
<parameter name="current" condition="int">0</parameter>
<parameter name="dmcwalkersperthread" condition="real">5.0000e+02</parameter>
<parameter name="maxcpusecs" condition="real">3.6000e+05</parameter>
<parameter name="record_configs" condition="int">0</parameter>
<parameter name="record_walkers" condition="int">1</parameter>
<parameter name="recordconfigs" condition="int">0</parameter>
<parameter name="recordwalkers" condition="int">1</parameter>
<parameter name="rewind" condition="int">0</parameter>
<parameter name="samples" condition="real">5.1200e+05</parameter>
<parameter name="samplesperthread" condition="real">5.0000e+02</parameter>
<parameter name="steps" condition="int">3</parameter>
<parameter name="stepsbetweensamples" condition="int">1</parameter>
<parameter name="store_configs" condition="int">0</parameter>
<parameter name="storeconfigs" condition="int">0</parameter>
<parameter name="sub_steps" condition="int">5</parameter>
<parameter name="substeps" condition="int">5</parameter>
<parameter name="tau" condition="au">1.5000e-01</parameter>
<parameter name="time_step" condition="au">1.5000e-01</parameter>
<parameter name="timestep" condition="au">1.5000e-01</parameter>
<parameter name="use_drift" condition="string">no</parameter>
<parameter name="usedrift" condition="string">no</parameter>
<parameter name="walkers" condition="int">1</parameter>
<parameter name="warmup_steps" condition="int">0</parameter>
<parameter name="warmupsteps" condition="int">0</parameter>
  DumpConfig==false Nothing (configurations, state) will be saved.
  Walker Samples are dumped every 1 steps.
</vmc>
  EstimatorManagerBase::add replace LocalEnergy estimator.
  EstimatorManagerBase::add replace LocalEnergy estimator.
<optimization-report>
<vmc stage="main" blocks="200">
  Cannot make clones again. Use existing 1 clones
  Initial partition of walkers 0 1 
  Using Particle by Particle moves
  Walker moves without drift
  Total Sample Size   =512000
  Walker distribution on root = 0 1 
  Using Locality Approximation
===== Memory Usage after the buffer registration =====
Available memory on node 0, free + buffers : 84712 MB
Memory footprint by rank 0 on node 0       : 105 MB
==================================================
====================================================
  SimpleFixedNodeBranch::finalize after a VMC block
    QMC counter        = 19
    time step          = 0.15
    reference energy   = -34.9698
    reference variance = 0.64556
====================================================
  Execution time = 2.7670e+00
</vmc>
<opt stage="setup">
  <log>
   Reading configurations from h5FileRoot Ne.log.s019
  QMCCostFunction is created with 1 threads.
  Using Nonlocal PP in Opt: NonLocalECP
   Number of samples loaded to each thread : 500 
  VMC Eavg = -3.4986e+01
  VMC Evar = 7.4702e-01
  Total weights = 5.1200e+05
  Execution time = 1.1566e+00
  </log>
</opt>
<opt stage="main" walkers="512000">
  <log>

*****************************************
Building overlap and Hamiltonian matrices
*****************************************

Among totally 30 optimized parameters, largest LM parameter change : 7.1312e-03 at parameter 29

******************************************************************************
Init Cost =  -3.3199e+01    New Cost =  -3.3199e+01  Delta Cost =  -2.7259e-05
******************************************************************************

The new set of parameters is valid. Updating the trial wave function!

*****************************************************************************
Applying the update for shift_i =   1.0000e-02     and shift_s =   3.9062e-03
*****************************************************************************
  Execution time = 5.0874e+00
  </log>
  <optVariables href="Ne.log.s019.opt.xml">
uu_0 2.5733e-01 1 1  ON 0
uu_1 1.7087e-01 1 1  ON 1
uu_2 1.0410e-01 1 1  ON 2
uu_3 5.4053e-02 1 1  ON 3
uu_4 1.7823e-02 1 1  ON 4
uu_5 -7.0883e-03 1 1  ON 5
uu_6 -2.2495e-02 1 1  ON 6
uu_7 -2.9593e-02 1 1  ON 7
uu_8 -2.8905e-02 1 1  ON 8
uu_9 -2.3122e-02 1 1  ON 9
ud_0 3.6085e-01 1 1  ON 10
ud_1 2.0771e-01 1 1  ON 11
ud_2 1.1272e-01 1 1  ON 12
ud_3 4.9510e-02 1 1  ON 13
ud_4 7.2424e-03 1 1  ON 14
ud_5 -2.0295e-02 1 1  ON 15
ud_6 -3.6374e-02 1 1  ON 16
ud_7 -4.2720e-02 1 1  ON 17
ud_8 -3.9143e-02 1 1  ON 18
ud_9 -2.9535e-02 1 1  ON 19
eNe_0 -7.4986e-01 1 1  ON 20
eNe_1 -6.2696e-01 1 1  ON 21
eNe_2 -3.9294e-01 1 1  ON 22
eNe_3 -1.6100e-01 1 1  ON 23
eNe_4 2.3164e-02 1 1  ON 24
eNe_5 1.5057e-01 1 1  ON 25
eNe_6 2.2201e-01 1 1  ON 26
eNe_7 2.4064e-01 1 1  ON 27
eNe_8 2.0592e-01 1 1  ON 28
eNe_9 1.3753e-01 1 1  ON 29
  </optVariables>
   Restore the number of walkers to 1, removing 0 walkers.
</opt>
</optimization-report>
  QMC Execution time = 5.0966e+00 secs
  Reusing QMCFixedSampleLinearOptimize
 Using QMCCostFunction::QMCCostFunction

=========================================================
  Start QMCFixedSampleLinearOptimize
  File Root Ne.log.s020 append = no 
=========================================================
  Skip QMCDriver::putQMCInfo 
  Resetting Properties of the walkers 1 x 13

=========================================================
  Start VMC
  File Root Ne.log.s020 append = no 
=========================================================
Using existing walkers 
  Resetting Properties of the walkers 1 x 13

<vmc function="put">
  qmc_counter=9  my_counter=19
  time step      = 1.5000e-01
  blocks         = 200
  steps          = 3
  substeps       = 5
  current        = 0
  target samples = 5.1200e+05
  walkers/mpi    = 1

  stepsbetweensamples = 1
<parameter name="blocks" condition="int">200</parameter>
<parameter name="blocks_between_recompute" condition="int">0</parameter>
<parameter name="check_properties" condition="int">100</parameter>
<parameter name="checkproperties" condition="int">100</parameter>
<parameter name="current" condition="int">0</parameter>
<parameter name="dmcwalkersperthread" condition="real">5.0000e+02</parameter>
<parameter name="maxcpusecs" condition="real">3.6000e+05</parameter>
<parameter name="record_configs" condition="int">0</parameter>
<parameter name="record_walkers" condition="int">1</parameter>
<parameter name="recordconfigs" condition="int">0</parameter>
<parameter name="recordwalkers" condition="int">1</parameter>
<parameter name="rewind" condition="int">0</parameter>
<parameter name="samples" condition="real">5.1200e+05</parameter>
<parameter name="samplesperthread" condition="real">5.0000e+02</parameter>
<parameter name="steps" condition="int">3</parameter>
<parameter name="stepsbetweensamples" condition="int">1</parameter>
<parameter name="store_configs" condition="int">0</parameter>
<parameter name="storeconfigs" condition="int">0</parameter>
<parameter name="sub_steps" condition="int">5</parameter>
<parameter name="substeps" condition="int">5</parameter>
<parameter name="tau" condition="au">1.5000e-01</parameter>
<parameter name="time_step" condition="au">1.5000e-01</parameter>
<parameter name="timestep" condition="au">1.5000e-01</parameter>
<parameter name="use_drift" condition="string">no</parameter>
<parameter name="usedrift" condition="string">no</parameter>
<parameter name="walkers" condition="int">1</parameter>
<parameter name="warmup_steps" condition="int">0</parameter>
<parameter name="warmupsteps" condition="int">0</parameter>
  DumpConfig==false Nothing (configurations, state) will be saved.
  Walker Samples are dumped every 1 steps.
</vmc>
  EstimatorManagerBase::add replace LocalEnergy estimator.
  EstimatorManagerBase::add replace LocalEnergy estimator.
<optimization-report>
<vmc stage="main" blocks="200">
  Cannot make clones again. Use existing 1 clones
  Initial partition of walkers 0 1 
  Using Particle by Particle moves
  Walker moves without drift
  Total Sample Size   =512000
  Walker distribution on root = 0 1 
  Using Locality Approximation
===== Memory Usage after the buffer registration =====
Available memory on node 0, free + buffers : 84710 MB
Memory footprint by rank 0 on node 0       : 107 MB
==================================================
====================================================
  SimpleFixedNodeBranch::finalize after a VMC block
    QMC counter        = 20
    time step          = 0.15
    reference energy   = -35.0259
    reference variance = 0.823448
====================================================
  Execution time = 2.7683e+00
</vmc>
<opt stage="setup">
  <log>
   Reading configurations from h5FileRoot Ne.log.s020
  QMCCostFunction is created with 1 threads.
  Using Nonlocal PP in Opt: NonLocalECP
   Number of samples loaded to each thread : 500 
  VMC Eavg = -3.4987e+01
  VMC Evar = 8.4671e-01
  Total weights = 5.1200e+05
  Execution time = 1.1809e+00
  </log>
</opt>
<opt stage="main" walkers="512000">
  <log>

*****************************************
Building overlap and Hamiltonian matrices
*****************************************

Among totally 30 optimized parameters, largest LM parameter change : 6.7105e-03 at parameter 27

******************************************************************************
Init Cost =  -3.3196e+01    New Cost =  -3.3196e+01  Delta Cost =  -7.8768e-05
******************************************************************************

The new set of parameters is valid. Updating the trial wave function!

*****************************************************************************
Applying the update for shift_i =   1.0000e-02     and shift_s =   3.9062e-03
*****************************************************************************
  Execution time = 5.1015e+00
  </log>
  <optVariables href="Ne.log.s020.opt.xml">
uu_0 2.5662e-01 1 1  ON 0
uu_1 1.7024e-01 1 1  ON 1
uu_2 1.0353e-01 1 1  ON 2
uu_3 5.3699e-02 1 1  ON 3
uu_4 1.7729e-02 1 1  ON 4
uu_5 -7.2324e-03 1 1  ON 5
uu_6 -2.2683e-02 1 1  ON 6
uu_7 -3.0452e-02 1 1  ON 7
uu_8 -2.9048e-02 1 1  ON 8
uu_9 -2.2452e-02 1 1  ON 9
ud_0 3.6450e-01 1 1  ON 10
ud_1 2.1154e-01 1 1  ON 11
ud_2 1.1637e-01 1 1  ON 12
ud_3 5.3292e-02 1 1  ON 13
ud_4 1.1005e-02 1 1  ON 14
ud_5 -1.6422e-02 1 1  ON 15
ud_6 -3.2357e-02 1 1  ON 16
ud_7 -3.9162e-02 1 1  ON 17
ud_8 -3.5430e-02 1 1  ON 18
ud_9 -2.7248e-02 1 1  ON 19
eNe_0 -7.5361e-01 1 1  ON 20
eNe_1 -6.3055e-01 1 1  ON 21
eNe_2 -3.9714e-01 1 1  ON 22
eNe_3 -1.6583e-01 1 1  ON 23
eNe_4 1.8356e-02 1 1  ON 24
eNe_5 1.4587e-01 1 1  ON 25
eNe_6 2.1585e-01 1 1  ON 26
eNe_7 2.3393e-01 1 1  ON 27
eNe_8 2.0282e-01 1 1  ON 28
eNe_9 1.3637e-01 1 1  ON 29
  </optVariables>
   Restore the number of walkers to 1, removing 0 walkers.
</opt>
</optimization-report>
  QMC Execution time = 5.1091e+00 secs
  Total Execution time = 8.4718e+01 secs

=========================================================
  A new xml input file : Ne.log.s020.cont.xml
TACC:  Shutdown complete. Exiting. 
