
 Primary working directories    : /global/cscratch1/sd/aannabe
 Secondary working directories  : /global/cscratch1/sd/aannabe
 Wavefunction directory         : /global/homes/a/aannabe/wfu/
 Main file repository           : /global/cscratch1/sd/aannabe/

 SHA1      : 2873118e99aab1bc19f5b6fc1784693c06d15c95
 NAME      : 2015.1.8
 ARCHNAME  : linux/x86_64
 FC        : /opt/cray/pe/craype/2.5.5/bin/ftn
 BLASLIB   : -Wl,-_start-group /opt/intel/compilers_and_libraries_2016.3.210/linux/mkl/lib/intel64/libmkl_intel_ilp64.a /opt/intel/compilers_and_libraries_2016.3.210/linux/mkl/lib/intel64/libmkl_intel_thread.a /opt/intel/compilers_and_libraries_2016.3.210/linux/mkl/lib/intel64/libmkl_core.a -Wl,-_end-group
 id        : lbl

 Nodes     nprocs
 nid01420     1

 Using customized tuning parameters: mindgm=8; mindgv=16; mindgc=4; mindgr=1; noblas=0; minvec=7
 default implementation of scratch files=df  

 ***,Cl
 memory,512,m
 gthresh,twoint=1.e-12
 
 gprint,basis,orbitals
 gexpec,ekin,pot
 
 angstrom
 geometry={
 1                                                                               ! Number of atoms
 Cl 0.0 0.0 0.0
 }
 
 basis={
 Including file /global/homes/a/aannabe/docs/accurate/ccECP_Kh/pps/Cl.pp
 Including file /global/homes/a/aannabe/docs/accurate/ccECP_Kh/basis/aug-cc-pVnZ/Cl_5z.basis
 }
 
 {rhf
  start,atden
  wf,7,3,1
  occ,1,1,1,0,1,0,0,0
  open,1.3
  orbital,4202.2
 }
 {multi
  maxiter,40
  start,4202.2
  occ,1,1,1,0,1,0,0,0
  closed,1,0,0,0,0,0,0
  wf,7,3,1;state,1
  wf,7,5,1;state,1
  wf,7,2,1;state,1
  natorb,ci,print
  orbital,5202.2
 }
 {rhf,nitord=1,maxit=0
  start,5202.2
  wf,7,3,1
  occ,1,1,1,0,1,0,0,0
  open,1.3
 }
 
 scf(i)=energy
 
 _CC_NORM_MAX=2.0
 {ci
 maxit,100
 core
 }
 posthf(i)=energy
 
 table,scf,posthf,ekin,pot
 save,5.csv,new
 
 

 Variables initialized (889), CPU time= 0.00 sec
 Commands  initialized (702), CPU time= 0.01 sec, 572 directives.
 Default parameters read. Elapsed time= 0.25 sec

 Checking input...
 Passed
1


                                         ***  PROGRAM SYSTEM MOLPRO  ***
                                       Copyright, TTI GmbH Stuttgart, 2015
                                    Version 2015.1 linked Sep  7 2016 23:09:38


 **********************************************************************************************************************************
 LABEL *   Cl                                                                            
  64 bit serial version                                                                  DATE: 30-Oct-18          TIME: 18:18:41  
 **********************************************************************************************************************************

 SHA1:             2873118e99aab1bc19f5b6fc1784693c06d15c95
 **********************************************************************************************************************************

 THRESHOLDS:

 ZERO    =  1.00D-12  ONEINT  =  1.00D-12  TWOINT  =  1.00D-12  PREFAC  =  1.00D-14  LOCALI  =  1.00D-09  EORDER  =  1.00D-04
 ENERGY  =  0.00D+00  ETEST   =  0.00D+00  EDENS   =  0.00D+00  THRDEDEF=  1.00D-06  GRADIENT=  1.00D-02  STEP    =  1.00D-03
 ORBITAL =  1.00D-05  CIVEC   =  1.00D-05  COEFF   =  1.00D-04  PRINTCI =  5.00D-02  PUNCHCI =  9.90D+01  OPTGRAD =  3.00D-04
 OPTENERG=  1.00D-06  OPTSTEP =  3.00D-04  THRGRAD =  1.00D-10  COMPRESS=  1.00D-11  VARMIN  =  1.00D-07  VARMAX  =  1.00D-03
 THRDOUB =  0.00D+00  THRDIV  =  1.00D-05  THRRED  =  1.00D-07  THRPSP  =  1.00D+00  THRDC   =  1.00D-10  THRCS   =  1.00D-10
 THRNRM  =  1.00D-08  THREQ   =  0.00D+00  THRDE   =  1.00D+00  THRREF  =  1.00D-05  SPARFAC =  1.00D+00  THRDLP  =  1.00D-07
 THRDIA  =  1.00D-10  THRDLS  =  1.00D-07  THRGPS  =  0.00D+00  THRKEX  =  0.00D+00  THRDIS  =  2.00D-01  THRVAR  =  1.00D-10
 THRLOC  =  1.00D-06  THRGAP  =  1.00D-06  THRLOCT = -1.00D+00  THRGAPT = -1.00D+00  THRORB  =  1.00D-06  THRMLTP =  0.00D+00
 THRCPQCI=  1.00D-10  KEXTA   =  0.00D+00  THRCOARS=  0.00D+00  SYMTOL  =  1.00D-06  GRADTOL =  1.00D-06  THROVL  =  1.00D-08
 THRORTH =  1.00D-08  GRID    =  1.00D-06  GRIDMAX =  1.00D-03  DTMAX   =  0.00D+00  THROCCDE=  1.00D-01  THROCCDE=  1.00D-01



 ZUNIT=ANG
 

Geometry recognized as XYZ


 Variable memory set to  512000000 words,  buffer space   230000 words

 SETTING BASIS          =    USERDEF


 Recomputing integrals since basis changed


 Using spherical harmonics



 PROGRAM * SEWARD (Integral evaluation for generally contracted gaussian basis sets)     Author: Roland Lindh, 1990

 Geometry written to block  1 of record 700

 Orientation using atomic masses  
 Molecule type: Atom
 Symmetry elements: X,Y,Z
 Rotational constants:       0.0000000      0.0000000      0.0000000 GHz  (calculated with average atomic masses)

 Point group  D2h 



 ATOMIC COORDINATES

 NR  ATOM    CHARGE       X              Y              Z

   1  CL      7.00    0.000000000    0.000000000    0.000000000


          CL  CORE POTENTIAL

          d POTENTIAL

 POWERS             1              3              2
 EXPONENTIALS   7.944352       12.80126       6.296744    
 COEFFICIENTS   7.000000       55.61046      -22.86078    

          s - d POTENTIAL

 POWERS             2              2
 EXPONENTIALS   17.90843       4.159880    
 COEFFICIENTS   15.83923       44.46950    

          p - d POTENTIAL

 POWERS             2              2
 EXPONENTIALS   7.931763       3.610412    
 COEFFICIENTS   8.321946       24.04474    


 BASIS DATA

   Nr Sym  Nuc  Type         Exponents   Contraction coefficients

    1.1 Ag    1  1s          15.583847     0.002501
                              8.858485    -0.010046
                              5.035519     0.085810
                              2.862391    -0.290136
                              1.627098    -0.140314
                              0.924908     0.146839
                              0.525755     0.392484
                              0.298860     0.425061
                              0.169884     0.227195
                              0.096569     0.059828
    2.1 Ag    1  1s           1.312097     1.000000
    3.1 Ag    1  1s           0.611646     1.000000
    4.1 Ag    1  1s           0.285124     1.000000
    5.1 Ag    1  1s           0.132913     1.000000
    6.1 Ag    1  1s           0.065045     1.000000
    7.1 Ag    1  3d0          3.508629     1.000000
    8.1 Ag    1  3d2+         3.508629     1.000000
    9.1 Ag    1  3d0          1.434082     1.000000
   10.1 Ag    1  3d2+         1.434082     1.000000
   11.1 Ag    1  3d0          0.586152     1.000000
   12.1 Ag    1  3d2+         0.586152     1.000000
   13.1 Ag    1  3d0          0.239578     1.000000
   14.1 Ag    1  3d2+         0.239578     1.000000
   15.1 Ag    1  3d0          0.103095     1.000000
   16.1 Ag    1  3d2+         0.103095     1.000000
   17.1 Ag    1  5g0          1.330843     1.000000
   18.1 Ag    1  5g4+         1.330843     1.000000
   19.1 Ag    1  5g2+         1.330843     1.000000
   20.1 Ag    1  5g0          0.560558     1.000000
   21.1 Ag    1  5g4+         0.560558     1.000000
   22.1 Ag    1  5g2+         0.560558     1.000000
   23.1 Ag    1  5g0          0.272474     1.000000
   24.1 Ag    1  5g4+         0.272474     1.000000
   25.1 Ag    1  5g2+         0.272474     1.000000
    1.2 B3u   1  2px          7.682894    -0.004609
                              4.507558    -0.001798
                              2.644587    -0.068614
                              1.551581     0.062352
                              0.910313     0.166337
                              0.534081     0.282292
                              0.313346     0.275967
                              0.183840     0.241328
                              0.107859     0.110223
                              0.063281     0.040289
    2.2 B3u   1  2px          2.989744     1.000000
    3.2 B3u   1  2px          1.418767     1.000000
    4.2 B3u   1  2px          0.673268     1.000000
    5.2 B3u   1  2px          0.319496     1.000000
    6.2 B3u   1  2px          0.168796     1.000000
    7.2 B3u   1  4f1+         1.580619     1.000000
    8.2 B3u   1  4f3+         1.580619     1.000000
    9.2 B3u   1  4f1+         0.721906     1.000000
   10.2 B3u   1  4f3+         0.721906     1.000000
   11.2 B3u   1  4f1+         0.329711     1.000000
   12.2 B3u   1  4f3+         0.329711     1.000000
   13.2 B3u   1  4f1+         0.159627     1.000000
   14.2 B3u   1  4f3+         0.159627     1.000000
   15.2 B3u   1  6h1+         1.054587     1.000000
   16.2 B3u   1  6h3+         1.054587     1.000000
   17.2 B3u   1  6h5+         1.054587     1.000000
   18.2 B3u   1  6h1+         0.578705     1.000000
   19.2 B3u   1  6h3+         0.578705     1.000000
   20.2 B3u   1  6h5+         0.578705     1.000000
    1.3 B2u   1  2py          7.682894    -0.004609
                              4.507558    -0.001798
                              2.644587    -0.068614
                              1.551581     0.062352
                              0.910313     0.166337
                              0.534081     0.282292
                              0.313346     0.275967
                              0.183840     0.241328
                              0.107859     0.110223
                              0.063281     0.040289
    2.3 B2u   1  2py          2.989744     1.000000
    3.3 B2u   1  2py          1.418767     1.000000
    4.3 B2u   1  2py          0.673268     1.000000
    5.3 B2u   1  2py          0.319496     1.000000
    6.3 B2u   1  2py          0.168796     1.000000
    7.3 B2u   1  4f1-         1.580619     1.000000
    8.3 B2u   1  4f3-         1.580619     1.000000
    9.3 B2u   1  4f1-         0.721906     1.000000
   10.3 B2u   1  4f3-         0.721906     1.000000
   11.3 B2u   1  4f1-         0.329711     1.000000
   12.3 B2u   1  4f3-         0.329711     1.000000
   13.3 B2u   1  4f1-         0.159627     1.000000
   14.3 B2u   1  4f3-         0.159627     1.000000
   15.3 B2u   1  6h1-         1.054587     1.000000
   16.3 B2u   1  6h3-         1.054587     1.000000
   17.3 B2u   1  6h5-         1.054587     1.000000
   18.3 B2u   1  6h1-         0.578705     1.000000
   19.3 B2u   1  6h3-         0.578705     1.000000
   20.3 B2u   1  6h5-         0.578705     1.000000
    1.4 B1g   1  3d2-         3.508629     1.000000
    2.4 B1g   1  3d2-         1.434082     1.000000
    3.4 B1g   1  3d2-         0.586152     1.000000
    4.4 B1g   1  3d2-         0.239578     1.000000
    5.4 B1g   1  3d2-         0.103095     1.000000
    6.4 B1g   1  5g2-         1.330843     1.000000
    7.4 B1g   1  5g4-         1.330843     1.000000
    8.4 B1g   1  5g2-         0.560558     1.000000
    9.4 B1g   1  5g4-         0.560558     1.000000
   10.4 B1g   1  5g2-         0.272474     1.000000
   11.4 B1g   1  5g4-         0.272474     1.000000
    1.5 B1u   1  2pz          7.682894    -0.004609
                              4.507558    -0.001798
                              2.644587    -0.068614
                              1.551581     0.062352
                              0.910313     0.166337
                              0.534081     0.282292
                              0.313346     0.275967
                              0.183840     0.241328
                              0.107859     0.110223
                              0.063281     0.040289
    2.5 B1u   1  2pz          2.989744     1.000000
    3.5 B1u   1  2pz          1.418767     1.000000
    4.5 B1u   1  2pz          0.673268     1.000000
    5.5 B1u   1  2pz          0.319496     1.000000
    6.5 B1u   1  2pz          0.168796     1.000000
    7.5 B1u   1  4f0          1.580619     1.000000
    8.5 B1u   1  4f2+         1.580619     1.000000
    9.5 B1u   1  4f0          0.721906     1.000000
   10.5 B1u   1  4f2+         0.721906     1.000000
   11.5 B1u   1  4f0          0.329711     1.000000
   12.5 B1u   1  4f2+         0.329711     1.000000
   13.5 B1u   1  4f0          0.159627     1.000000
   14.5 B1u   1  4f2+         0.159627     1.000000
   15.5 B1u   1  6h2+         1.054587     1.000000
   16.5 B1u   1  6h4+         1.054587     1.000000
   17.5 B1u   1  6h0          1.054587     1.000000
   18.5 B1u   1  6h2+         0.578705     1.000000
   19.5 B1u   1  6h4+         0.578705     1.000000
   20.5 B1u   1  6h0          0.578705     1.000000
    1.6 B2g   1  3d1+         3.508629     1.000000
    2.6 B2g   1  3d1+         1.434082     1.000000
    3.6 B2g   1  3d1+         0.586152     1.000000
    4.6 B2g   1  3d1+         0.239578     1.000000
    5.6 B2g   1  3d1+         0.103095     1.000000
    6.6 B2g   1  5g1+         1.330843     1.000000
    7.6 B2g   1  5g3+         1.330843     1.000000
    8.6 B2g   1  5g1+         0.560558     1.000000
    9.6 B2g   1  5g3+         0.560558     1.000000
   10.6 B2g   1  5g1+         0.272474     1.000000
   11.6 B2g   1  5g3+         0.272474     1.000000
    1.7 B3g   1  3d1-         3.508629     1.000000
    2.7 B3g   1  3d1-         1.434082     1.000000
    3.7 B3g   1  3d1-         0.586152     1.000000
    4.7 B3g   1  3d1-         0.239578     1.000000
    5.7 B3g   1  3d1-         0.103095     1.000000
    6.7 B3g   1  5g1-         1.330843     1.000000
    7.7 B3g   1  5g3-         1.330843     1.000000
    8.7 B3g   1  5g1-         0.560558     1.000000
    9.7 B3g   1  5g3-         0.560558     1.000000
   10.7 B3g   1  5g1-         0.272474     1.000000
   11.7 B3g   1  5g3-         0.272474     1.000000
    1.8 Au    1  4f2-         1.580619     1.000000
    2.8 Au    1  4f2-         0.721906     1.000000
    3.8 Au    1  4f2-         0.329711     1.000000
    4.8 Au    1  4f2-         0.159627     1.000000
    5.8 Au    1  6h4-         1.054587     1.000000
    6.8 Au    1  6h2-         1.054587     1.000000
    7.8 Au    1  6h4-         0.578705     1.000000
    8.8 Au    1  6h2-         0.578705     1.000000

 NUCLEAR CHARGE:                    7
 NUMBER OF PRIMITIVE AOS:         217
 NUMBER OF SYMMETRY AOS:          162
 NUMBER OF CONTRACTIONS:          126   (  25Ag  +  20B3u +  20B2u +  11B1g +  20B1u +  11B2g +  11B3g +   8Au  )
 NUMBER OF CORE ORBITALS:           0   (   0Ag  +   0B3u +   0B2u +   0B1g +   0B1u +   0B2g +   0B3g +   0Au  )
 NUMBER OF VALENCE ORBITALS:        4   (   1Ag  +   1B3u +   1B2u +   0B1g +   1B1u +   0B2g +   0B3g +   0Au  )


 NUCLEAR REPULSION ENERGY    0.00000000

 EXTRA SYMMETRY OF AOS IN SYMMETRY 1:   1 1 1 1 1 1 2 3 2 3   2 3 2 3 2 3 4 5 6 4   5 6 4 5 6
 EXTRA SYMMETRY OF AOS IN SYMMETRY 2:   1 1 1 1 1 1 2 3 2 3   2 3 2 3 4 5 6 4 5 6
 EXTRA SYMMETRY OF AOS IN SYMMETRY 3:   1 1 1 1 1 1 2 3 2 3   2 3 2 3 4 5 6 4 5 6
 EXTRA SYMMETRY OF AOS IN SYMMETRY 4:   1 1 1 1 1 2 3 2 3 2   3
 EXTRA SYMMETRY OF AOS IN SYMMETRY 5:   1 1 1 1 1 1 2 3 2 3   2 3 2 3 4 5 6 4 5 6
 EXTRA SYMMETRY OF AOS IN SYMMETRY 6:   1 1 1 1 1 2 3 2 3 2   3
 EXTRA SYMMETRY OF AOS IN SYMMETRY 7:   1 1 1 1 1 2 3 2 3 2   3
 EXTRA SYMMETRY OF AOS IN SYMMETRY 8:   1 1 1 1 2 3 2 3

 Eigenvalues of metric

         1 0.623E-03 0.382E-02 0.327E-01 0.494E-01 0.494E-01 0.166E+00 0.166E+00 0.166E+00
         2 0.736E-03 0.821E-02 0.554E-01 0.634E-01 0.634E-01 0.250E+00 0.250E+00 0.250E+00
         3 0.736E-03 0.821E-02 0.554E-01 0.634E-01 0.634E-01 0.250E+00 0.250E+00 0.250E+00
         4 0.494E-01 0.166E+00 0.166E+00 0.191E+00 0.609E+00 0.795E+00 0.795E+00 0.150E+01
         5 0.736E-03 0.821E-02 0.554E-01 0.634E-01 0.634E-01 0.250E+00 0.250E+00 0.250E+00
         6 0.494E-01 0.166E+00 0.166E+00 0.191E+00 0.609E+00 0.795E+00 0.795E+00 0.150E+01
         7 0.494E-01 0.166E+00 0.166E+00 0.191E+00 0.609E+00 0.795E+00 0.795E+00 0.150E+01
         8 0.634E-01 0.250E+00 0.250E+00 0.325E+00 0.114E+01 0.175E+01 0.175E+01 0.247E+01


 Contracted 2-electron integrals neglected if value below      1.0D-12
 AO integral compression algorithm  1   Integral accuracy      1.0D-12

     31.719 MB (compressed) written to integral file ( 56.4%)


 NUMBER OF SORTED TWO-ELECTRON INTEGRALS:    4156552.     BUFFER LENGTH:  32768
 NUMBER OF SEGMENTS:   1  SEGMENT LENGTH:    4156552      RECORD LENGTH: 524288

 Memory used in sort:       4.71 MW

 SORT1 READ     6989366. AND WROTE     2907704. INTEGRALS IN      9 RECORDS. CPU TIME:     0.18 SEC, REAL TIME:     0.23 SEC
 SORT2 READ     2907704. AND WROTE     4156552. INTEGRALS IN    121 RECORDS. CPU TIME:     0.12 SEC, REAL TIME:     0.28 SEC

 FILE SIZES:   FILE 1:    51.2 MBYTE,  FILE 4:    37.8 MBYTE,   TOTAL:     89.0 MBYTE

 OPERATOR DM      FOR CENTER  0  COORDINATES:    0.000000    0.000000    0.000000
 OPERATOR EKIN    FOR CENTER  0  COORDINATES:    0.000000    0.000000    0.000000
 OPERATOR POT     FOR CENTER  0  COORDINATES:    0.000000    0.000000    0.000000


 **********************************************************************************************************************************
 DATASETS  * FILE   NREC   LENGTH (MB)   RECORD NAMES
              1      20       38.36       500      610      700      900      950      970     1000      129      960     1100   
                                          VAR    BASINP    GEOM    SYMINP    ZMAT    AOBASIS   BASIS     P2S    ABASIS      S 
                                         1400     1410     1420     1200     1210     1080     1600     1650     1300     1700   
                                         EKIN       V       ECP      H0       H01     AOSYM     SMH    MOLCAS    ERIS     OPER   

 PROGRAMS   *        TOTAL       INT
 CPU TIMES  *         1.52      1.43
 REAL TIME  *         3.17 SEC
 DISK USED  *        89.27 MB      
 **********************************************************************************************************************************


 PROGRAM * RHF-SCF (OPEN SHELL)       Authors: W. Meyer, H.-J. Werner


 NUMBER OF ELECTRONS:       4+    3-    SPACE SYMMETRY=3    SPIN SYMMETRY: Doublet 
 CONVERGENCE THRESHOLDS:    1.00E-05 (Density)    1.00E-07 (Energy)
 MAX. NUMBER OF ITERATIONS:       60
 INTERPOLATION TYPE:            DIIS
 INTERPOLATION STEPS:              2 (START)      1 (STEP)
 LEVEL SHIFTS:                 -0.60 (CLOSED) -0.30 (OPEN) 


 Singly occupied orbitals:      1.3

   Atom=CL basis=ECP10MWB_GUESS    lmin=0  lmax=1

 Orbital guess generated from atomic densities. Full valence occupancy:    1   1   1   0   1   0   0   0


 Molecular orbital dump at record        4202.2

 ITERATION    DDIFF          GRAD             ENERGY        2-EL.EN.            DIPOLE MOMENTS         DIIS   ORB.
    1      0.000D+00      0.000D+00       -14.68775632     19.782016    0.00000    0.00000    0.00000    0    start
    2      0.000D+00      0.513D-02       -14.69092847     19.937531    0.00000    0.00000    0.00000    1    diag,B
    3      0.177D-01      0.131D-02       -14.69129305     19.979141    0.00000    0.00000    0.00000    2    diag,B
    4      0.928D-02      0.409D-03       -14.69133770     19.988208    0.00000    0.00000    0.00000    3    diag,B
    5      0.511D-02      0.800D-04       -14.69133953     19.989503    0.00000    0.00000    0.00000    4    diag,B
    6      0.150D-02      0.132D-04       -14.69133957     19.989563    0.00000    0.00000    0.00000    5    diag,B
    7      0.262D-03      0.169D-05       -14.69133957     19.989548    0.00000    0.00000    0.00000    6    fixocc
    8      0.126D-04      0.373D-06       -14.69133957     19.989549    0.00000    0.00000    0.00000    7    diag,B
    9      0.180D-05      0.902D-07       -14.69133957     19.989548    0.00000    0.00000    0.00000    0    orth

 Final alpha occupancy:   1   1   1   0   1   0   0   0
 Final beta  occupancy:   1   1   0   0   1   0   0   0

 !RHF STATE 1.3 Energy                -14.691339566002
 Nuclear energy                         0.00000000
 One-electron energy                  -24.68611365
 Two-electron energy                    9.99477409
 Virial quotient                       -2.67228614
 !RHF STATE 1.3 Dipole moment           0.00000000     0.00000000     0.00000000
 Dipole moment /Debye                   0.00000000     0.00000000     0.00000000
 

 !RHF expec          <1.3|EKIN|1.3>     5.497667091858
 
 !RHF expec           <1.3|POT|1.3>    -4.697943628822

 ELECTRON ORBITALS
 =================


   Orb  Occ    Energy  Couls-En    Coefficients

                                   1 1s      1 1s      1 1s      1 1s      1 1s      1 1s      1 3d0     1 3d2+    1 3d0     1 3d2+ 
                                   1 3d0     1 3d2+    1 3d0     1 3d2+    1 3d0     1 3d2+    1 5g0     1 5g4+    1 5g2+    1 5g0  
                                   1 5g4+    1 5g2+    1 5g0     1 5g4+    1 5g2+ 

   1.1   2    -1.0800   -5.0931  1.000159  0.000151 -0.000442  0.000723 -0.001051  0.000498  0.000282  0.000488  0.000357  0.000619
                                 0.000152  0.000263  0.002112  0.003658  0.000809  0.001401 -0.000001 -0.000002 -0.000001 -0.000001
                                -0.000001 -0.000001 -0.000011 -0.000021 -0.000016

                                   1 2px     1 2px     1 2px     1 2px     1 2px     1 2px     1 4f1+    1 4f3+    1 4f1+    1 4f3+ 
                                   1 4f1+    1 4f3+    1 4f1+    1 4f3+    1 6h1+    1 6h3+    1 6h5+    1 6h1+    1 6h3+    1 6h5+ 


   1.2   2    -0.4913   -3.8163  1.057677  0.004152 -0.005013 -0.022702 -0.025595 -0.012293 -0.000248 -0.000962 -0.000831 -0.003217
                                -0.000871 -0.003375 -0.000383 -0.001485  0.000002  0.000005  0.000011  0.000004  0.000014  0.000032

                                   1 2py     1 2py     1 2py     1 2py     1 2py     1 2py     1 4f1-    1 4f3-    1 4f1-    1 4f3- 
                                   1 4f1-    1 4f3-    1 4f1-    1 4f3-    1 6h1-    1 6h3-    1 6h5-    1 6h1-    1 6h3-    1 6h5- 


   1.3   +    -0.5716   -3.9313  0.785068 -0.015502  0.018074  0.086476  0.096909  0.041819 -0.001690 -0.002182 -0.005654 -0.007299
                                -0.005566 -0.007186 -0.001929 -0.002491  0.000047  0.000050  0.000068  0.000094  0.000102  0.000136

                                   1 2pz     1 2pz     1 2pz     1 2pz     1 2pz     1 2pz     1 4f0     1 4f2+    1 4f0     1 4f2+ 
                                   1 4f0     1 4f2+    1 4f0     1 4f2+    1 6h2+    1 6h4+    1 6h0     1 6h2+    1 6h4+    1 6h0  


   1.5   2    -0.4913   -3.8163  1.057677  0.004152 -0.005013 -0.022702 -0.025595 -0.012293 -0.000609 -0.000786 -0.002034 -0.002626
                                -0.002134 -0.002756 -0.000939 -0.001212  0.000008  0.000007  0.000006  0.000023  0.000020  0.000017

 HOMO      1.2    -0.491276 =     -13.3683eV
 LUMO      2.1     0.109464 =       2.9787eV
 LUMO-HOMO         0.600740 =      16.3470eV


 **********************************************************************************************************************************
 DATASETS  * FILE   NREC   LENGTH (MB)   RECORD NAMES
              1      20       38.36       500      610      700      900      950      970     1000      129      960     1100   
                                          VAR    BASINP    GEOM    SYMINP    ZMAT    AOBASIS   BASIS     P2S    ABASIS      S 
                                         1400     1410     1420     1200     1210     1080     1600     1650     1300     1700   
                                         EKIN       V       ECP      H0       H01     AOSYM     SMH    MOLCAS    ERIS     OPER   

              2       4        2.83       700     1000      520     4202   
                                         GEOM     BASIS   MCVARS     RHF  

 PROGRAMS   *        TOTAL       RHF       INT
 CPU TIMES  *         1.68      0.16      1.43
 REAL TIME  *         3.48 SEC
 DISK USED  *        89.27 MB      
 **********************************************************************************************************************************


 PROGRAM * MULTI (Direct Multiconfiguration SCF)       Authors: P.J. Knowles, H.-J. Werner (1984)     S.T. Elbert (1988)


 Number of closed-shell orbitals:   1 (   1   0   0   0   0   0   0   0 )
 Number of active  orbitals:        3 (   0   1   1   0   1   0   0   0 )
 Number of external orbitals:     122 (  24  19  19  11  19  11  11   8 )

 State symmetry 1

 Number of electrons:     5    Spin symmetry=Doublet   Space symmetry=3
 Number of states:        1
 Number of CSFs:          1   (1 determinants, 3 intermediate states)

 State symmetry 2

 Number of electrons:     5    Spin symmetry=Doublet   Space symmetry=5
 Number of states:        1
 Number of CSFs:          1   (1 determinants, 3 intermediate states)

 State symmetry 3

 Number of electrons:     5    Spin symmetry=Doublet   Space symmetry=2
 Number of states:        1
 Number of CSFs:          1   (1 determinants, 3 intermediate states)

 Iteration controls:
             1  2  3  4  5  6  7  8  9 10 11 12 13 14 15 16 17 18 19 20 21 22 23 24 25 26 27 28 29 30 31 32 33 34 35 36 37 38 39
 DIAGCI      T  T  T  T  T  T  T  T  T  T  T  T  T  T  T  T  T  T  T  T  T  T  T  T  T  T  T  T  T  T  T  T  T  T  T  T  T  T  T
 WERNER      T  T  T  T  T  T  T  T  T  T  T  T  T  T  T  T  T  T  T  T  T  T  T  T  T  T  T  T  T  T  T  T  T  T  T  T  T  T  T
 INTERNAL    F  T  T  T  T  T  T  T  T  T  T  T  T  T  T  T  T  T  T  T  T  T  T  T  T  T  T  T  T  T  T  T  T  T  T  T  T  T  T

 Molecular orbitals read from record     4202.2  Type=RHF/CANONICAL (state 1.3)
 *** IN SYMMETRY 1 ORBITAL  1 SYMMETRY CONTAMINATION OF 0.101D-01 HAS BEEN REMOVED

 EXTRA SYMMETRY OF MOS IN SYMMETRY 1:   1 1 3 2 1 3 2 5 4 6   3 2 1 5 4 6 3 2 1 5   4 6 3 2 1
 *** IN SYMMETRY 2 ORBITAL  1 SYMMETRY CONTAMINATION OF 0.100D-01 HAS BEEN REMOVED
 EXTRA SYMMETRY OF MOS IN SYMMETRY 2:   1 1 3 2 1 3 2 1 6 5   4 3 2 1 3 2 6 5 4 1
 *** IN SYMMETRY 3 ORBITAL  1 SYMMETRY CONTAMINATION OF 0.320D-01 HAS BEEN REMOVED
 EXTRA SYMMETRY OF MOS IN SYMMETRY 3:   1 1 3 2 1 3 2 1 6 4   5 3 2 1 3 2 6 4 5 1
 EXTRA SYMMETRY OF MOS IN SYMMETRY 4:   1 1 3 2 1 3 2 1 3 2   1
 *** IN SYMMETRY 5 ORBITAL  1 SYMMETRY CONTAMINATION OF 0.116D-01 HAS BEEN REMOVED
 EXTRA SYMMETRY OF MOS IN SYMMETRY 5:   1 1 3 2 1 3 2 1 4 5   6 3 2 1 3 2 4 5 6 1
 EXTRA SYMMETRY OF MOS IN SYMMETRY 6:   1 1 3 2 1 3 2 1 3 2   1
 EXTRA SYMMETRY OF MOS IN SYMMETRY 7:   1 1 2 3 1 2 3 1 2 3   1
 EXTRA SYMMETRY OF MOS IN SYMMETRY 8:   1 1 2 3 1 1 2 3

 Wavefunction dump at record             5202.2

 Convergence thresholds  0.10E-01 (gradient)  0.10E-05 (energy)  0.10E-02 (step length)

 Weight factors for state symmetry  1:    0.33333
 Weight factors for state symmetry  2:    0.33333
 Weight factors for state symmetry  3:    0.33333

 Number of orbital rotations:       81   (     0 Core/Active     24 Core/Virtual   0 Active/Active     57 Active/Virtual)
 Total number of variables:         84


 ITER. MIC  NCI  NEG     ENERGY(VAR)     ENERGY(PROJ)   ENERGY CHANGE     GRAD(0)  GRAD(ORB)   GRAD(CI)     STEP       TIME

   1   25   12    0     -14.68860902     -14.68946955   -0.00086053    0.03461820 0.00000000 0.00000000  0.29D-01      0.03
   2   13   12    0     -14.68946980     -14.68946981   -0.00000001    0.00011272 0.00000000 0.00000000  0.60D-04      0.07

 ** WVFN ****  CONVERGENCE REACHED, FINAL GRADIENT:  0.20D-08



 Results for state 1.3
 =====================

 !MCSCF STATE 1.3 Energy              -14.689469808062
 Nuclear energy                         0.00000000
 Kinetic energy                         5.49577634
 One electron energy                  -24.68812142
 Two electron energy                    9.99865161
 Virial ratio                           3.67286529

 !MCSCF STATE 1.3 Dipole moment         0.00000000     0.00000000     0.00000000
 Dipole moment /Debye                   0.00000000     0.00000000     0.00000000



 Results for state 1.5
 =====================

 !MCSCF STATE 1.5 Energy              -14.689469808060
 Nuclear energy                         0.00000000
 Kinetic energy                         5.49577634
 One electron energy                  -24.68812142
 Two electron energy                    9.99865161
 Virial ratio                           3.67286529

 !MCSCF STATE 1.5 Dipole moment         0.00000000     0.00000000     0.00000000
 Dipole moment /Debye                   0.00000000     0.00000000     0.00000000



 Results for state 1.2
 =====================

 !MCSCF STATE 1.2 Energy              -14.689469808060
 Nuclear energy                         0.00000000
 Kinetic energy                         5.49577634
 One electron energy                  -24.68812142
 Two electron energy                    9.99865161
 Virial ratio                           3.67286529

 !MCSCF STATE 1.2 Dipole moment         0.00000000     0.00000000     0.00000000
 Dipole moment /Debye                   0.00000000     0.00000000     0.00000000

 State-averaged charge density matrix saved on record  5202.2 (density set 1)

 !MCSCF expec        <1.3|EKIN|1.3>     5.495776338968
 !MCSCF expec        <1.5|EKIN|1.5>     5.495776339063
 !MCSCF expec        <1.2|EKIN|1.2>     5.495776339063

 !MCSCF expec         <1.3|POT|1.3>    -4.697964818326
 !MCSCF expec         <1.5|POT|1.5>    -4.697964818359
 !MCSCF expec         <1.2|POT|1.2>    -4.697964818359


 NATURAL ORBITALS (state averaged)
 =================================

   Orb     Occ        Energy       Coefficients

                                   1 1s      1 1s      1 1s      1 1s      1 1s      1 1s      1 3d0     1 3d2+    1 3d0     1 3d2+ 
                                   1 3d0     1 3d2+    1 3d0     1 3d2+    1 3d0     1 3d2+    1 5g0     1 5g4+    1 5g2+    1 5g0  
                                   1 5g4+    1 5g2+    1 5g0     1 5g4+    1 5g2+ 

   1.1  2.00000    -1.079895     1.000199  0.000202 -0.000528  0.000647 -0.000918  0.000466  0.000000  0.000000  0.000000  0.000000
                                 0.000000  0.000000  0.000000  0.000000  0.000000  0.000000  0.000000  0.000000  0.000000  0.000000
                                 0.000000  0.000000  0.000000  0.000000  0.000000

                                   1 2px     1 2px     1 2px     1 2px     1 2px     1 2px     1 4f1+    1 4f3+    1 4f1+    1 4f3+ 
                                   1 4f1+    1 4f3+    1 4f1+    1 4f3+    1 6h1+    1 6h3+    1 6h5+    1 6h1+    1 6h3+    1 6h5+ 


   1.2  1.66667    -0.427664     0.999702 -0.000016  0.000013  0.000134  0.000059  0.000135  0.000000  0.000000  0.000000  0.000000
                                 0.000000  0.000000  0.000000  0.000000  0.000000  0.000000  0.000000  0.000000  0.000000  0.000000

                                   1 2py     1 2py     1 2py     1 2py     1 2py     1 2py     1 4f1-    1 4f3-    1 4f1-    1 4f3- 
                                   1 4f1-    1 4f3-    1 4f1-    1 4f3-    1 6h1-    1 6h3-    1 6h5-    1 6h1-    1 6h3-    1 6h5- 


   1.3  1.66667    -0.427664     0.999702 -0.000016  0.000013  0.000134  0.000059  0.000135  0.000000  0.000000  0.000000  0.000000
                                 0.000000  0.000000  0.000000  0.000000  0.000000  0.000000  0.000000  0.000000  0.000000  0.000000

                                   1 2pz     1 2pz     1 2pz     1 2pz     1 2pz     1 2pz     1 4f0     1 4f2+    1 4f0     1 4f2+ 
                                   1 4f0     1 4f2+    1 4f0     1 4f2+    1 6h2+    1 6h4+    1 6h0     1 6h2+    1 6h4+    1 6h0  


   1.5  1.66667    -0.427664     0.999702 -0.000016  0.000013  0.000134  0.000059  0.000135  0.000000  0.000000  0.000000  0.000000
                                 0.000000  0.000000  0.000000  0.000000  0.000000  0.000000  0.000000  0.000000  0.000000  0.000000
 

 EXTRA SYMMETRY OF MOS IN SYMMETRY 1:   1 1 2 3 1 2 3 5 6 4   3 2 1 6 4 5 2 3 1 4   6 5 2 3 1
 EXTRA SYMMETRY OF MOS IN SYMMETRY 2:   1 1 3 2 1 3 2 1 6 5   4 2 3 1 2 3 4 5 6 1
 EXTRA SYMMETRY OF MOS IN SYMMETRY 3:   1 1 3 2 1 3 2 1 6 5   4 2 3 1 2 3 5 4 6 1
 EXTRA SYMMETRY OF MOS IN SYMMETRY 4:   1 1 3 2 1 2 3 1 2 3   1
 EXTRA SYMMETRY OF MOS IN SYMMETRY 5:   1 1 3 2 1 3 2 1 5 4   6 2 3 1 2 3 6 4 5 1
 EXTRA SYMMETRY OF MOS IN SYMMETRY 6:   1 1 3 2 1 3 2 1 2 3   1
 EXTRA SYMMETRY OF MOS IN SYMMETRY 7:   1 1 3 2 1 3 2 1 3 2   1
 EXTRA SYMMETRY OF MOS IN SYMMETRY 8:   1 1 2 3 1 1 3 2

 Natural orbital dump (state averaged) at molpro section  5202.2    (Orbital set 2)


 CI vector for state symmetry 1
 ==============================

 2 a 2           1.0000000

 TOTAL ENERGIES                       -14.68946981

 CI vector for state symmetry 2
 ==============================

 2 2 a           1.0000000

 TOTAL ENERGIES                       -14.68946981

 CI vector for state symmetry 3
 ==============================

 a 2 2           1.0000000

 TOTAL ENERGIES                       -14.68946981



 **********************************************************************************************************************************
 DATASETS  * FILE   NREC   LENGTH (MB)   RECORD NAMES
              1      21       38.65       500      610      700      900      950      970     1000      129      960     1100   
                                          VAR    BASINP    GEOM    SYMINP    ZMAT    AOBASIS   BASIS     P2S    ABASIS      S 
                                         1400     1410     1420     1200     1210     1080     1600     1650     1300     1700   
                                         EKIN       V       ECP      H0       H01     AOSYM     SMH    MOLCAS    ERIS     OPER   
                                         1380   
                                         JKOP   

              2       5        5.40       700     1000      520     4202     5202   
                                         GEOM     BASIS   MCVARS     RHF     MCSCF   

 PROGRAMS   *        TOTAL     MULTI       RHF       INT
 CPU TIMES  *         1.81      0.12      0.16      1.43
 REAL TIME  *         4.23 SEC
 DISK USED  *        89.27 MB      
 **********************************************************************************************************************************


 PROGRAM * RHF-SCF (OPEN SHELL)       Authors: W. Meyer, H.-J. Werner


 NUMBER OF ELECTRONS:       4+    3-    SPACE SYMMETRY=3    SPIN SYMMETRY: Doublet 
 CONVERGENCE THRESHOLDS:    1.00E-05 (Density)    1.00E-07 (Energy)
 MAX. NUMBER OF ITERATIONS:        0
 INTERPOLATION TYPE:            DIIS
 INTERPOLATION STEPS:              2 (START)      1 (STEP)
 LEVEL SHIFTS:                 -0.60 (CLOSED) -0.30 (OPEN) 


 Singly occupied orbitals:      1.3
 Molecular orbitals read from record     5202.2  Type=MCSCF/NATURAL (state averaged)

 Molecular orbital dump at record        2101.2

 ITERATION    DDIFF          GRAD             ENERGY        2-EL.EN.            DIPOLE MOMENTS         DIIS   ORB.
    1      0.000D+00      0.000D+00       -14.68946981     19.997303    0.00000    0.00000    0.00000    0    start

 Final alpha occupancy:   1   1   1   0   1   0   0   0
 Final beta  occupancy:   1   1   0   0   1   0   0   0

 !RHF STATE 1.3 Energy                -14.689469808062
 Nuclear energy                         0.00000000
 One-electron energy                  -24.68812142
 Two-electron energy                    9.99865161
 Virial quotient                       -2.67286529
 !RHF STATE 1.3 Dipole moment           0.00000000     0.00000000     0.00000000
 Dipole moment /Debye                   0.00000000     0.00000000     0.00000000
 

 !RHF expec          <1.3|EKIN|1.3>     5.495776338968
 
 !RHF expec           <1.3|POT|1.3>    -4.697964818326

 ELECTRON ORBITALS
 =================


   Orb  Occ    Energy  Couls-En    Coefficients

                                   1 1s      1 1s      1 1s      1 1s      1 1s      1 1s      1 3d0     1 3d2+    1 3d0     1 3d2+ 
                                   1 3d0     1 3d2+    1 3d0     1 3d2+    1 3d0     1 3d2+    1 5g0     1 5g4+    1 5g2+    1 5g0  
                                   1 5g4+    1 5g2+    1 5g0     1 5g4+    1 5g2+ 

   1.1   2    -1.0799   -5.0931  1.000199  0.000202 -0.000528  0.000647 -0.000918  0.000466  0.000000  0.000000  0.000000  0.000000
                                 0.000000  0.000000  0.000000  0.000000  0.000000  0.000000  0.000000  0.000000  0.000000  0.000000
                                 0.000000  0.000000  0.000000  0.000000  0.000000

                                   1 2px     1 2px     1 2px     1 2px     1 2px     1 2px     1 4f1+    1 4f3+    1 4f1+    1 4f3+ 
                                   1 4f1+    1 4f3+    1 4f1+    1 4f3+    1 6h1+    1 6h3+    1 6h5+    1 6h1+    1 6h3+    1 6h5+ 


   1.2   2    -0.4277   -3.7600  0.999702 -0.000016  0.000013  0.000134  0.000059  0.000135  0.000000  0.000000  0.000000  0.000000
                                 0.000000  0.000000  0.000000  0.000000  0.000000  0.000000  0.000000  0.000000  0.000000  0.000000

                                   1 2py     1 2py     1 2py     1 2py     1 2py     1 2py     1 4f1-    1 4f3-    1 4f1-    1 4f3- 
                                   1 4f1-    1 4f3-    1 4f1-    1 4f3-    1 6h1-    1 6h3-    1 6h5-    1 6h1-    1 6h3-    1 6h5- 


   1.3   +    -0.4277   -3.7600  0.999702 -0.000016  0.000013  0.000134  0.000059  0.000135  0.000000  0.000000  0.000000  0.000000
                                 0.000000  0.000000  0.000000  0.000000  0.000000  0.000000  0.000000  0.000000  0.000000  0.000000

                                   1 2pz     1 2pz     1 2pz     1 2pz     1 2pz     1 2pz     1 4f0     1 4f2+    1 4f0     1 4f2+ 
                                   1 4f0     1 4f2+    1 4f0     1 4f2+    1 6h2+    1 6h4+    1 6h0     1 6h2+    1 6h4+    1 6h0  


   1.5   2    -0.4277   -3.7600  0.999702 -0.000016  0.000013  0.000134  0.000059  0.000135  0.000000  0.000000  0.000000  0.000000
                                 0.000000  0.000000  0.000000  0.000000  0.000000  0.000000  0.000000  0.000000  0.000000  0.000000

 HOMO      1.2    -0.427664 =     -11.6373eV
 LUMO      2.1     0.112298 =       3.0558eV
 LUMO-HOMO         0.539961 =      14.6931eV


 **********************************************************************************************************************************
 DATASETS  * FILE   NREC   LENGTH (MB)   RECORD NAMES
              1      21       38.65       500      610      700      900      950      970     1000      129      960     1100   
                                          VAR    BASINP    GEOM    SYMINP    ZMAT    AOBASIS   BASIS     P2S    ABASIS      S 
                                         1400     1410     1420     1200     1210     1080     1600     1650     1300     1700   
                                         EKIN       V       ECP      H0       H01     AOSYM     SMH    MOLCAS    ERIS     OPER   
                                         1380   
                                         JKOP   

              2       6        8.00       700     1000      520     4202     5202     2101   
                                         GEOM     BASIS   MCVARS     RHF     MCSCF     RHF  

 PROGRAMS   *        TOTAL       RHF     MULTI       RHF       INT
 CPU TIMES  *         1.84      0.03      0.12      0.16      1.43
 REAL TIME  *         4.38 SEC
 DISK USED  *        89.27 MB      
 **********************************************************************************************************************************
 SETTING SCF(I)         =       -14.68946981  AU                              
 SETTING _CC_NORM_MAX   =         2.00000000                                  


 PROGRAM * CI (Multireference internally contracted CI)     Authors: H.-J. Werner, P.J. Knowles, 1987


 Convergence thresholds:  THRVAR = 1.00D-08  THRDEN = 1.00D-06

 Number of optimized states:  1  Roots:   1
 Number of reference states:  1  Roots:   1

 Reference symmetry:                   3   Doublet 
 Number of electrons:                  7
 Maximum number of shells:             3
 Maximum number of spin couplings:     5

 Reference space:        1 conf        1 CSFs
 N elec internal:        4 conf        4 CSFs
 N-1 el internal:       10 conf       16 CSFs
 N-2 el internal:        9 conf       27 CSFs

 Number of electrons in valence space:                      7
 Maximum number of open shell orbitals in reference space:  1
 Maximum number of open shell orbitals in internal spaces:  5


 Number of closed-shell orbitals:   3 (   1   1   0   0   1   0   0   0 )
 Number of active  orbitals:        1 (   0   0   1   0   0   0   0   0 )
 Number of external orbitals:     122 (  24  19  19  11  19  11  11   8 )

 Molecular orbitals read from record     2101.2  Type=RHF/CANONICAL (state 1.3)

 Coulomb and exchange operators available. No transformation done.

 Number of p-space configurations:   1

 Reference wavefunction optimized for reference space (refopt=1)

 State     Reference Energy 
   1         -14.68946981

 Number of blocks in overlap matrix:    15   Smallest eigenvalue:  0.10D+01
 Number of N-2 electron functions:      15
 Number of N-1 electron functions:      16

 Number of internal configurations:                    1
 Number of singly external configurations:           260
 Number of doubly external configurations:         14472
 Total number of contracted configurations:        14733
 Total number of uncontracted configurations:      26145

 Diagonal Coupling coefficients finished.               Storage:     982 words, CPU-Time:      0.00 seconds.
 Energy denominators for pairs finished in 1 passes.    Storage:   15469 words, CPU-time:      0.00 seconds.

  ITER. STATE  ROOT     SQ.NORM     CORR.ENERGY   TOTAL ENERGY   ENERGY CHANGE       DEN1      VAR(S)    VAR(P)      TIME
    1     1     1     1.00000000     0.00000000   -14.68946981     0.00000000    -0.22962667  0.19D-01  0.70D-01     0.01
    2     1     1     1.07357335    -0.20903531   -14.89850512    -0.20903531    -0.00369581  0.77D-03  0.62D-03     0.05
    3     1     1     1.07643855    -0.21290340   -14.90237320    -0.00386809    -0.00010817  0.11D-04  0.26D-04     0.09
    4     1     1     1.07701186    -0.21302292   -14.90249273    -0.00011953    -0.00000401  0.43D-06  0.10D-05     0.14
    5     1     1     1.07717309    -0.21302772   -14.90249753    -0.00000480    -0.00000017  0.17D-07  0.41D-07     0.18
    6     1     1     1.07716827    -0.21302791   -14.90249772    -0.00000019    -0.00000001  0.74D-09  0.12D-08     0.23


 =====================================
 Analysis of CPU times by interactions
 =====================================

       I      S      P

 I   0.0%
 S   0.0%   0.0%
 P   0.0%   4.3%   0.0%

 Initialization:   4.3%
 Other:           91.3%

 Total CPU:        0.2 seconds
 =====================================



 Reference coefficients greater than 0.0500000
 =============================================
 22/2           0.9635144



 RESULTS FOR STATE 1.3
 =====================

 Coefficient of reference function:   C(0) = 0.96351443 (fixed)   0.96351443 (relaxed)

 Energy contributions of configuration classes

 CLASS          SQ.NORM        ECORR1        ECORR2
 +++++++++++++++++++++++++++++++++++++++++++++++++++
 Internals    0.00000000    0.00000000    0.00000000
 Singles      0.01547520   -0.02832129   -0.02935361
 Pairs        0.06169307   -0.18470662   -0.18367430
 Total        1.07716827   -0.21302791   -0.21302791
 +++++++++++++++++++++++++++++++++++++++++++++++++++


 Reference energy                     -14.68946981
 Nuclear energy                         0.00000000
 Kinetic energy                         5.72725848
 One electron energy                  -24.58767435
 Two electron energy                    9.68517663
 Virial quotient                       -2.60202988
 Correlation energy                    -0.21302791
 !CI(SD) STATE 1.3 Energy             -14.902497717970

 Properties without orbital relaxation:

 !CI(SD) STATE 1.3 Dipole moment        0.00000000     0.00000000     0.00000000
 Dipole moment /Debye                   0.00000000     0.00000000     0.00000000

 Cluster corrected energies           -14.91893671 (Davidson, fixed reference)
 Cluster corrected energies           -14.91893671 (Davidson, relaxed reference)

 Cluster corrected energies           -14.91373076 (Pople, fixed reference)
 Cluster corrected energies           -14.91373076 (Pople, relaxed reference)

 

 !CI(SD) expec       <1.3|EKIN|1.3>     5.727258481965
 
 !CI(SD) expec        <1.3|POT|1.3>    -4.716513887612


 **********************************************************************************************************************************
 DATASETS  * FILE   NREC   LENGTH (MB)   RECORD NAMES
              1      21       38.65       500      610      700      900      950      970     1000      129      960     1100   
                                          VAR    BASINP    GEOM    SYMINP    ZMAT    AOBASIS   BASIS     P2S    ABASIS      S 
                                         1400     1410     1420     1200     1210     1080     1600     1650     1300     1700   
                                         EKIN       V       ECP      H0       H01     AOSYM     SMH    MOLCAS    ERIS     OPER   
                                         1380   
                                         JKOP   

              2       6        8.00       700     1000      520     4202     5202     2101   
                                         GEOM     BASIS   MCVARS     RHF     MCSCF     RHF  

 PROGRAMS   *        TOTAL        CI       RHF     MULTI       RHF       INT
 CPU TIMES  *         2.10      0.26      0.03      0.12      0.16      1.43
 REAL TIME  *         5.30 SEC
 DISK USED  *        89.27 MB      
 **********************************************************************************************************************************
 SETTING POSTHF(I)      =       -14.90249772  AU                              
                                                                                                                                                                                                                                                                

        SCF            POSTHF       EKIN          POT
    -14.68946981   -14.90249772   5.72725848   -4.71651389
                                                  

 CI/USERDEF energy=    -14.902497717970

        CI              RHF-SCF         MULTI           RHF-SCF 
    -14.90249772    -14.68946981    -14.68946981    -14.69133957
 **********************************************************************************************************************************
 Variable memory released
