
 Primary working directories    : /global/cscratch1/sd/aannabe
 Secondary working directories  : /global/cscratch1/sd/aannabe
 Wavefunction directory         : /global/homes/a/aannabe/wfu/
 Main file repository           : /global/cscratch1/sd/aannabe/

 SHA1      : 2873118e99aab1bc19f5b6fc1784693c06d15c95
 NAME      : 2015.1.8
 ARCHNAME  : linux/x86_64
 FC        : /opt/cray/pe/craype/2.5.5/bin/ftn
 BLASLIB   : -Wl,-_start-group /opt/intel/compilers_and_libraries_2016.3.210/linux/mkl/lib/intel64/libmkl_intel_ilp64.a /opt/intel/compilers_and_libraries_2016.3.210/linux/mkl/lib/intel64/libmkl_intel_thread.a /opt/intel/compilers_and_libraries_2016.3.210/linux/mkl/lib/intel64/libmkl_core.a -Wl,-_end-group
 id        : lbl

 Nodes     nprocs
 nid00474     1

 Using customized tuning parameters: mindgm=8; mindgv=16; mindgc=4; mindgr=1; noblas=0; minvec=7
 default implementation of scratch files=df  

 ***,Cl
 memory,512,m
 gthresh,twoint=1.e-12
 
 gprint,basis,orbitals
 gexpec,ekin,pot
 
 angstrom
 geometry={
 1                                                                               ! Number of atoms
 Cl 0.0 0.0 0.0
 }
 
 basis={
 Including file /global/homes/a/aannabe/docs/accurate/ccECP_Kh/pps/Cl.pp
 Including file /global/homes/a/aannabe/docs/accurate/ccECP_Kh/basis/aug-cc-pVnZ/Cl_5z.basis
 }
 
 {rhf
  start,atden
  wf,7,3,1
  occ,1,1,1,0,1,0,0,0
  open,1.3
  orbital,4202.2
 }
 {multi
  maxiter,40
  start,4202.2
  occ,1,1,1,0,1,0,0,0
  closed,1,0,0,0,0,0,0
  wf,7,3,1;state,1
  wf,7,5,1;state,1
  wf,7,2,1;state,1
  natorb,ci,print
  orbital,5202.2
 }
 {rhf,nitord=1,maxit=0
  start,5202.2
  wf,7,3,1
  occ,1,1,1,0,1,0,0,0
  open,1.3
 }
 
 scf(i)=energy
 
 _CC_NORM_MAX=2.0
 {ci
 maxit,100
 core
 }
 posthf(i)=energy
 
 table,scf,posthf,ekin,pot
 save,5.csv,new
 
 

 Variables initialized (889), CPU time= 0.00 sec
 Commands  initialized (702), CPU time= 0.01 sec, 572 directives.
 Default parameters read. Elapsed time= 0.23 sec

 Checking input...
 Passed
1


                                         ***  PROGRAM SYSTEM MOLPRO  ***
                                       Copyright, TTI GmbH Stuttgart, 2015
                                    Version 2015.1 linked Sep  7 2016 23:09:38


 **********************************************************************************************************************************
 LABEL *   Cl                                                                            
  64 bit serial version                                                                  DATE: 30-Oct-18          TIME: 12:26:46  
 **********************************************************************************************************************************

 SHA1:             2873118e99aab1bc19f5b6fc1784693c06d15c95
 **********************************************************************************************************************************

 THRESHOLDS:

 ZERO    =  1.00D-12  ONEINT  =  1.00D-12  TWOINT  =  1.00D-12  PREFAC  =  1.00D-14  LOCALI  =  1.00D-09  EORDER  =  1.00D-04
 ENERGY  =  0.00D+00  ETEST   =  0.00D+00  EDENS   =  0.00D+00  THRDEDEF=  1.00D-06  GRADIENT=  1.00D-02  STEP    =  1.00D-03
 ORBITAL =  1.00D-05  CIVEC   =  1.00D-05  COEFF   =  1.00D-04  PRINTCI =  5.00D-02  PUNCHCI =  9.90D+01  OPTGRAD =  3.00D-04
 OPTENERG=  1.00D-06  OPTSTEP =  3.00D-04  THRGRAD =  1.00D-10  COMPRESS=  1.00D-11  VARMIN  =  1.00D-07  VARMAX  =  1.00D-03
 THRDOUB =  0.00D+00  THRDIV  =  1.00D-05  THRRED  =  1.00D-07  THRPSP  =  1.00D+00  THRDC   =  1.00D-10  THRCS   =  1.00D-10
 THRNRM  =  1.00D-08  THREQ   =  0.00D+00  THRDE   =  1.00D+00  THRREF  =  1.00D-05  SPARFAC =  1.00D+00  THRDLP  =  1.00D-07
 THRDIA  =  1.00D-10  THRDLS  =  1.00D-07  THRGPS  =  0.00D+00  THRKEX  =  0.00D+00  THRDIS  =  2.00D-01  THRVAR  =  1.00D-10
 THRLOC  =  1.00D-06  THRGAP  =  1.00D-06  THRLOCT = -1.00D+00  THRGAPT = -1.00D+00  THRORB  =  1.00D-06  THRMLTP =  0.00D+00
 THRCPQCI=  1.00D-10  KEXTA   =  0.00D+00  THRCOARS=  0.00D+00  SYMTOL  =  1.00D-06  GRADTOL =  1.00D-06  THROVL  =  1.00D-08
 THRORTH =  1.00D-08  GRID    =  1.00D-06  GRIDMAX =  1.00D-03  DTMAX   =  0.00D+00  THROCCDE=  1.00D-01  THROCCDE=  1.00D-01



 ZUNIT=ANG
 

Geometry recognized as XYZ


 Variable memory set to  512000000 words,  buffer space   230000 words

 SETTING BASIS          =    USERDEF


 Recomputing integrals since basis changed


 Using spherical harmonics



 PROGRAM * SEWARD (Integral evaluation for generally contracted gaussian basis sets)     Author: Roland Lindh, 1990

 Geometry written to block  1 of record 700

 Orientation using atomic masses  
 Molecule type: Atom
 Symmetry elements: X,Y,Z
 Rotational constants:       0.0000000      0.0000000      0.0000000 GHz  (calculated with average atomic masses)

 Point group  D2h 



 ATOMIC COORDINATES

 NR  ATOM    CHARGE       X              Y              Z

   1  CL      7.00    0.000000000    0.000000000    0.000000000


          CL  CORE POTENTIAL

          d POTENTIAL

 POWERS             1              3              2
 EXPONENTIALS   22.71655       78.57186       7.473524    
 COEFFICIENTS   7.000000       159.0159      -15.65311    

          s - d POTENTIAL

 POWERS             2              2
 EXPONENTIALS   17.23709       4.311484    
 COEFFICIENTS   6.508887       46.76347    

          p - d POTENTIAL

 POWERS             2              2
 EXPONENTIALS   11.38276       3.832188    
 COEFFICIENTS   2.994648       28.01703    


 BASIS DATA

   Nr Sym  Nuc  Type         Exponents   Contraction coefficients

    1.1 Ag    1  1s         121.784657    -0.000084
                             56.497265     0.000344
                             26.209713    -0.001779
                             12.158979    -0.008113
                              5.640687     0.080978
                              2.616778    -0.349434
                              1.213952    -0.003247
                              0.563166     0.523459
                              0.261259     0.512037
                              0.121201     0.155551
    2.1 Ag    1  1s           1.214979     1.000000
    3.1 Ag    1  1s           0.574994     1.000000
    4.1 Ag    1  1s           0.272118     1.000000
    5.1 Ag    1  1s           0.128781     1.000000
    6.1 Ag    1  1s           0.060946     1.000000
    7.1 Ag    1  3d0          5.802908     1.000000
    8.1 Ag    1  3d2+         5.802908     1.000000
    9.1 Ag    1  3d0          2.500442     1.000000
   10.1 Ag    1  3d2+         2.500442     1.000000
   11.1 Ag    1  3d0          1.077427     1.000000
   12.1 Ag    1  3d2+         1.077427     1.000000
   13.1 Ag    1  3d0          0.464258     1.000000
   14.1 Ag    1  3d2+         0.464258     1.000000
   15.1 Ag    1  3d0          0.200046     1.000000
   16.1 Ag    1  3d2+         0.200046     1.000000
   17.1 Ag    1  5g0          1.680124     1.000000
   18.1 Ag    1  5g4+         1.680124     1.000000
   19.1 Ag    1  5g2+         1.680124     1.000000
   20.1 Ag    1  5g0          0.819714     1.000000
   21.1 Ag    1  5g4+         0.819714     1.000000
   22.1 Ag    1  5g2+         0.819714     1.000000
   23.1 Ag    1  5g0          0.399930     1.000000
   24.1 Ag    1  5g4+         0.399930     1.000000
   25.1 Ag    1  5g2+         0.399930     1.000000
    1.2 B3u   1  2px         54.697219     0.000609
                             26.221027    -0.003171
                             12.569967     0.004954
                              6.025854     0.008120
                              2.888704    -0.068073
                              1.384801     0.098087
                              0.663853     0.338027
                              0.318241     0.393784
                              0.152560     0.266541
                              0.073135     0.073962
    2.2 B3u   1  2px          1.179732     1.000000
    3.2 B3u   1  2px          0.544589     1.000000
    4.2 B3u   1  2px          0.251394     1.000000
    5.2 B3u   1  2px          0.116049     1.000000
    6.2 B3u   1  2px          0.053570     1.000000
    7.2 B3u   1  4f1+         2.232581     1.000000
    8.2 B3u   1  4f3+         2.232581     1.000000
    9.2 B3u   1  4f1+         1.006153     1.000000
   10.2 B3u   1  4f3+         1.006153     1.000000
   11.2 B3u   1  4f1+         0.453441     1.000000
   12.2 B3u   1  4f3+         0.453441     1.000000
   13.2 B3u   1  4f1+         0.204351     1.000000
   14.2 B3u   1  4f3+         0.204351     1.000000
   15.2 B3u   1  6h1+         1.739114     1.000000
   16.2 B3u   1  6h3+         1.739114     1.000000
   17.2 B3u   1  6h5+         1.739114     1.000000
   18.2 B3u   1  6h1+         0.904788     1.000000
   19.2 B3u   1  6h3+         0.904788     1.000000
   20.2 B3u   1  6h5+         0.904788     1.000000
    1.3 B2u   1  2py         54.697219     0.000609
                             26.221027    -0.003171
                             12.569967     0.004954
                              6.025854     0.008120
                              2.888704    -0.068073
                              1.384801     0.098087
                              0.663853     0.338027
                              0.318241     0.393784
                              0.152560     0.266541
                              0.073135     0.073962
    2.3 B2u   1  2py          1.179732     1.000000
    3.3 B2u   1  2py          0.544589     1.000000
    4.3 B2u   1  2py          0.251394     1.000000
    5.3 B2u   1  2py          0.116049     1.000000
    6.3 B2u   1  2py          0.053570     1.000000
    7.3 B2u   1  4f1-         2.232581     1.000000
    8.3 B2u   1  4f3-         2.232581     1.000000
    9.3 B2u   1  4f1-         1.006153     1.000000
   10.3 B2u   1  4f3-         1.006153     1.000000
   11.3 B2u   1  4f1-         0.453441     1.000000
   12.3 B2u   1  4f3-         0.453441     1.000000
   13.3 B2u   1  4f1-         0.204351     1.000000
   14.3 B2u   1  4f3-         0.204351     1.000000
   15.3 B2u   1  6h1-         1.739114     1.000000
   16.3 B2u   1  6h3-         1.739114     1.000000
   17.3 B2u   1  6h5-         1.739114     1.000000
   18.3 B2u   1  6h1-         0.904788     1.000000
   19.3 B2u   1  6h3-         0.904788     1.000000
   20.3 B2u   1  6h5-         0.904788     1.000000
    1.4 B1g   1  3d2-         5.802908     1.000000
    2.4 B1g   1  3d2-         2.500442     1.000000
    3.4 B1g   1  3d2-         1.077427     1.000000
    4.4 B1g   1  3d2-         0.464258     1.000000
    5.4 B1g   1  3d2-         0.200046     1.000000
    6.4 B1g   1  5g2-         1.680124     1.000000
    7.4 B1g   1  5g4-         1.680124     1.000000
    8.4 B1g   1  5g2-         0.819714     1.000000
    9.4 B1g   1  5g4-         0.819714     1.000000
   10.4 B1g   1  5g2-         0.399930     1.000000
   11.4 B1g   1  5g4-         0.399930     1.000000
    1.5 B1u   1  2pz         54.697219     0.000609
                             26.221027    -0.003171
                             12.569967     0.004954
                              6.025854     0.008120
                              2.888704    -0.068073
                              1.384801     0.098087
                              0.663853     0.338027
                              0.318241     0.393784
                              0.152560     0.266541
                              0.073135     0.073962
    2.5 B1u   1  2pz          1.179732     1.000000
    3.5 B1u   1  2pz          0.544589     1.000000
    4.5 B1u   1  2pz          0.251394     1.000000
    5.5 B1u   1  2pz          0.116049     1.000000
    6.5 B1u   1  2pz          0.053570     1.000000
    7.5 B1u   1  4f0          2.232581     1.000000
    8.5 B1u   1  4f2+         2.232581     1.000000
    9.5 B1u   1  4f0          1.006153     1.000000
   10.5 B1u   1  4f2+         1.006153     1.000000
   11.5 B1u   1  4f0          0.453441     1.000000
   12.5 B1u   1  4f2+         0.453441     1.000000
   13.5 B1u   1  4f0          0.204351     1.000000
   14.5 B1u   1  4f2+         0.204351     1.000000
   15.5 B1u   1  6h2+         1.739114     1.000000
   16.5 B1u   1  6h4+         1.739114     1.000000
   17.5 B1u   1  6h0          1.739114     1.000000
   18.5 B1u   1  6h2+         0.904788     1.000000
   19.5 B1u   1  6h4+         0.904788     1.000000
   20.5 B1u   1  6h0          0.904788     1.000000
    1.6 B2g   1  3d1+         5.802908     1.000000
    2.6 B2g   1  3d1+         2.500442     1.000000
    3.6 B2g   1  3d1+         1.077427     1.000000
    4.6 B2g   1  3d1+         0.464258     1.000000
    5.6 B2g   1  3d1+         0.200046     1.000000
    6.6 B2g   1  5g1+         1.680124     1.000000
    7.6 B2g   1  5g3+         1.680124     1.000000
    8.6 B2g   1  5g1+         0.819714     1.000000
    9.6 B2g   1  5g3+         0.819714     1.000000
   10.6 B2g   1  5g1+         0.399930     1.000000
   11.6 B2g   1  5g3+         0.399930     1.000000
    1.7 B3g   1  3d1-         5.802908     1.000000
    2.7 B3g   1  3d1-         2.500442     1.000000
    3.7 B3g   1  3d1-         1.077427     1.000000
    4.7 B3g   1  3d1-         0.464258     1.000000
    5.7 B3g   1  3d1-         0.200046     1.000000
    6.7 B3g   1  5g1-         1.680124     1.000000
    7.7 B3g   1  5g3-         1.680124     1.000000
    8.7 B3g   1  5g1-         0.819714     1.000000
    9.7 B3g   1  5g3-         0.819714     1.000000
   10.7 B3g   1  5g1-         0.399930     1.000000
   11.7 B3g   1  5g3-         0.399930     1.000000
    1.8 Au    1  4f2-         2.232581     1.000000
    2.8 Au    1  4f2-         1.006153     1.000000
    3.8 Au    1  4f2-         0.453441     1.000000
    4.8 Au    1  4f2-         0.204351     1.000000
    5.8 Au    1  6h4-         1.739114     1.000000
    6.8 Au    1  6h2-         1.739114     1.000000
    7.8 Au    1  6h4-         0.904788     1.000000
    8.8 Au    1  6h2-         0.904788     1.000000

 NUCLEAR CHARGE:                    7
 NUMBER OF PRIMITIVE AOS:         217
 NUMBER OF SYMMETRY AOS:          162
 NUMBER OF CONTRACTIONS:          126   (  25Ag  +  20B3u +  20B2u +  11B1g +  20B1u +  11B2g +  11B3g +   8Au  )
 NUMBER OF CORE ORBITALS:           0   (   0Ag  +   0B3u +   0B2u +   0B1g +   0B1u +   0B2g +   0B3g +   0Au  )
 NUMBER OF VALENCE ORBITALS:        4   (   1Ag  +   1B3u +   1B2u +   0B1g +   1B1u +   0B2g +   0B3g +   0Au  )


 NUCLEAR REPULSION ENERGY    0.00000000

 EXTRA SYMMETRY OF AOS IN SYMMETRY 1:   1 1 1 1 1 1 2 3 2 3   2 3 2 3 2 3 4 5 6 4   5 6 4 5 6
 EXTRA SYMMETRY OF AOS IN SYMMETRY 2:   1 1 1 1 1 1 2 3 2 3   2 3 2 3 4 5 6 4 5 6
 EXTRA SYMMETRY OF AOS IN SYMMETRY 3:   1 1 1 1 1 1 2 3 2 3   2 3 2 3 4 5 6 4 5 6
 EXTRA SYMMETRY OF AOS IN SYMMETRY 4:   1 1 1 1 1 2 3 2 3 2   3
 EXTRA SYMMETRY OF AOS IN SYMMETRY 5:   1 1 1 1 1 1 2 3 2 3   2 3 2 3 4 5 6 4 5 6
 EXTRA SYMMETRY OF AOS IN SYMMETRY 6:   1 1 1 1 1 2 3 2 3 2   3
 EXTRA SYMMETRY OF AOS IN SYMMETRY 7:   1 1 1 1 1 2 3 2 3 2   3
 EXTRA SYMMETRY OF AOS IN SYMMETRY 8:   1 1 1 1 2 3 2 3

 Eigenvalues of metric

         1 0.677E-03 0.398E-02 0.340E-01 0.382E-01 0.382E-01 0.126E+00 0.126E+00 0.126E+00
         2 0.333E-03 0.111E-01 0.746E-01 0.746E-01 0.753E-01 0.289E+00 0.289E+00 0.289E+00
         3 0.333E-03 0.111E-01 0.746E-01 0.746E-01 0.753E-01 0.289E+00 0.289E+00 0.289E+00
         4 0.382E-01 0.126E+00 0.126E+00 0.169E+00 0.573E+00 0.730E+00 0.730E+00 0.148E+01
         5 0.333E-03 0.111E-01 0.746E-01 0.746E-01 0.753E-01 0.289E+00 0.289E+00 0.289E+00
         6 0.382E-01 0.126E+00 0.126E+00 0.169E+00 0.573E+00 0.730E+00 0.730E+00 0.148E+01
         7 0.382E-01 0.126E+00 0.126E+00 0.169E+00 0.573E+00 0.730E+00 0.730E+00 0.148E+01
         8 0.746E-01 0.289E+00 0.289E+00 0.359E+00 0.115E+01 0.171E+01 0.171E+01 0.242E+01


 Contracted 2-electron integrals neglected if value below      1.0D-12
 AO integral compression algorithm  1   Integral accuracy      1.0D-12

     32.768 MB (compressed) written to integral file ( 58.8%)


 NUMBER OF SORTED TWO-ELECTRON INTEGRALS:    4156552.     BUFFER LENGTH:  32768
 NUMBER OF SEGMENTS:   1  SEGMENT LENGTH:    4156552      RECORD LENGTH: 524288

 Memory used in sort:       4.71 MW

 SORT1 READ     6989366. AND WROTE     2907704. INTEGRALS IN      9 RECORDS. CPU TIME:     0.23 SEC, REAL TIME:     0.31 SEC
 SORT2 READ     2907704. AND WROTE     4156552. INTEGRALS IN    125 RECORDS. CPU TIME:     0.20 SEC, REAL TIME:     0.38 SEC

 FILE SIZES:   FILE 1:    52.2 MBYTE,  FILE 4:    37.8 MBYTE,   TOTAL:     90.0 MBYTE

 OPERATOR DM      FOR CENTER  0  COORDINATES:    0.000000    0.000000    0.000000
 OPERATOR EKIN    FOR CENTER  0  COORDINATES:    0.000000    0.000000    0.000000
 OPERATOR POT     FOR CENTER  0  COORDINATES:    0.000000    0.000000    0.000000


 **********************************************************************************************************************************
 DATASETS  * FILE   NREC   LENGTH (MB)   RECORD NAMES
              1      20       38.93       500      610      700      900      950      970     1000      129      960     1100   
                                          VAR    BASINP    GEOM    SYMINP    ZMAT    AOBASIS   BASIS     P2S    ABASIS      S 
                                         1400     1410     1420     1200     1210     1080     1600     1650     1300     1700   
                                         EKIN       V       ECP      H0       H01     AOSYM     SMH    MOLCAS    ERIS     OPER   

 PROGRAMS   *        TOTAL       INT
 CPU TIMES  *         1.98      1.88
 REAL TIME  *         3.82 SEC
 DISK USED  *        90.32 MB      
 **********************************************************************************************************************************


 PROGRAM * RHF-SCF (OPEN SHELL)       Authors: W. Meyer, H.-J. Werner


 NUMBER OF ELECTRONS:       4+    3-    SPACE SYMMETRY=3    SPIN SYMMETRY: Doublet 
 CONVERGENCE THRESHOLDS:    1.00E-05 (Density)    1.00E-07 (Energy)
 MAX. NUMBER OF ITERATIONS:       60
 INTERPOLATION TYPE:            DIIS
 INTERPOLATION STEPS:              2 (START)      1 (STEP)
 LEVEL SHIFTS:                 -0.60 (CLOSED) -0.30 (OPEN) 


 Singly occupied orbitals:      1.3

   Atom=CL basis=ECP10MWB_GUESS    lmin=0  lmax=1

 Orbital guess generated from atomic densities. Full valence occupancy:    1   1   1   0   1   0   0   0


 Molecular orbital dump at record        4202.2

 ITERATION    DDIFF          GRAD             ENERGY        2-EL.EN.            DIPOLE MOMENTS         DIIS   ORB.
    1      0.000D+00      0.000D+00       -14.73969473     19.875231    0.00000    0.00000    0.00000    0    start
    2      0.000D+00      0.473D-02       -14.74248949     20.013948    0.00000    0.00000    0.00000    1    diag,B
    3      0.199D-02      0.124D-02       -14.74282450     20.050795    0.00000    0.00000    0.00000    2    diag,B
    4      0.822D-03      0.385D-03       -14.74286815     20.058653    0.00000    0.00000    0.00000    3    diag,B
    5      0.444D-03      0.830D-04       -14.74287051     20.060034    0.00000    0.00000    0.00000    4    diag,B
    6      0.137D-03      0.168D-04       -14.74287059     20.060108    0.00000    0.00000    0.00000    5    diag,B
    7      0.510D-04      0.304D-05       -14.74287059     20.060130    0.00000    0.00000    0.00000    6    fixocc
    8      0.104D-04      0.735D-06       -14.74287059     20.060146    0.00000    0.00000    0.00000    7    diag,B
    9      0.153D-05      0.231D-06       -14.74287059     20.060148    0.00000    0.00000    0.00000    0    orth

 Final alpha occupancy:   1   1   1   0   1   0   0   0
 Final beta  occupancy:   1   1   0   0   1   0   0   0

 !RHF STATE 1.3 Energy                -14.742870589833
 Nuclear energy                         0.00000000
 One-electron energy                  -24.77294470
 Two-electron energy                   10.03007411
 Virial quotient                       -2.69693991
 !RHF STATE 1.3 Dipole moment           0.00000000     0.00000000     0.00000000
 Dipole moment /Debye                   0.00000000     0.00000000     0.00000000
 

 !RHF expec          <1.3|EKIN|1.3>     5.466518008243
 
 !RHF expec           <1.3|POT|1.3>    -4.735156183827

 ELECTRON ORBITALS
 =================


   Orb  Occ    Energy  Couls-En    Coefficients

                                   1 1s      1 1s      1 1s      1 1s      1 1s      1 1s      1 3d0     1 3d2+    1 3d0     1 3d2+ 
                                   1 3d0     1 3d2+    1 3d0     1 3d2+    1 3d0     1 3d2+    1 5g0     1 5g4+    1 5g2+    1 5g0  
                                   1 5g4+    1 5g2+    1 5g0     1 5g4+    1 5g2+ 

   1.1   2    -1.0908   -5.1305  1.003802  0.003343 -0.007565  0.005344 -0.007165  0.002804  0.000106  0.000184  0.000362  0.000627
                                 0.000214  0.000371  0.000308  0.000533  0.002566  0.004445 -0.000002 -0.000003 -0.000003  0.000003
                                 0.000007  0.000005 -0.000012 -0.000024 -0.000019

                                   1 2px     1 2px     1 2px     1 2px     1 2px     1 2px     1 4f1+    1 4f3+    1 4f1+    1 4f3+ 
                                   1 4f1+    1 4f3+    1 4f1+    1 4f3+    1 6h1+    1 6h3+    1 6h5+    1 6h1+    1 6h3+    1 6h5+ 


   1.2   2    -0.4902   -3.8218  1.000165  0.001272 -0.007083  0.001519  0.002224  0.004596 -0.000085 -0.000331 -0.000583 -0.002258
                                -0.000978 -0.003788 -0.000653 -0.002530 -0.000000 -0.000001 -0.000002  0.000005  0.000015  0.000034

                                   1 2py     1 2py     1 2py     1 2py     1 2py     1 2py     1 4f1-    1 4f3-    1 4f1-    1 4f3- 
                                   1 4f1-    1 4f3-    1 4f1-    1 4f3-    1 6h1-    1 6h3-    1 6h5-    1 6h1-    1 6h3-    1 6h5- 


   1.3   +    -0.5704   -3.9373  1.035583 -0.003801  0.001507 -0.003504 -0.034506 -0.009402 -0.000574 -0.000741 -0.003980 -0.005139
                                -0.006539 -0.008442 -0.003582 -0.004625 -0.000001 -0.000001 -0.000002  0.000111  0.000120  0.000161

                                   1 2pz     1 2pz     1 2pz     1 2pz     1 2pz     1 2pz     1 4f0     1 4f2+    1 4f0     1 4f2+ 
                                   1 4f0     1 4f2+    1 4f0     1 4f2+    1 6h2+    1 6h4+    1 6h0     1 6h2+    1 6h4+    1 6h0  


   1.5   2    -0.4902   -3.8218  1.000165  0.001272 -0.007083  0.001519  0.002224  0.004596 -0.000209 -0.000270 -0.001428 -0.001844
                                -0.002396 -0.003093 -0.001600 -0.002066 -0.000001 -0.000001 -0.000001  0.000025  0.000021  0.000018

 HOMO      1.2    -0.490184 =     -13.3386eV
 LUMO      2.1     0.101437 =       2.7602eV
 LUMO-HOMO         0.591621 =      16.0988eV


 **********************************************************************************************************************************
 DATASETS  * FILE   NREC   LENGTH (MB)   RECORD NAMES
              1      20       38.93       500      610      700      900      950      970     1000      129      960     1100   
                                          VAR    BASINP    GEOM    SYMINP    ZMAT    AOBASIS   BASIS     P2S    ABASIS      S 
                                         1400     1410     1420     1200     1210     1080     1600     1650     1300     1700   
                                         EKIN       V       ECP      H0       H01     AOSYM     SMH    MOLCAS    ERIS     OPER   

              2       4        2.83       700     1000      520     4202   
                                         GEOM     BASIS   MCVARS     RHF  

 PROGRAMS   *        TOTAL       RHF       INT
 CPU TIMES  *         2.20      0.22      1.88
 REAL TIME  *         4.20 SEC
 DISK USED  *        90.32 MB      
 **********************************************************************************************************************************


 PROGRAM * MULTI (Direct Multiconfiguration SCF)       Authors: P.J. Knowles, H.-J. Werner (1984)     S.T. Elbert (1988)


 Number of closed-shell orbitals:   1 (   1   0   0   0   0   0   0   0 )
 Number of active  orbitals:        3 (   0   1   1   0   1   0   0   0 )
 Number of external orbitals:     122 (  24  19  19  11  19  11  11   8 )

 State symmetry 1

 Number of electrons:     5    Spin symmetry=Doublet   Space symmetry=3
 Number of states:        1
 Number of CSFs:          1   (1 determinants, 3 intermediate states)

 State symmetry 2

 Number of electrons:     5    Spin symmetry=Doublet   Space symmetry=5
 Number of states:        1
 Number of CSFs:          1   (1 determinants, 3 intermediate states)

 State symmetry 3

 Number of electrons:     5    Spin symmetry=Doublet   Space symmetry=2
 Number of states:        1
 Number of CSFs:          1   (1 determinants, 3 intermediate states)

 Iteration controls:
             1  2  3  4  5  6  7  8  9 10 11 12 13 14 15 16 17 18 19 20 21 22 23 24 25 26 27 28 29 30 31 32 33 34 35 36 37 38 39
 DIAGCI      T  T  T  T  T  T  T  T  T  T  T  T  T  T  T  T  T  T  T  T  T  T  T  T  T  T  T  T  T  T  T  T  T  T  T  T  T  T  T
 WERNER      T  T  T  T  T  T  T  T  T  T  T  T  T  T  T  T  T  T  T  T  T  T  T  T  T  T  T  T  T  T  T  T  T  T  T  T  T  T  T
 INTERNAL    F  T  T  T  T  T  T  T  T  T  T  T  T  T  T  T  T  T  T  T  T  T  T  T  T  T  T  T  T  T  T  T  T  T  T  T  T  T  T

 Molecular orbitals read from record     4202.2  Type=RHF/CANONICAL (state 1.3)
 *** IN SYMMETRY 1 ORBITAL  1 SYMMETRY CONTAMINATION OF 0.942D-02 HAS BEEN REMOVED

 EXTRA SYMMETRY OF MOS IN SYMMETRY 1:   1 1 3 2 1 3 2 1 5 4   6 3 2 5 4 6 1 3 2 5   4 6 1 3 2
 *** IN SYMMETRY 2 ORBITAL  1 SYMMETRY CONTAMINATION OF 0.110D-01 HAS BEEN REMOVED
 EXTRA SYMMETRY OF MOS IN SYMMETRY 2:   1 1 1 3 2 1 3 2 1 3   2 6 5 4 3 2 1 6 5 4
 *** IN SYMMETRY 3 ORBITAL  1 SYMMETRY CONTAMINATION OF 0.303D-01 HAS BEEN REMOVED
 EXTRA SYMMETRY OF MOS IN SYMMETRY 3:   1 1 1 3 2 1 3 2 1 3   2 6 4 5 3 2 1 6 4 5
 EXTRA SYMMETRY OF MOS IN SYMMETRY 4:   1 1 3 2 1 3 2 1 3 2   1
 *** IN SYMMETRY 5 ORBITAL  1 SYMMETRY CONTAMINATION OF 0.126D-01 HAS BEEN REMOVED
 EXTRA SYMMETRY OF MOS IN SYMMETRY 5:   1 1 1 3 2 1 3 2 1 3   2 4 5 6 3 2 1 4 5 6
 EXTRA SYMMETRY OF MOS IN SYMMETRY 6:   1 1 3 2 1 3 2 1 3 2   1
 EXTRA SYMMETRY OF MOS IN SYMMETRY 7:   1 1 2 3 1 2 3 1 2 3   1
 EXTRA SYMMETRY OF MOS IN SYMMETRY 8:   1 1 1 2 3 1 2 3

 Wavefunction dump at record             5202.2

 Convergence thresholds  0.10E-01 (gradient)  0.10E-05 (energy)  0.10E-02 (step length)

 Weight factors for state symmetry  1:    0.33333
 Weight factors for state symmetry  2:    0.33333
 Weight factors for state symmetry  3:    0.33333

 Number of orbital rotations:       81   (     0 Core/Active     24 Core/Virtual   0 Active/Active     57 Active/Virtual)
 Total number of variables:         84


 ITER. MIC  NCI  NEG     ENERGY(VAR)     ENERGY(PROJ)   ENERGY CHANGE     GRAD(0)  GRAD(ORB)   GRAD(CI)     STEP       TIME

   1   26   12    0     -14.74013934     -14.74100531   -0.00086597    0.03470013 0.00000000 0.00000000  0.30D-01      0.05
   2   13   12    0     -14.74100556     -14.74100557   -0.00000001    0.00011365 0.00000000 0.00000000  0.64D-04      0.09

 ** WVFN ****  CONVERGENCE REACHED, FINAL GRADIENT:  0.21D-08



 Results for state 1.3
 =====================

 !MCSCF STATE 1.3 Energy              -14.741005569399
 Nuclear energy                         0.00000000
 Kinetic energy                         5.46472022
 One electron energy                  -24.77507502
 Two electron energy                   10.03406945
 Virial ratio                           3.69748587

 !MCSCF STATE 1.3 Dipole moment         0.00000000     0.00000000     0.00000000
 Dipole moment /Debye                   0.00000000     0.00000000     0.00000000



 Results for state 1.5
 =====================

 !MCSCF STATE 1.5 Energy              -14.741005569398
 Nuclear energy                         0.00000000
 Kinetic energy                         5.46472022
 One electron energy                  -24.77507502
 Two electron energy                   10.03406945
 Virial ratio                           3.69748587

 !MCSCF STATE 1.5 Dipole moment         0.00000000     0.00000000     0.00000000
 Dipole moment /Debye                   0.00000000     0.00000000     0.00000000



 Results for state 1.2
 =====================

 !MCSCF STATE 1.2 Energy              -14.741005569398
 Nuclear energy                         0.00000000
 Kinetic energy                         5.46472022
 One electron energy                  -24.77507502
 Two electron energy                   10.03406945
 Virial ratio                           3.69748587

 !MCSCF STATE 1.2 Dipole moment         0.00000000     0.00000000     0.00000000
 Dipole moment /Debye                   0.00000000     0.00000000     0.00000000

 State-averaged charge density matrix saved on record  5202.2 (density set 1)

 !MCSCF expec        <1.3|EKIN|1.3>     5.464720215156
 !MCSCF expec        <1.5|EKIN|1.5>     5.464720215240
 !MCSCF expec        <1.2|EKIN|1.2>     5.464720215240

 !MCSCF expec         <1.3|POT|1.3>    -4.735212121146
 !MCSCF expec         <1.5|POT|1.5>    -4.735212121177
 !MCSCF expec         <1.2|POT|1.2>    -4.735212121177


 NATURAL ORBITALS (state averaged)
 =================================

   Orb     Occ        Energy       Coefficients

                                   1 1s      1 1s      1 1s      1 1s      1 1s      1 1s      1 3d0     1 3d2+    1 3d0     1 3d2+ 
                                   1 3d0     1 3d2+    1 3d0     1 3d2+    1 3d0     1 3d2+    1 5g0     1 5g4+    1 5g2+    1 5g0  
                                   1 5g4+    1 5g2+    1 5g0     1 5g4+    1 5g2+ 

   1.1  2.00000    -1.090752     1.003828  0.003394 -0.007666  0.005288 -0.007015  0.002761  0.000000  0.000000  0.000000  0.000000
                                 0.000000  0.000000  0.000000  0.000000  0.000000  0.000000  0.000000  0.000000  0.000000  0.000000
                                 0.000000  0.000000  0.000000  0.000000  0.000000

                                   1 2px     1 2px     1 2px     1 2px     1 2px     1 2px     1 4f1+    1 4f3+    1 4f1+    1 4f3+ 
                                   1 4f1+    1 4f3+    1 4f1+    1 4f3+    1 6h1+    1 6h3+    1 6h5+    1 6h1+    1 6h3+    1 6h5+ 


   1.2  1.66667    -0.426404     1.007113  0.000363 -0.005619  0.000858 -0.004696  0.001396  0.000000  0.000000  0.000000  0.000000
                                 0.000000  0.000000  0.000000  0.000000  0.000000  0.000000  0.000000  0.000000  0.000000  0.000000

                                   1 2py     1 2py     1 2py     1 2py     1 2py     1 2py     1 4f1-    1 4f3-    1 4f1-    1 4f3- 
                                   1 4f1-    1 4f3-    1 4f1-    1 4f3-    1 6h1-    1 6h3-    1 6h5-    1 6h1-    1 6h3-    1 6h5- 


   1.3  1.66667    -0.426404     1.007113  0.000363 -0.005619  0.000858 -0.004696  0.001396  0.000000  0.000000  0.000000  0.000000
                                 0.000000  0.000000  0.000000  0.000000  0.000000  0.000000  0.000000  0.000000  0.000000  0.000000

                                   1 2pz     1 2pz     1 2pz     1 2pz     1 2pz     1 2pz     1 4f0     1 4f2+    1 4f0     1 4f2+ 
                                   1 4f0     1 4f2+    1 4f0     1 4f2+    1 6h2+    1 6h4+    1 6h0     1 6h2+    1 6h4+    1 6h0  


   1.5  1.66667    -0.426404     1.007113  0.000363 -0.005619  0.000858 -0.004696  0.001396  0.000000  0.000000  0.000000  0.000000
                                 0.000000  0.000000  0.000000  0.000000  0.000000  0.000000  0.000000  0.000000  0.000000  0.000000
 

 EXTRA SYMMETRY OF MOS IN SYMMETRY 1:   1 1 2 3 1 3 2 1 6 4   5 2 3 6 4 5 1 3 2 4   6 5 1 2 3
 EXTRA SYMMETRY OF MOS IN SYMMETRY 2:   1 1 1 3 2 1 3 2 1 2   3 5 6 4 2 3 1 4 5 6
 EXTRA SYMMETRY OF MOS IN SYMMETRY 3:   1 1 1 2 3 1 2 3 1 2   3 4 5 6 2 3 1 5 4 6
 EXTRA SYMMETRY OF MOS IN SYMMETRY 4:   1 1 2 3 1 2 3 1 2 3   1
 EXTRA SYMMETRY OF MOS IN SYMMETRY 5:   1 1 1 3 2 1 3 2 1 2   3 5 4 6 2 3 1 6 4 5
 EXTRA SYMMETRY OF MOS IN SYMMETRY 6:   1 1 3 2 1 3 2 1 2 3   1
 EXTRA SYMMETRY OF MOS IN SYMMETRY 7:   1 1 3 2 1 3 2 1 3 2   1
 EXTRA SYMMETRY OF MOS IN SYMMETRY 8:   1 1 1 2 3 1 3 2

 Natural orbital dump (state averaged) at molpro section  5202.2    (Orbital set 2)


 CI vector for state symmetry 1
 ==============================

 2 a 2           1.0000000

 TOTAL ENERGIES                       -14.74100557

 CI vector for state symmetry 2
 ==============================

 2 2 a           1.0000000

 TOTAL ENERGIES                       -14.74100557

 CI vector for state symmetry 3
 ==============================

 a 2 2           1.0000000

 TOTAL ENERGIES                       -14.74100557



 **********************************************************************************************************************************
 DATASETS  * FILE   NREC   LENGTH (MB)   RECORD NAMES
              1      21       39.22       500      610      700      900      950      970     1000      129      960     1100   
                                          VAR    BASINP    GEOM    SYMINP    ZMAT    AOBASIS   BASIS     P2S    ABASIS      S 
                                         1400     1410     1420     1200     1210     1080     1600     1650     1300     1700   
                                         EKIN       V       ECP      H0       H01     AOSYM     SMH    MOLCAS    ERIS     OPER   
                                         1380   
                                         JKOP   

              2       5        5.40       700     1000      520     4202     5202   
                                         GEOM     BASIS   MCVARS     RHF     MCSCF   

 PROGRAMS   *        TOTAL     MULTI       RHF       INT
 CPU TIMES  *         2.35      0.14      0.22      1.88
 REAL TIME  *         5.15 SEC
 DISK USED  *        90.32 MB      
 **********************************************************************************************************************************


 PROGRAM * RHF-SCF (OPEN SHELL)       Authors: W. Meyer, H.-J. Werner


 NUMBER OF ELECTRONS:       4+    3-    SPACE SYMMETRY=3    SPIN SYMMETRY: Doublet 
 CONVERGENCE THRESHOLDS:    1.00E-05 (Density)    1.00E-07 (Energy)
 MAX. NUMBER OF ITERATIONS:        0
 INTERPOLATION TYPE:            DIIS
 INTERPOLATION STEPS:              2 (START)      1 (STEP)
 LEVEL SHIFTS:                 -0.60 (CLOSED) -0.30 (OPEN) 


 Singly occupied orbitals:      1.3
 Molecular orbitals read from record     5202.2  Type=MCSCF/NATURAL (state averaged)

 Molecular orbital dump at record        2101.2

 ITERATION    DDIFF          GRAD             ENERGY        2-EL.EN.            DIPOLE MOMENTS         DIIS   ORB.
    1      0.000D+00      0.000D+00       -14.74100557     20.068139    0.00000    0.00000    0.00000    0    start

 Final alpha occupancy:   1   1   1   0   1   0   0   0
 Final beta  occupancy:   1   1   0   0   1   0   0   0

 !RHF STATE 1.3 Energy                -14.741005569399
 Nuclear energy                         0.00000000
 One-electron energy                  -24.77507502
 Two-electron energy                   10.03406945
 Virial quotient                       -2.69748587
 !RHF STATE 1.3 Dipole moment           0.00000000     0.00000000     0.00000000
 Dipole moment /Debye                   0.00000000     0.00000000     0.00000000
 

 !RHF expec          <1.3|EKIN|1.3>     5.464720215156
 
 !RHF expec           <1.3|POT|1.3>    -4.735212121146

 ELECTRON ORBITALS
 =================


   Orb  Occ    Energy  Couls-En    Coefficients

                                   1 1s      1 1s      1 1s      1 1s      1 1s      1 1s      1 3d0     1 3d2+    1 3d0     1 3d2+ 
                                   1 3d0     1 3d2+    1 3d0     1 3d2+    1 3d0     1 3d2+    1 5g0     1 5g4+    1 5g2+    1 5g0  
                                   1 5g4+    1 5g2+    1 5g0     1 5g4+    1 5g2+ 

   1.1   2    -1.0908   -5.1305  1.003828  0.003394 -0.007666  0.005288 -0.007015  0.002761  0.000000  0.000000  0.000000  0.000000
                                 0.000000  0.000000  0.000000  0.000000  0.000000  0.000000  0.000000  0.000000  0.000000  0.000000
                                 0.000000  0.000000  0.000000  0.000000  0.000000

                                   1 2px     1 2px     1 2px     1 2px     1 2px     1 2px     1 4f1+    1 4f3+    1 4f1+    1 4f3+ 
                                   1 4f1+    1 4f3+    1 4f1+    1 4f3+    1 6h1+    1 6h3+    1 6h5+    1 6h1+    1 6h3+    1 6h5+ 


   1.2   2    -0.4264   -3.7655  1.007113  0.000363 -0.005619  0.000858 -0.004696  0.001396  0.000000  0.000000  0.000000  0.000000
                                 0.000000  0.000000  0.000000  0.000000  0.000000  0.000000  0.000000  0.000000  0.000000  0.000000

                                   1 2py     1 2py     1 2py     1 2py     1 2py     1 2py     1 4f1-    1 4f3-    1 4f1-    1 4f3- 
                                   1 4f1-    1 4f3-    1 4f1-    1 4f3-    1 6h1-    1 6h3-    1 6h5-    1 6h1-    1 6h3-    1 6h5- 


   1.3   +    -0.4264   -3.7655  1.007113  0.000363 -0.005619  0.000858 -0.004696  0.001396  0.000000  0.000000  0.000000  0.000000
                                 0.000000  0.000000  0.000000  0.000000  0.000000  0.000000  0.000000  0.000000  0.000000  0.000000

                                   1 2pz     1 2pz     1 2pz     1 2pz     1 2pz     1 2pz     1 4f0     1 4f2+    1 4f0     1 4f2+ 
                                   1 4f0     1 4f2+    1 4f0     1 4f2+    1 6h2+    1 6h4+    1 6h0     1 6h2+    1 6h4+    1 6h0  


   1.5   2    -0.4264   -3.7655  1.007113  0.000363 -0.005619  0.000858 -0.004696  0.001396  0.000000  0.000000  0.000000  0.000000
                                 0.000000  0.000000  0.000000  0.000000  0.000000  0.000000  0.000000  0.000000  0.000000  0.000000

 HOMO      1.2    -0.426404 =     -11.6030eV
 LUMO      2.1     0.103902 =       2.8273eV
 LUMO-HOMO         0.530305 =      14.4303eV


 **********************************************************************************************************************************
 DATASETS  * FILE   NREC   LENGTH (MB)   RECORD NAMES
              1      21       39.22       500      610      700      900      950      970     1000      129      960     1100   
                                          VAR    BASINP    GEOM    SYMINP    ZMAT    AOBASIS   BASIS     P2S    ABASIS      S 
                                         1400     1410     1420     1200     1210     1080     1600     1650     1300     1700   
                                         EKIN       V       ECP      H0       H01     AOSYM     SMH    MOLCAS    ERIS     OPER   
                                         1380   
                                         JKOP   

              2       6        8.00       700     1000      520     4202     5202     2101   
                                         GEOM     BASIS   MCVARS     RHF     MCSCF     RHF  

 PROGRAMS   *        TOTAL       RHF     MULTI       RHF       INT
 CPU TIMES  *         2.39      0.04      0.14      0.22      1.88
 REAL TIME  *         5.43 SEC
 DISK USED  *        90.32 MB      
 **********************************************************************************************************************************
 SETTING SCF(I)         =       -14.74100557  AU                              
 SETTING _CC_NORM_MAX   =         2.00000000                                  


 PROGRAM * CI (Multireference internally contracted CI)     Authors: H.-J. Werner, P.J. Knowles, 1987


 Convergence thresholds:  THRVAR = 1.00D-08  THRDEN = 1.00D-06

 Number of optimized states:  1  Roots:   1
 Number of reference states:  1  Roots:   1

 Reference symmetry:                   3   Doublet 
 Number of electrons:                  7
 Maximum number of shells:             3
 Maximum number of spin couplings:     5

 Reference space:        1 conf        1 CSFs
 N elec internal:        4 conf        4 CSFs
 N-1 el internal:       10 conf       16 CSFs
 N-2 el internal:        9 conf       27 CSFs

 Number of electrons in valence space:                      7
 Maximum number of open shell orbitals in reference space:  1
 Maximum number of open shell orbitals in internal spaces:  5


 Number of closed-shell orbitals:   3 (   1   1   0   0   1   0   0   0 )
 Number of active  orbitals:        1 (   0   0   1   0   0   0   0   0 )
 Number of external orbitals:     122 (  24  19  19  11  19  11  11   8 )

 Molecular orbitals read from record     2101.2  Type=RHF/CANONICAL (state 1.3)

 Coulomb and exchange operators available. No transformation done.

 Number of p-space configurations:   1

 Reference wavefunction optimized for reference space (refopt=1)

 State     Reference Energy 
   1         -14.74100557

 Number of blocks in overlap matrix:    15   Smallest eigenvalue:  0.10D+01
 Number of N-2 electron functions:      15
 Number of N-1 electron functions:      16

 Number of internal configurations:                    1
 Number of singly external configurations:           260
 Number of doubly external configurations:         14472
 Total number of contracted configurations:        14733
 Total number of uncontracted configurations:      26145

 Diagonal Coupling coefficients finished.               Storage:     982 words, CPU-Time:      0.00 seconds.
 Energy denominators for pairs finished in 1 passes.    Storage:   15469 words, CPU-time:      0.00 seconds.

  ITER. STATE  ROOT     SQ.NORM     CORR.ENERGY   TOTAL ENERGY   ENERGY CHANGE       DEN1      VAR(S)    VAR(P)      TIME
    1     1     1     1.00000000     0.00000000   -14.74100557     0.00000000    -0.23442577  0.19D-01  0.73D-01     0.02
    2     1     1     1.07376341    -0.20924604   -14.95025161    -0.20924604    -0.00387056  0.79D-03  0.70D-03     0.07
    3     1     1     1.07594381    -0.21324013   -14.95424570    -0.00399409    -0.00010092  0.94D-05  0.24D-04     0.14
    4     1     1     1.07650008    -0.21335017   -14.95435574    -0.00011004    -0.00000340  0.39D-06  0.82D-06     0.19
    5     1     1     1.07665498    -0.21335412   -14.95435969    -0.00000395    -0.00000013  0.13D-07  0.33D-07     0.25
    6     1     1     1.07665293    -0.21335426   -14.95435983    -0.00000015    -0.00000000  0.75D-09  0.83D-09     0.31


 =====================================
 Analysis of CPU times by interactions
 =====================================

       I      S      P

 I   3.2%
 S   0.0%   0.0%
 P   0.0%   0.0%   6.5%

 Initialization:   6.5%
 Other:           83.9%

 Total CPU:        0.3 seconds
 =====================================



 Reference coefficients greater than 0.0500000
 =============================================
 22/2           0.9637450



 RESULTS FOR STATE 1.3
 =====================

 Coefficient of reference function:   C(0) = 0.96374500 (fixed)   0.96374500 (relaxed)

 Energy contributions of configuration classes

 CLASS          SQ.NORM        ECORR1        ECORR2
 +++++++++++++++++++++++++++++++++++++++++++++++++++
 Internals    0.00000000    0.00000000   -0.00000000
 Singles      0.01522973   -0.02805456   -0.02907578
 Pairs        0.06142320   -0.18529971   -0.18427848
 Total        1.07665293   -0.21335426   -0.21335426
 +++++++++++++++++++++++++++++++++++++++++++++++++++


 Reference energy                     -14.74100557
 Nuclear energy                         0.00000000
 Kinetic energy                         5.69946621
 One electron energy                  -24.67525618
 Two electron energy                    9.72089634
 Virial quotient                       -2.62381762
 Correlation energy                    -0.21335426
 !CI(SD) STATE 1.3 Energy             -14.954359832192

 Properties without orbital relaxation:

 !CI(SD) STATE 1.3 Dipole moment        0.00000000     0.00000000     0.00000000
 Dipole moment /Debye                   0.00000000     0.00000000     0.00000000

 Cluster corrected energies           -14.97071406 (Davidson, fixed reference)
 Cluster corrected energies           -14.97071406 (Davidson, relaxed reference)

 Cluster corrected energies           -14.96553319 (Pople, fixed reference)
 Cluster corrected energies           -14.96553319 (Pople, relaxed reference)

 

 !CI(SD) expec       <1.3|EKIN|1.3>     5.699466206977
 
 !CI(SD) expec        <1.3|POT|1.3>    -4.754682421956


 **********************************************************************************************************************************
 DATASETS  * FILE   NREC   LENGTH (MB)   RECORD NAMES
              1      21       39.22       500      610      700      900      950      970     1000      129      960     1100   
                                          VAR    BASINP    GEOM    SYMINP    ZMAT    AOBASIS   BASIS     P2S    ABASIS      S 
                                         1400     1410     1420     1200     1210     1080     1600     1650     1300     1700   
                                         EKIN       V       ECP      H0       H01     AOSYM     SMH    MOLCAS    ERIS     OPER   
                                         1380   
                                         JKOP   

              2       6        8.00       700     1000      520     4202     5202     2101   
                                         GEOM     BASIS   MCVARS     RHF     MCSCF     RHF  

 PROGRAMS   *        TOTAL        CI       RHF     MULTI       RHF       INT
 CPU TIMES  *         2.73      0.34      0.04      0.14      0.22      1.88
 REAL TIME  *         6.70 SEC
 DISK USED  *        90.32 MB      
 **********************************************************************************************************************************
 SETTING POSTHF(I)      =       -14.95435983  AU                              
                                                                                                                                                                                                                                                                

        SCF            POSTHF       EKIN          POT
    -14.74100557   -14.95435983   5.69946621   -4.75468242
                                                  

 CI/USERDEF energy=    -14.954359832192

        CI              RHF-SCF         MULTI           RHF-SCF 
    -14.95435983    -14.74100557    -14.74100557    -14.74287059
 **********************************************************************************************************************************
 Variable memory released
