
 Primary working directories    : /global/cscratch1/sd/aannabe
 Secondary working directories  : /global/cscratch1/sd/aannabe
 Wavefunction directory         : /global/homes/a/aannabe/wfu/
 Main file repository           : /global/cscratch1/sd/aannabe/

 SHA1      : 2873118e99aab1bc19f5b6fc1784693c06d15c95
 NAME      : 2015.1.8
 ARCHNAME  : linux/x86_64
 FC        : /opt/cray/pe/craype/2.5.5/bin/ftn
 BLASLIB   : -Wl,-_start-group /opt/intel/compilers_and_libraries_2016.3.210/linux/mkl/lib/intel64/libmkl_intel_ilp64.a /opt/intel/compilers_and_libraries_2016.3.210/linux/mkl/lib/intel64/libmkl_intel_thread.a /opt/intel/compilers_and_libraries_2016.3.210/linux/mkl/lib/intel64/libmkl_core.a -Wl,-_end-group
 id        : lbl

 Nodes     nprocs
 nid00472     1

 Using customized tuning parameters: mindgm=8; mindgv=16; mindgc=4; mindgr=1; noblas=0; minvec=7
 default implementation of scratch files=df  

 ***,Ti
 memory,512,m
 gthresh,twoint=1.e-12
 
 gprint,basis,orbitals
 gexpec,ekin,pot
 
 angstrom
 geometry={
 1                                                                               ! Number of atoms
 Ti 0.0 0.0 0.0
 }
 
 basis={
 Including file /global/homes/a/aannabe/docs/accurate/ccECP_Kh/pps/Ti.pp
                                              !include,/global/homes/a/aannabe/docs/accurate/ccECP_Kh/basis/aug-cc-pVnZ/Ti_tz.basis
 Including file /global/homes/a/aannabe/docs/accurate/ccECP_Kh/basis/cc-pVnZ/Ti_tz.basis
 }
 
 {rhf
  start,atden
  print,orbitals=2
  wf,12,1,2
  occ,4,1,1,0,1,0,0,0
  open,3.1,4.1
  sym,1,1,1,3,2
  orbital,4202.2
 }
 pop
 {multi
  start,4202.2
  occ,4,1,1,1,1,1,1,0
  closed,2,1,1,0,1,0,0
  wf,12,1,2;state,1
  wf,12,4,2;state,3
  wf,12,6,2;state,3
  wf,12,7,2;state,3
  natorb,ci,print
  orbital,5202.2
 }
 {rhf,nitord=1,maxit=0
  start,5202.2
  wf,12,1,2
  occ,4,1,1,0,1,0,0,0
  open,3.1,4.1
 }
 
 scf(i)=energy
 
 _CC_NORM_MAX=2.0
 {rccsd(t)
 maxit,100
 core
 }
 posthf(i)=energy
 
 table,scf,posthf,ekin,pot
 save,3.csv,new
 
 

 Variables initialized (889), CPU time= 0.01 sec
 Commands  initialized (702), CPU time= 0.01 sec, 572 directives.
 Default parameters read. Elapsed time= 0.18 sec

 Checking input...
 Passed
1


                                         ***  PROGRAM SYSTEM MOLPRO  ***
                                       Copyright, TTI GmbH Stuttgart, 2015
                                    Version 2015.1 linked Sep  7 2016 23:09:38


 **********************************************************************************************************************************
 LABEL *   Ti                                                                            
  64 bit serial version                                                                  DATE: 13-Nov-18          TIME: 21:59:03  
 **********************************************************************************************************************************

 SHA1:             2873118e99aab1bc19f5b6fc1784693c06d15c95
 **********************************************************************************************************************************

 THRESHOLDS:

 ZERO    =  1.00D-12  ONEINT  =  1.00D-12  TWOINT  =  1.00D-12  PREFAC  =  1.00D-14  LOCALI  =  1.00D-09  EORDER  =  1.00D-04
 ENERGY  =  0.00D+00  ETEST   =  0.00D+00  EDENS   =  0.00D+00  THRDEDEF=  1.00D-06  GRADIENT=  1.00D-02  STEP    =  1.00D-03
 ORBITAL =  1.00D-05  CIVEC   =  1.00D-05  COEFF   =  1.00D-04  PRINTCI =  5.00D-02  PUNCHCI =  9.90D+01  OPTGRAD =  3.00D-04
 OPTENERG=  1.00D-06  OPTSTEP =  3.00D-04  THRGRAD =  1.00D-10  COMPRESS=  1.00D-11  VARMIN  =  1.00D-07  VARMAX  =  1.00D-03
 THRDOUB =  0.00D+00  THRDIV  =  1.00D-05  THRRED  =  1.00D-07  THRPSP  =  1.00D+00  THRDC   =  1.00D-10  THRCS   =  1.00D-10
 THRNRM  =  1.00D-08  THREQ   =  0.00D+00  THRDE   =  1.00D+00  THRREF  =  1.00D-05  SPARFAC =  1.00D+00  THRDLP  =  1.00D-07
 THRDIA  =  1.00D-10  THRDLS  =  1.00D-07  THRGPS  =  0.00D+00  THRKEX  =  0.00D+00  THRDIS  =  2.00D-01  THRVAR  =  1.00D-10
 THRLOC  =  1.00D-06  THRGAP  =  1.00D-06  THRLOCT = -1.00D+00  THRGAPT = -1.00D+00  THRORB  =  1.00D-06  THRMLTP =  0.00D+00
 THRCPQCI=  1.00D-10  KEXTA   =  0.00D+00  THRCOARS=  0.00D+00  SYMTOL  =  1.00D-06  GRADTOL =  1.00D-06  THROVL  =  1.00D-08
 THRORTH =  1.00D-08  GRID    =  1.00D-06  GRIDMAX =  1.00D-03  DTMAX   =  0.00D+00  THROCCDE=  1.00D-01  THROCCDE=  1.00D-01



 ZUNIT=ANG
 

Geometry recognized as XYZ


 Variable memory set to  512000000 words,  buffer space   230000 words

 SETTING BASIS          =    USERDEF


 Recomputing integrals since basis changed


 Using spherical harmonics



 PROGRAM * SEWARD (Integral evaluation for generally contracted gaussian basis sets)     Author: Roland Lindh, 1990

 Geometry written to block  1 of record 700

 Orientation using atomic masses  
 Molecule type: Atom
 Symmetry elements: X,Y,Z
 Rotational constants:       0.0000000      0.0000000      0.0000000 GHz  (calculated with average atomic masses)

 Point group  D2h 



 ATOMIC COORDINATES

 NR  ATOM    CHARGE       X              Y              Z

   1  TI     12.00    0.000000000    0.000000000    0.000000000


          TI  CORE POTENTIAL

          d POTENTIAL

 POWERS             1              3              2              2
 EXPONENTIALS   18.41366       15.92292       13.65001       5.095552    
 COEFFICIENTS   12.00000       220.9639      -94.29026      9.7911425E-02

          s - d POTENTIAL

 POWERS             2              2
 EXPONENTIALS   12.70581       6.111786    
 COEFFICIENTS   173.9466       18.83768    

          p - d POTENTIAL

 POWERS             2              2
 EXPONENTIALS   12.64092       5.354374    
 COEFFICIENTS   111.4567       11.17703    


 BASIS DATA

   Nr Sym  Nuc  Type         Exponents   Contraction coefficients

    1.1 Ag    1  1s          68.910511     0.000616   -0.000156    0.000635   -0.001178    0.000000
    2.1 Ag                   33.720700    -0.007501    0.001966   -0.006468    0.011877    0.000000
    3.1 Ag                   18.159676     0.012218   -0.003994    0.023444   -0.047240    0.000000
    4.1 Ag                   12.419305     0.144739   -0.036377    0.038921   -0.050922    0.000000
    5.1 Ag                    7.532195    -0.328621    0.088593   -0.141180    0.237746    0.000000
                              3.504444    -0.317517    0.085630   -0.214765    0.403185    0.000000
                              1.910727     0.357422   -0.105993    0.320151   -0.790961    0.000000
                              0.888840     0.671406   -0.237421    0.451062   -1.102276    0.000000
                              0.447198     0.282226   -0.235359    0.855191    0.209446    0.000000
                              0.281192     0.038673   -0.012960   -1.209224    2.527352    0.000000
                              0.100258     0.004559    0.433582   -1.319481   -1.789041    0.000000
                              0.046525    -0.001565    0.577873    0.866517   -0.867842    0.000000
                              0.021840     0.000398    0.164360    0.618916    1.427395    1.000000
    6.1 Ag    1  1s           0.790662     1.000000
    7.1 Ag    1  1s           2.191541     1.000000
    8.1 Ag    1  3d0         77.434559     0.000022
                             27.708477     0.004218
                             12.914284     0.030087
                              6.062674     0.084821
                              2.863898     0.171110
                              1.386559     0.247451
                              0.677058     0.277310
                              0.329864     0.261077
                              0.159474     0.190336
                              0.076174     0.119385
                              0.028570     0.031297
    9.1 Ag    1  3d2+        77.434559     0.000022
                             27.708477     0.004218
                             12.914284     0.030087
                              6.062674     0.084821
                              2.863898     0.171110
                              1.386559     0.247451
                              0.677058     0.277310
                              0.329864     0.261077
                              0.159474     0.190336
                              0.076174     0.119385
                              0.028570     0.031297
   10.1 Ag    1  3d0         77.434559    -0.000025
                             27.708477    -0.004311
                             12.914284    -0.030913
                              6.062674    -0.088049
                              2.863898    -0.178330
                              1.386559    -0.234335
                              0.677058    -0.195775
                              0.329864     0.065872
                              0.159474     0.330536
                              0.076174     0.461229
                              0.028570     0.184273
   11.1 Ag    1  3d2+        77.434559    -0.000025
                             27.708477    -0.004311
                             12.914284    -0.030913
                              6.062674    -0.088049
                              2.863898    -0.178330
                              1.386559    -0.234335
                              0.677058    -0.195775
                              0.329864     0.065872
                              0.159474     0.330536
                              0.076174     0.461229
                              0.028570     0.184273
   12.1 Ag    1  3d0         77.434559     0.000010
                             27.708477     0.006187
                             12.914284     0.042630
                              6.062674     0.127524
                              2.863898     0.248289
                              1.386559     0.259761
                              0.677058    -0.070794
                              0.329864    -0.519396
                              0.159474    -0.373658
                              0.076174     0.455067
                              0.028570     0.489586
   13.1 Ag    1  3d2+        77.434559     0.000010
                             27.708477     0.006187
                             12.914284     0.042630
                              6.062674     0.127524
                              2.863898     0.248289
                              1.386559     0.259761
                              0.677058    -0.070794
                              0.329864    -0.519396
                              0.159474    -0.373658
                              0.076174     0.455067
                              0.028570     0.489586
   14.1 Ag    1  3d0         77.434559     0.000000
                             27.708477     0.000000
                             12.914284     0.000000
                              6.062674     0.000000
                              2.863898     0.000000
                              1.386559     0.000000
                              0.677058     0.000000
                              0.329864     0.000000
                              0.159474     0.000000
                              0.076174     0.000000
                              0.028570     1.000000
   15.1 Ag    1  3d2+        77.434559     0.000000
                             27.708477     0.000000
                             12.914284     0.000000
                              6.062674     0.000000
                              2.863898     0.000000
                              1.386559     0.000000
                              0.677058     0.000000
                              0.329864     0.000000
                              0.159474     0.000000
                              0.076174     0.000000
                              0.028570     1.000000
   16.1 Ag    1  3d0          2.318162     1.000000
   17.1 Ag    1  3d2+         2.318162     1.000000
   18.1 Ag    1  3d0          5.672148     1.000000
   19.1 Ag    1  3d2+         5.672148     1.000000
   20.1 Ag    1  5g0          0.707265     1.000000
   21.1 Ag    1  5g4+         0.707265     1.000000
   22.1 Ag    1  5g2+         0.707265     1.000000
   23.1 Ag    1  5g0          2.521341     1.000000
   24.1 Ag    1  5g4+         2.521341     1.000000
   25.1 Ag    1  5g2+         2.521341     1.000000
    1.2 B3u   1  2px         84.914002     0.000093    0.000020    0.000019   -0.000257    0.000000
    2.2 B3u                  42.855051    -0.000836   -0.000049    0.000138    0.001725    0.000000
    3.2 B3u                  21.700131     0.008679   -0.000761   -0.004622   -0.012646    0.000000
    4.2 B3u                  12.214690    -0.011178   -0.000575    0.004465    0.029062    0.000000
    5.2 B3u                   8.319164    -0.077767    0.018284    0.065760    0.058979    0.000000
                              4.091071    -0.006113   -0.005943   -0.018927    0.030806    0.000000
                              2.286543     0.271828   -0.043212   -0.222524   -0.524373    0.000000
                              1.159810     0.459585   -0.112513   -0.523890   -0.720968    0.000000
                              0.591343     0.315900   -0.052073   -0.071277    1.023204    0.000000
                              0.312862     0.071683   -0.092263    0.812712    1.973874    0.000000
                              0.184828     0.010541    0.243946    0.625498   -2.805092    0.000000
                              0.068590     0.000045    0.413101   -0.812189    0.607954    0.000000
                              0.026791    -0.000837    0.543985   -0.185796    0.447653    1.000000
    6.2 B3u   1  2px          0.902705     1.000000
    7.2 B3u   1  2px          3.650546     1.000000
    8.2 B3u   1  4f1+         0.291553     1.000000
    9.2 B3u   1  4f3+         0.291553     1.000000
   10.2 B3u   1  4f1+         1.269061     1.000000
   11.2 B3u   1  4f3+         1.269061     1.000000
   12.2 B3u   1  4f1+         3.186116     1.000000
   13.2 B3u   1  4f3+         3.186116     1.000000
    1.3 B2u   1  2py         84.914002     0.000093    0.000020    0.000019   -0.000257    0.000000
    2.3 B2u                  42.855051    -0.000836   -0.000049    0.000138    0.001725    0.000000
    3.3 B2u                  21.700131     0.008679   -0.000761   -0.004622   -0.012646    0.000000
    4.3 B2u                  12.214690    -0.011178   -0.000575    0.004465    0.029062    0.000000
    5.3 B2u                   8.319164    -0.077767    0.018284    0.065760    0.058979    0.000000
                              4.091071    -0.006113   -0.005943   -0.018927    0.030806    0.000000
                              2.286543     0.271828   -0.043212   -0.222524   -0.524373    0.000000
                              1.159810     0.459585   -0.112513   -0.523890   -0.720968    0.000000
                              0.591343     0.315900   -0.052073   -0.071277    1.023204    0.000000
                              0.312862     0.071683   -0.092263    0.812712    1.973874    0.000000
                              0.184828     0.010541    0.243946    0.625498   -2.805092    0.000000
                              0.068590     0.000045    0.413101   -0.812189    0.607954    0.000000
                              0.026791    -0.000837    0.543985   -0.185796    0.447653    1.000000
    6.3 B2u   1  2py          0.902705     1.000000
    7.3 B2u   1  2py          3.650546     1.000000
    8.3 B2u   1  4f1-         0.291553     1.000000
    9.3 B2u   1  4f3-         0.291553     1.000000
   10.3 B2u   1  4f1-         1.269061     1.000000
   11.3 B2u   1  4f3-         1.269061     1.000000
   12.3 B2u   1  4f1-         3.186116     1.000000
   13.3 B2u   1  4f3-         3.186116     1.000000
    1.4 B1g   1  3d2-        77.434559     0.000022   -0.000025    0.000010    0.000000
    2.4 B1g                  27.708477     0.004218   -0.004311    0.006187    0.000000
    3.4 B1g                  12.914284     0.030087   -0.030913    0.042630    0.000000
    4.4 B1g                   6.062674     0.084821   -0.088049    0.127524    0.000000
                              2.863898     0.171110   -0.178330    0.248289    0.000000
                              1.386559     0.247451   -0.234335    0.259761    0.000000
                              0.677058     0.277310   -0.195775   -0.070794    0.000000
                              0.329864     0.261077    0.065872   -0.519396    0.000000
                              0.159474     0.190336    0.330536   -0.373658    0.000000
                              0.076174     0.119385    0.461229    0.455067    0.000000
                              0.028570     0.031297    0.184273    0.489586    1.000000
    5.4 B1g   1  3d2-         2.318162     1.000000
    6.4 B1g   1  3d2-         5.672148     1.000000
    7.4 B1g   1  5g2-         0.707265     1.000000
    8.4 B1g   1  5g4-         0.707265     1.000000
    9.4 B1g   1  5g2-         2.521341     1.000000
   10.4 B1g   1  5g4-         2.521341     1.000000
    1.5 B1u   1  2pz         84.914002     0.000093    0.000020    0.000019   -0.000257    0.000000
    2.5 B1u                  42.855051    -0.000836   -0.000049    0.000138    0.001725    0.000000
    3.5 B1u                  21.700131     0.008679   -0.000761   -0.004622   -0.012646    0.000000
    4.5 B1u                  12.214690    -0.011178   -0.000575    0.004465    0.029062    0.000000
    5.5 B1u                   8.319164    -0.077767    0.018284    0.065760    0.058979    0.000000
                              4.091071    -0.006113   -0.005943   -0.018927    0.030806    0.000000
                              2.286543     0.271828   -0.043212   -0.222524   -0.524373    0.000000
                              1.159810     0.459585   -0.112513   -0.523890   -0.720968    0.000000
                              0.591343     0.315900   -0.052073   -0.071277    1.023204    0.000000
                              0.312862     0.071683   -0.092263    0.812712    1.973874    0.000000
                              0.184828     0.010541    0.243946    0.625498   -2.805092    0.000000
                              0.068590     0.000045    0.413101   -0.812189    0.607954    0.000000
                              0.026791    -0.000837    0.543985   -0.185796    0.447653    1.000000
    6.5 B1u   1  2pz          0.902705     1.000000
    7.5 B1u   1  2pz          3.650546     1.000000
    8.5 B1u   1  4f0          0.291553     1.000000
    9.5 B1u   1  4f2+         0.291553     1.000000
   10.5 B1u   1  4f0          1.269061     1.000000
   11.5 B1u   1  4f2+         1.269061     1.000000
   12.5 B1u   1  4f0          3.186116     1.000000
   13.5 B1u   1  4f2+         3.186116     1.000000
    1.6 B2g   1  3d1+        77.434559     0.000022   -0.000025    0.000010    0.000000
    2.6 B2g                  27.708477     0.004218   -0.004311    0.006187    0.000000
    3.6 B2g                  12.914284     0.030087   -0.030913    0.042630    0.000000
    4.6 B2g                   6.062674     0.084821   -0.088049    0.127524    0.000000
                              2.863898     0.171110   -0.178330    0.248289    0.000000
                              1.386559     0.247451   -0.234335    0.259761    0.000000
                              0.677058     0.277310   -0.195775   -0.070794    0.000000
                              0.329864     0.261077    0.065872   -0.519396    0.000000
                              0.159474     0.190336    0.330536   -0.373658    0.000000
                              0.076174     0.119385    0.461229    0.455067    0.000000
                              0.028570     0.031297    0.184273    0.489586    1.000000
    5.6 B2g   1  3d1+         2.318162     1.000000
    6.6 B2g   1  3d1+         5.672148     1.000000
    7.6 B2g   1  5g1+         0.707265     1.000000
    8.6 B2g   1  5g3+         0.707265     1.000000
    9.6 B2g   1  5g1+         2.521341     1.000000
   10.6 B2g   1  5g3+         2.521341     1.000000
    1.7 B3g   1  3d1-        77.434559     0.000022   -0.000025    0.000010    0.000000
    2.7 B3g                  27.708477     0.004218   -0.004311    0.006187    0.000000
    3.7 B3g                  12.914284     0.030087   -0.030913    0.042630    0.000000
    4.7 B3g                   6.062674     0.084821   -0.088049    0.127524    0.000000
                              2.863898     0.171110   -0.178330    0.248289    0.000000
                              1.386559     0.247451   -0.234335    0.259761    0.000000
                              0.677058     0.277310   -0.195775   -0.070794    0.000000
                              0.329864     0.261077    0.065872   -0.519396    0.000000
                              0.159474     0.190336    0.330536   -0.373658    0.000000
                              0.076174     0.119385    0.461229    0.455067    0.000000
                              0.028570     0.031297    0.184273    0.489586    1.000000
    5.7 B3g   1  3d1-         2.318162     1.000000
    6.7 B3g   1  3d1-         5.672148     1.000000
    7.7 B3g   1  5g1-         0.707265     1.000000
    8.7 B3g   1  5g3-         0.707265     1.000000
    9.7 B3g   1  5g1-         2.521341     1.000000
   10.7 B3g   1  5g3-         2.521341     1.000000
    1.8 Au    1  4f2-         0.291553     1.000000
    2.8 Au    1  4f2-         1.269061     1.000000
    3.8 Au    1  4f2-         3.186116     1.000000

 NUCLEAR CHARGE:                   12
 NUMBER OF PRIMITIVE AOS:         198
 NUMBER OF SYMMETRY AOS:          164
 NUMBER OF CONTRACTIONS:           97   (  25Ag  +  13B3u +  13B2u +  10B1g +  13B1u +  10B2g +  10B3g +   3Au  )
 NUMBER OF CORE ORBITALS:           4   (   1Ag  +   1B3u +   1B2u +   0B1g +   1B1u +   0B2g +   0B3g +   0Au  )
 NUMBER OF VALENCE ORBITALS:        6   (   3Ag  +   0B3u +   0B2u +   1B1g +   0B1u +   1B2g +   1B3g +   0Au  )


 NUCLEAR REPULSION ENERGY    0.00000000

 EXTRA SYMMETRY OF AOS IN SYMMETRY 1:   1 1 1 1 1 1 1 2 3 2   3 2 3 2 3 2 3 2 3 4   5 6 4 5 6
 EXTRA SYMMETRY OF AOS IN SYMMETRY 2:   1 1 1 1 1 1 1 2 3 2   3 2 3
 EXTRA SYMMETRY OF AOS IN SYMMETRY 3:   1 1 1 1 1 1 1 2 3 2   3 2 3
 EXTRA SYMMETRY OF AOS IN SYMMETRY 4:   1 1 1 1 1 1 2 3 2 3
 EXTRA SYMMETRY OF AOS IN SYMMETRY 5:   1 1 1 1 1 1 1 2 3 2   3 2 3
 EXTRA SYMMETRY OF AOS IN SYMMETRY 6:   1 1 1 1 1 1 2 3 2 3
 EXTRA SYMMETRY OF AOS IN SYMMETRY 7:   1 1 1 1 1 1 2 3 2 3

 Eigenvalues of metric

         1 0.228E-02 0.733E-02 0.277E-01 0.277E-01 0.131E+00 0.131E+00 0.236E+00 0.359E+00
         2 0.364E-02 0.279E-01 0.249E+00 0.317E+00 0.317E+00 0.716E+00 0.943E+00 0.943E+00
         3 0.364E-02 0.279E-01 0.249E+00 0.317E+00 0.317E+00 0.716E+00 0.943E+00 0.943E+00
         4 0.277E-01 0.131E+00 0.359E+00 0.648E+00 0.648E+00 0.103E+01 0.135E+01 0.135E+01
         5 0.364E-02 0.279E-01 0.249E+00 0.317E+00 0.317E+00 0.716E+00 0.943E+00 0.943E+00
         6 0.277E-01 0.131E+00 0.359E+00 0.648E+00 0.648E+00 0.103E+01 0.135E+01 0.135E+01
         7 0.277E-01 0.131E+00 0.359E+00 0.648E+00 0.648E+00 0.103E+01 0.135E+01 0.135E+01
         8 0.317E+00 0.943E+00 0.174E+01


 Contracted 2-electron integrals neglected if value below      1.0D-12
 AO integral compression algorithm  1   Integral accuracy      1.0D-12

     13.107 MB (compressed) written to integral file ( 59.0%)


 NUMBER OF SORTED TWO-ELECTRON INTEGRALS:    1497820.     BUFFER LENGTH:  32768
 NUMBER OF SEGMENTS:   1  SEGMENT LENGTH:    1497820      RECORD LENGTH: 524288

 Memory used in sort:       2.05 MW

 SORT1 READ     2746375. AND WROTE     1138997. INTEGRALS IN      4 RECORDS. CPU TIME:     0.08 SEC, REAL TIME:     0.12 SEC
 SORT2 READ     1138997. AND WROTE     1497820. INTEGRALS IN     50 RECORDS. CPU TIME:     0.11 SEC, REAL TIME:     0.19 SEC

 FILE SIZES:   FILE 1:    32.4 MBYTE,  FILE 4:    16.8 MBYTE,   TOTAL:     49.2 MBYTE

 OPERATOR DM      FOR CENTER  0  COORDINATES:    0.000000    0.000000    0.000000
 OPERATOR EKIN    FOR CENTER  0  COORDINATES:    0.000000    0.000000    0.000000
 OPERATOR POT     FOR CENTER  0  COORDINATES:    0.000000    0.000000    0.000000


 **********************************************************************************************************************************
 DATASETS  * FILE   NREC   LENGTH (MB)   RECORD NAMES
              1      20       26.27       500      610      700      900      950      970     1000      129      960     1100   
                                          VAR    BASINP    GEOM    SYMINP    ZMAT    AOBASIS   BASIS     P2S    ABASIS      S 
                                         1400     1410     1420     1200     1210     1080     1600     1650     1300     1700   
                                         EKIN       V       ECP      H0       H01     AOSYM     SMH    MOLCAS    ERIS     OPER   

 PROGRAMS   *        TOTAL       INT
 CPU TIMES  *         2.03      1.89
 REAL TIME  *        10.21 SEC
 DISK USED  *        49.55 MB      
 **********************************************************************************************************************************


 PROGRAM * RHF-SCF (OPEN SHELL)       Authors: W. Meyer, H.-J. Werner


 NUMBER OF ELECTRONS:       7+    5-    SPACE SYMMETRY=1    SPIN SYMMETRY: Triplet 
 CONVERGENCE THRESHOLDS:    1.00E-05 (Density)    1.00E-07 (Energy)
 MAX. NUMBER OF ITERATIONS:       60
 INTERPOLATION TYPE:            DIIS
 INTERPOLATION STEPS:              2 (START)      1 (STEP)
 LEVEL SHIFTS:                 -0.60 (CLOSED) -0.30 (OPEN) 


 Singly occupied orbitals:      3.1       4.1
 
 Extra symmetries of mos in symmetry 1:   1   1   3   2

   Atom=TI basis=ECP10MDF_GUESS    lmin=0  lmax=2

 Orbital guess generated from atomic densities. Full valence occupancy:    4   1   1   1   1   1   1   0


 Molecular orbital dump at record        4202.2

 ITERATION    DDIFF          GRAD             ENERGY        2-EL.EN.            DIPOLE MOMENTS         DIIS   ORB.
    1      0.000D+00      0.000D+00       -57.26346633     70.284216    0.00000    0.00000    0.00000    0    start
    2      0.000D+00      0.300D-01       -57.54551261     78.711008    0.00000    0.00000    0.00000    1    diag,B
    3      0.221D-01      0.169D-01       -57.57899334     78.802092    0.00000    0.00000    0.00000    2    diag,B
    4      0.674D-02      0.818D-02       -57.60455477     79.152648    0.00000    0.00000    0.00000    3    diag,B
    5      0.602D-02      0.228D-02       -57.60903796     79.272925    0.00000    0.00000    0.00000    4    diag,B
    6      0.640D-02      0.770D-03       -57.60950121     79.252870    0.00000    0.00000    0.00000    5    diag,B
    7      0.504D-02      0.400D-03       -57.60959334     79.184233    0.00000    0.00000    0.00000    6    fixocc
    8      0.744D-03      0.148D-03       -57.60961465     79.154051    0.00000    0.00000    0.00000    7    diag,B
    9      0.259D-02      0.757D-04       -57.60962145     79.141904    0.00000    0.00000    0.00000    8    diag,B
   10      0.298D-02      0.266D-04       -57.60962172     79.143480    0.00000    0.00000    0.00000    9    orth
   11      0.623D-03      0.878D-05       -57.60962174     79.142794    0.00000    0.00000    0.00000    9    diag,B
   12      0.933D-04      0.104D-05       -57.60962174     79.142984    0.00000    0.00000    0.00000    9    diag,B
   13      0.802D-05      0.415D-06       -57.60962174     79.142958    0.00000    0.00000    0.00000    0    orth

 Final alpha occupancy:   4   1   1   0   1   0   0   0
 Final beta  occupancy:   2   1   1   0   1   0   0   0

 !RHF STATE 1.1 Energy                -57.609621738362
 Nuclear energy                         0.00000000
 One-electron energy                  -97.18110083
 Two-electron energy                   39.57147909
 Virial quotient                       -2.22705185
 !RHF STATE 1.1 Dipole moment           0.00000000     0.00000000     0.00000000
 Dipole moment /Debye                   0.00000000     0.00000000     0.00000000
 

 !RHF expec          <1.1|EKIN|1.1>    25.868109732188
 
 !RHF expec           <1.1|POT|1.1>   -10.954201749521

 ELECTRON ORBITALS
 =================


   Orb  Occ    Energy  Couls-En    Coefficients

                                   1 1s      1 1s      1 1s      1 1s      1 1s      1 1s      1 1s      1 3d0     1 3d2+    1 3d0  
                                   1 3d2+    1 3d0     1 3d2+    1 3d0     1 3d2+    1 3d0     1 3d2+    1 3d0     1 3d2+    1 5g0  
                                   1 5g4+    1 5g2+    1 5g0     1 5g4+    1 5g2+ 

   1.1   2    -2.9280  -13.2772  0.999844  0.000838  0.000001  0.000356 -0.000704  0.000451 -0.000191  0.000000  0.000000 -0.000000
                                -0.000000 -0.000000  0.000000  0.000000 -0.000000  0.000000 -0.000000  0.000000 -0.000000  0.001224
                                 0.001034  0.000000  0.000480  0.000406  0.000000

   2.1   2    -0.2217   -3.7507 -0.000419  0.999116  0.001850 -0.000100  0.001031 -0.000037 -0.000017 -0.000000  0.000000  0.000000
                                -0.000000  0.000000 -0.000000 -0.000000  0.000000  0.000000 -0.000000 -0.000000  0.000000  0.000040
                                 0.000034 -0.000000  0.000183  0.000155 -0.000000

   3.1   +    -0.4404   -7.5129 -0.000000 -0.000000 -0.000000 -0.000000  0.000000  0.000000 -0.000000  0.002807  0.989286 -0.000468
                                -0.164770 -0.000045 -0.015687  0.000028  0.009698 -0.000003 -0.001058 -0.000003 -0.000967  0.000009
                                -0.000011 -0.005073  0.000004 -0.000004 -0.002003

   4.1   +    -0.4404   -7.5129 -0.000000 -0.000000 -0.000000 -0.000000  0.000000  0.000000 -0.000000  0.989286 -0.002807 -0.164770
                                 0.000468 -0.015687  0.000045  0.009698 -0.000028 -0.001058  0.000003 -0.000967  0.000003  0.003275
                                -0.003874  0.000014  0.001293 -0.001530  0.000006

   5.1   0     0.0616   -1.5944 -0.893342 -4.039501 -1.099448 -0.438144  4.645809  0.009365 -0.158176 -0.000000  0.000000 -0.000000
                                 0.000000 -0.000000  0.000000  0.000000 -0.000000  0.000000  0.000000  0.000000  0.000000 -0.000777
                                -0.000657 -0.000000  0.000049  0.000041 -0.000000

   6.1   0     0.0891   -1.4576  0.000000  0.000000  0.000000  0.000000 -0.000000  0.000000 -0.000000 -0.188633 -0.000003 -0.128034
                                -0.000002 -0.123256 -0.000002  1.180623  0.000019  0.029095  0.000000  0.017266  0.000000 -0.000171
                                 0.000202  0.000000 -0.000105  0.000124  0.000000

                                   1 2px     1 2px     1 2px     1 2px     1 2px     1 2px     1 2px     1 4f1+    1 4f3+    1 4f1+ 
                                   1 4f3+    1 4f1+    1 4f3+ 

   1.2   2    -1.8096  -11.0230  0.996706  0.054001  0.030143  0.010447 -0.028324  0.006254 -0.000632 -0.003100  0.004002 -0.003551
                                 0.004584 -0.001148  0.001482

   2.2   0     0.0242   -2.1938 -0.109430  0.221460  0.049865 -0.035976  0.827165  0.032280 -0.004408 -0.002801  0.003616 -0.000267
                                 0.000345  0.000225 -0.000290

   3.2   0     0.1468   -2.2370  0.408064  3.122649 -0.448650  0.237930 -3.282174 -0.199743  0.023967 -0.004331  0.005591 -0.000386
                                 0.000498  0.000337 -0.000435

                                   1 2py     1 2py     1 2py     1 2py     1 2py     1 2py     1 2py     1 4f1-    1 4f3-    1 4f1- 
                                   1 4f3-    1 4f1-    1 4f3- 

   1.3   2    -1.8096  -11.0230  0.996706  0.054001  0.030143  0.010447 -0.028324  0.006254 -0.000632 -0.003100 -0.004002 -0.003551
                                -0.004584 -0.001148 -0.001482

   2.3   0     0.0242   -2.1938 -0.109430  0.221460  0.049865 -0.035976  0.827165  0.032280 -0.004408 -0.002801 -0.003616 -0.000267
                                -0.000345  0.000225  0.000290

   3.3   0     0.1468   -2.2370  0.408064  3.122649 -0.448650  0.237930 -3.282174 -0.199743  0.023967 -0.004331 -0.005591 -0.000386
                                -0.000498  0.000337  0.000435

                                   1 3d2-    1 3d2-    1 3d2-    1 3d2-    1 3d2-    1 3d2-    1 5g2-    1 5g4-    1 5g2-    1 5g4- 


   1.4   0     0.0799   -1.9959  0.226795 -0.035357 -0.078939  0.986628  0.020558  0.011835 -0.000780  0.000000 -0.000241 -0.000000

   2.4   0     0.1512   -4.7404  1.067763  0.473515  0.228547 -0.887835 -0.042120 -0.026842 -0.002076 -0.000000 -0.000692 -0.000000

                                   1 2pz     1 2pz     1 2pz     1 2pz     1 2pz     1 2pz     1 2pz     1 4f0     1 4f2+    1 4f0  
                                   1 4f2+    1 4f0     1 4f2+ 

   1.5   2    -1.8096  -11.0230  0.996706  0.054001  0.030143  0.010447 -0.028324  0.006254 -0.000632  0.005062  0.000000  0.005799
                                 0.000000  0.001874  0.000000

   2.5   0     0.0242   -2.1938 -0.109430  0.221460  0.049865 -0.035976  0.827165  0.032280 -0.004408  0.004574  0.000000  0.000436
                                 0.000000 -0.000367  0.000000

   3.5   0     0.1468   -2.2370  0.408064  3.122649 -0.448650  0.237930 -3.282174 -0.199743  0.023967  0.007073  0.000000  0.000630
                                 0.000000 -0.000550  0.000000

                                   1 3d1+    1 3d1+    1 3d1+    1 3d1+    1 3d1+    1 3d1+    1 5g1+    1 5g3+    1 5g1+    1 5g3+ 


   1.6   0     0.0799   -1.9959  0.226795 -0.035357 -0.078939  0.986628  0.020558  0.011835  0.000276  0.000729  0.000085  0.000225

   2.6   0     0.1512   -4.7404  1.067763  0.473515  0.228547 -0.887835 -0.042120 -0.026842  0.000734  0.001942  0.000245  0.000647

                                   1 3d1-    1 3d1-    1 3d1-    1 3d1-    1 3d1-    1 3d1-    1 5g1-    1 5g3-    1 5g1-    1 5g3- 


   1.7   0     0.0799   -1.9959  0.226795 -0.035357 -0.078939  0.986628  0.020558  0.011835  0.000276 -0.000729  0.000085 -0.000225

   2.7   0     0.1512   -4.7404  1.067763  0.473515  0.228547 -0.887835 -0.042120 -0.026842  0.000734 -0.001942  0.000245 -0.000647

                                   1 4f2-    1 4f2-    1 4f2- 

   1.8   0     0.9930   -2.4308  0.999871 -0.004476  0.020333

   2.8   0     3.8254    0.1703 -0.359309  1.085386 -0.041385

 HOMO      4.1    -0.440392 =     -11.9837eV
 LUMO      2.2     0.024153 =       0.6572eV
 LUMO-HOMO         0.464545 =      12.6409eV


 **********************************************************************************************************************************
 DATASETS  * FILE   NREC   LENGTH (MB)   RECORD NAMES
              1      20       26.27       500      610      700      900      950      970     1000      129      960     1100   
                                          VAR    BASINP    GEOM    SYMINP    ZMAT    AOBASIS   BASIS     P2S    ABASIS      S 
                                         1400     1410     1420     1200     1210     1080     1600     1650     1300     1700   
                                         EKIN       V       ECP      H0       H01     AOSYM     SMH    MOLCAS    ERIS     OPER   

              2       4        2.81       700     1000      520     4202   
                                         GEOM     BASIS   MCVARS     RHF  

 PROGRAMS   *        TOTAL       RHF       INT
 CPU TIMES  *         2.17      0.14      1.89
 REAL TIME  *        10.58 SEC
 DISK USED  *        49.55 MB      
 **********************************************************************************************************************************


 PROGRAM * POP (Mulliken population analysis)

 
 Density matrix read from record         4202.2  Type=RHF/CHARGE (state 1.1)
 
 Population analysis by basis function type

 Unique atom        s        p        d        f        g    Total    Charge
   1  TI      3.99999  5.99942  1.99993  0.00058  0.00008 12.00000  - 0.00000


 **********************************************************************************************************************************
 DATASETS  * FILE   NREC   LENGTH (MB)   RECORD NAMES
              1      20       26.27       500      610      700      900      950      970     1000      129      960     1100   
                                          VAR    BASINP    GEOM    SYMINP    ZMAT    AOBASIS   BASIS     P2S    ABASIS      S 
                                         1400     1410     1420     1200     1210     1080     1600     1650     1300     1700   
                                         EKIN       V       ECP      H0       H01     AOSYM     SMH    MOLCAS    ERIS     OPER   

              2       4        2.81       700     1000      520     4202   
                                         GEOM     BASIS   MCVARS     RHF  

 PROGRAMS   *        TOTAL       POP       RHF       INT
 CPU TIMES  *         2.18      0.00      0.14      1.89
 REAL TIME  *        10.60 SEC
 DISK USED  *        49.55 MB      
 **********************************************************************************************************************************


 PROGRAM * MULTI (Direct Multiconfiguration SCF)       Authors: P.J. Knowles, H.-J. Werner (1984)     S.T. Elbert (1988)


 Number of closed-shell orbitals:   5 (   2   1   1   0   1   0   0   0 )
 Number of active  orbitals:        5 (   2   0   0   1   0   1   1   0 )
 Number of external orbitals:      87 (  21  12  12   9  12   9   9   3 )

 State symmetry 1

 Number of electrons:     2    Spin symmetry=Triplet   Space symmetry=1
 Number of states:        1
 Number of CSFs:          1   (1 determinants, 10 intermediate states)

 State symmetry 2

 Number of electrons:     2    Spin symmetry=Triplet   Space symmetry=4
 Number of states:        3
 Number of CSFs:          3   (3 determinants, 10 intermediate states)

 State symmetry 3

 Number of electrons:     2    Spin symmetry=Triplet   Space symmetry=6
 Number of states:        3
 Number of CSFs:          3   (3 determinants, 10 intermediate states)

 State symmetry 4

 Number of electrons:     2    Spin symmetry=Triplet   Space symmetry=7
 Number of states:        3
 Number of CSFs:          3   (3 determinants, 10 intermediate states)

 Molecular orbitals read from record     4202.2  Type=RHF/CANONICAL (state 1.1)
 *** IN SYMMETRY 1 ORBITAL  1 SYMMETRY CONTAMINATION OF 0.313D-02 HAS BEEN REMOVED
 *** IN SYMMETRY 1 ORBITAL  2 SYMMETRY CONTAMINATION OF 0.411D-03 HAS BEEN REMOVED
 *** IN SYMMETRY 1 ORBITAL  3 SYMMETRY CONTAMINATION OF 0.877D-02 HAS BEEN REMOVED
 *** IN SYMMETRY 1 ORBITAL  4 SYMMETRY CONTAMINATION OF 0.112D-01 HAS BEEN REMOVED

 EXTRA SYMMETRY OF MOS IN SYMMETRY 1:   1 1 3 2 1 2 3 1 3 2   3 2 1 4 6 5 3 2 1 4   5 6 3 2 1
 *** IN SYMMETRY 2 ORBITAL  1 SYMMETRY CONTAMINATION OF 0.156D-01 HAS BEEN REMOVED
 EXTRA SYMMETRY OF MOS IN SYMMETRY 2:   1 1 1 1 3 2 1 3 2 1   3 2 1
 *** IN SYMMETRY 3 ORBITAL  1 SYMMETRY CONTAMINATION OF 0.156D-01 HAS BEEN REMOVED
 EXTRA SYMMETRY OF MOS IN SYMMETRY 3:   1 1 1 1 3 2 1 3 2 1   3 2 1
 *** IN SYMMETRY 4 ORBITAL  1 SYMMETRY CONTAMINATION OF 0.750D-03 HAS BEEN REMOVED
 EXTRA SYMMETRY OF MOS IN SYMMETRY 4:   1 1 1 1 3 2 1 3 2 1
 *** IN SYMMETRY 5 ORBITAL  1 SYMMETRY CONTAMINATION OF 0.112D-01 HAS BEEN REMOVED
 EXTRA SYMMETRY OF MOS IN SYMMETRY 5:   1 1 1 1 2 3 1 2 3 1   2 3 1
 *** IN SYMMETRY 6 ORBITAL  1 SYMMETRY CONTAMINATION OF 0.966D-03 HAS BEEN REMOVED
 EXTRA SYMMETRY OF MOS IN SYMMETRY 6:   1 1 1 1 2 3 1 2 3 1
 *** IN SYMMETRY 7 ORBITAL  1 SYMMETRY CONTAMINATION OF 0.966D-03 HAS BEEN REMOVED
 EXTRA SYMMETRY OF MOS IN SYMMETRY 7:   1 1 1 1 2 3 1 2 3 1

 Wavefunction dump at record             5202.2

 Convergence thresholds  0.10E-01 (gradient)  0.10E-05 (energy)  0.10E-02 (step length)

 Weight factors for state symmetry  1:    0.10000
 Weight factors for state symmetry  2:    0.10000   0.10000   0.10000
 Weight factors for state symmetry  3:    0.10000   0.10000   0.10000
 Weight factors for state symmetry  4:    0.10000   0.10000   0.10000

 Number of orbital rotations:      151   (     4 Core/Active     78 Core/Virtual   0 Active/Active     69 Active/Virtual)
 Total number of variables:        179


 ITER. MIC  NCI  NEG     ENERGY(VAR)     ENERGY(PROJ)   ENERGY CHANGE     GRAD(0)  GRAD(ORB)   GRAD(CI)     STEP       TIME

   1   64   16    3     -57.10072021     -57.67542951   -0.57470930    0.56556331 0.00000000 0.00000000  0.16D+01      0.06
   2   15   20    0     -57.55187798     -57.58836834   -0.03649037    0.37110148 0.00000438 0.00000000  0.22D+00      0.09
   3   21   20    0     -57.58956857     -57.58970890   -0.00014033    0.01610320 0.00000000 0.00000000  0.14D-01      0.13
   4   29   24    0     -57.58970941     -57.58970942   -0.00000000    0.00007570 0.00000000 0.00000000  0.85D-04      0.17
   5   28   20    0     -57.58970942     -57.58970942    0.00000000    0.00000000 0.00000000 0.00000000  0.30D-08      0.21

 ** WVFN ****  CONVERGENCE REACHED, FINAL GRADIENT:  0.75D-13



 Results for state 1.1
 =====================

 !MCSCF STATE 1.1 Energy              -57.607100694796
 Nuclear energy                         0.00000000
 Kinetic energy                        25.80176707
 One electron energy                  -97.14746765
 Two electron energy                   39.54036696
 Virial ratio                           3.23268044

 !MCSCF STATE 1.1 Dipole moment         0.00000000     0.00000000     0.00000000
 Dipole moment /Debye                   0.00000000     0.00000000     0.00000000



 Results for state 1.4
 =====================

 !MCSCF STATE 1.4 Energy              -57.607100694797
 Nuclear energy                         0.00000000
 Kinetic energy                        25.80176707
 One electron energy                  -97.14746765
 Two electron energy                   39.54036696
 Virial ratio                           3.23268044

 !MCSCF STATE 1.4 Dipole moment         0.00000000     0.00000000     0.00000000
 Dipole moment /Debye                   0.00000000     0.00000000     0.00000000

 Results for state 2.4
 =====================

 !MCSCF STATE 2.4 Energy              -57.607100694796
 Nuclear energy                         0.00000000
 Kinetic energy                        25.80176707
 One electron energy                  -97.14746765
 Two electron energy                   39.54036696
 Virial ratio                           3.23268044

 !MCSCF STATE 2.4 Dipole moment         0.00000000     0.00000000     0.00000000
 Dipole moment /Debye                   0.00000000     0.00000000     0.00000000

 Results for state 3.4
 =====================

 !MCSCF STATE 3.4 Energy              -57.549129772109
 Nuclear energy                         0.00000000
 Kinetic energy                        25.80176707
 One electron energy                  -97.14746765
 Two electron energy                   39.59833788
 Virial ratio                           3.23043366

 !MCSCF STATE 3.4 Dipole moment         0.00000000     0.00000000     0.00000000
 Dipole moment /Debye                   0.00000000     0.00000000     0.00000000



 Results for state 1.6
 =====================

 !MCSCF STATE 1.6 Energy              -57.607100694797
 Nuclear energy                         0.00000000
 Kinetic energy                        25.80176707
 One electron energy                  -97.14746765
 Two electron energy                   39.54036696
 Virial ratio                           3.23268044

 !MCSCF STATE 1.6 Dipole moment         0.00000000     0.00000000     0.00000000
 Dipole moment /Debye                   0.00000000     0.00000000     0.00000000

 Results for state 2.6
 =====================

 !MCSCF STATE 2.6 Energy              -57.607100694796
 Nuclear energy                         0.00000000
 Kinetic energy                        25.80176707
 One electron energy                  -97.14746765
 Two electron energy                   39.54036696
 Virial ratio                           3.23268044

 !MCSCF STATE 2.6 Dipole moment         0.00000000     0.00000000     0.00000000
 Dipole moment /Debye                   0.00000000     0.00000000     0.00000000

 Results for state 3.6
 =====================

 !MCSCF STATE 3.6 Energy              -57.549129772109
 Nuclear energy                         0.00000000
 Kinetic energy                        25.80176707
 One electron energy                  -97.14746765
 Two electron energy                   39.59833788
 Virial ratio                           3.23043366

 !MCSCF STATE 3.6 Dipole moment         0.00000000     0.00000000     0.00000000
 Dipole moment /Debye                   0.00000000     0.00000000     0.00000000



 Results for state 1.7
 =====================

 !MCSCF STATE 1.7 Energy              -57.607100694797
 Nuclear energy                         0.00000000
 Kinetic energy                        25.80176707
 One electron energy                  -97.14746765
 Two electron energy                   39.54036696
 Virial ratio                           3.23268044

 !MCSCF STATE 1.7 Dipole moment         0.00000000     0.00000000     0.00000000
 Dipole moment /Debye                   0.00000000     0.00000000     0.00000000

 Results for state 2.7
 =====================

 !MCSCF STATE 2.7 Energy              -57.607100694796
 Nuclear energy                         0.00000000
 Kinetic energy                        25.80176707
 One electron energy                  -97.14746765
 Two electron energy                   39.54036696
 Virial ratio                           3.23268044

 !MCSCF STATE 2.7 Dipole moment         0.00000000     0.00000000     0.00000000
 Dipole moment /Debye                   0.00000000     0.00000000     0.00000000

 Results for state 3.7
 =====================

 !MCSCF STATE 3.7 Energy              -57.549129772109
 Nuclear energy                         0.00000000
 Kinetic energy                        25.80176707
 One electron energy                  -97.14746765
 Two electron energy                   39.59833788
 Virial ratio                           3.23043366

 !MCSCF STATE 3.7 Dipole moment         0.00000000     0.00000000     0.00000000
 Dipole moment /Debye                   0.00000000     0.00000000     0.00000000

 State-averaged charge density matrix saved on record  5202.2 (density set 1)

 !MCSCF expec        <1.1|EKIN|1.1>    25.801767068430
 !MCSCF expec        <1.4|EKIN|1.4>    25.801767068432
 !MCSCF expec        <2.4|EKIN|2.4>    25.801767068430
 !MCSCF expec        <3.4|EKIN|3.4>    25.801767068431
 !MCSCF expec        <1.6|EKIN|1.6>    25.801767068432
 !MCSCF expec        <2.6|EKIN|2.6>    25.801767068432
 !MCSCF expec        <3.6|EKIN|3.6>    25.801767068431
 !MCSCF expec        <1.7|EKIN|1.7>    25.801767068432
 !MCSCF expec        <2.7|EKIN|2.7>    25.801767068432
 !MCSCF expec        <3.7|EKIN|3.7>    25.801767068431

 !MCSCF expec         <1.1|POT|1.1>   -10.947007827715
 !MCSCF expec         <1.4|POT|1.4>   -10.947007827715
 !MCSCF expec         <2.4|POT|2.4>   -10.947007827715
 !MCSCF expec         <3.4|POT|3.4>   -10.947007827715
 !MCSCF expec         <1.6|POT|1.6>   -10.947007827715
 !MCSCF expec         <2.6|POT|2.6>   -10.947007827715
 !MCSCF expec         <3.6|POT|3.6>   -10.947007827715
 !MCSCF expec         <1.7|POT|1.7>   -10.947007827715
 !MCSCF expec         <2.7|POT|2.7>   -10.947007827715
 !MCSCF expec         <3.7|POT|3.7>   -10.947007827715


 NATURAL ORBITALS (state averaged)
 =================================

   Orb     Occ        Energy       Coefficients

                                   1 1s      1 1s      1 1s      1 1s      1 1s      1 1s      1 1s      1 3d0     1 3d2+    1 3d0  
                                   1 3d2+    1 3d0     1 3d2+    1 3d0     1 3d2+    1 3d0     1 3d2+    1 3d0     1 3d2+    1 5g0  
                                   1 5g4+    1 5g2+    1 5g0     1 5g4+    1 5g2+ 

   1.1  2.00000    -2.932571     1.000005 -0.000007 -0.000005 -0.000001  0.000008 -0.000010  0.000005  0.000000  0.000000  0.000000
                                 0.000000  0.000000  0.000000  0.000000  0.000000  0.000000  0.000000  0.000000  0.000000  0.000000
                                 0.000000  0.000000  0.000000  0.000000  0.000000

   2.1  2.00000    -0.222333     0.000006  0.999973 -0.000032  0.000002  0.000031 -0.000020  0.000008  0.000000  0.000000  0.000000
                                 0.000000  0.000000  0.000000  0.000000  0.000000  0.000000  0.000000  0.000000  0.000000  0.000000
                                 0.000000  0.000000  0.000000  0.000000  0.000000

   3.1  0.40000     0.089719     0.000000  0.000000  0.000000  0.000000  0.000000  0.000000  0.000000  0.990505  0.000000 -0.153404
                                 0.000000 -0.015768  0.000000  0.007509  0.000000 -0.000677  0.000000 -0.000279  0.000000  0.000000
                                 0.000000  0.000000  0.000000  0.000000  0.000000

   4.1  0.40000     0.089719     0.000000  0.000000  0.000000  0.000000  0.000000  0.000000  0.000000  0.000000  0.990505  0.000000
                                -0.153404  0.000000 -0.015768  0.000000  0.007509  0.000000 -0.000677  0.000000 -0.000279  0.000000
                                 0.000000  0.000000  0.000000  0.000000  0.000000

                                   1 2px     1 2px     1 2px     1 2px     1 2px     1 2px     1 2px     1 4f1+    1 4f3+    1 4f1+ 
                                   1 4f3+    1 4f1+    1 4f3+ 

   1.2  2.00000    -1.813409     0.996876  0.053310  0.029697  0.010271 -0.027942  0.006095 -0.000612  0.000000  0.000000  0.000000
                                 0.000000  0.000000  0.000000

                                   1 2py     1 2py     1 2py     1 2py     1 2py     1 2py     1 2py     1 4f1-    1 4f3-    1 4f1- 
                                   1 4f3-    1 4f1-    1 4f3- 

   1.3  2.00000    -1.813409     0.996876  0.053310  0.029697  0.010271 -0.027942  0.006095 -0.000612  0.000000  0.000000  0.000000
                                 0.000000  0.000000  0.000000

                                   1 3d2-    1 3d2-    1 3d2-    1 3d2-    1 3d2-    1 3d2-    1 5g2-    1 5g4-    1 5g2-    1 5g4- 


   1.4  0.40000     0.089719     0.990505 -0.153404 -0.015768  0.007509 -0.000677 -0.000279  0.000000  0.000000  0.000000  0.000000

                                   1 2pz     1 2pz     1 2pz     1 2pz     1 2pz     1 2pz     1 2pz     1 4f0     1 4f2+    1 4f0  
                                   1 4f2+    1 4f0     1 4f2+ 

   1.5  2.00000    -1.813409     0.996876  0.053310  0.029697  0.010271 -0.027942  0.006095 -0.000612  0.000000  0.000000  0.000000
                                 0.000000  0.000000  0.000000

                                   1 3d1+    1 3d1+    1 3d1+    1 3d1+    1 3d1+    1 3d1+    1 5g1+    1 5g3+    1 5g1+    1 5g3+ 


   1.6  0.40000     0.089719     0.990505 -0.153404 -0.015768  0.007509 -0.000677 -0.000279  0.000000  0.000000  0.000000  0.000000

                                   1 3d1-    1 3d1-    1 3d1-    1 3d1-    1 3d1-    1 3d1-    1 5g1-    1 5g3-    1 5g1-    1 5g3- 


   1.7  0.40000     0.089719     0.990505 -0.153404 -0.015768  0.007509 -0.000677 -0.000279  0.000000  0.000000  0.000000  0.000000
 

 EXTRA SYMMETRY OF MOS IN SYMMETRY 1:   1 1 2 3 1 2 3 1 3 2   3 2 1 6 4 5 3 2 1 6   4 5 3 2 1
 EXTRA SYMMETRY OF MOS IN SYMMETRY 4:   1 1 1 1 2 3 1 2 3 1
 EXTRA SYMMETRY OF MOS IN SYMMETRY 6:   1 1 1 1 3 2 1 3 2 1
 EXTRA SYMMETRY OF MOS IN SYMMETRY 7:   1 1 1 1 3 2 1 3 2 1

 Natural orbital dump (state averaged) at molpro section  5202.2    (Orbital set 2)


 CI vector for state symmetry 1
 ==============================

 aa 0 0 0          1.0000000

 TOTAL ENERGIES                       -57.60710069

 CI vector for state symmetry 2
 ==============================

 a0 a 0 0          0.0000000   1.0000000   0.0000000
 00 0 a a          0.8944272   0.0000000   0.4472136
 0a a 0 0         -0.4472136   0.0000000   0.8944272

 TOTAL ENERGIES                       -57.60710069   -57.60710069   -57.54912977

 CI vector for state symmetry 3
 ==============================

 a0 0 a 0          0.0747080   0.6280276   0.7745967
 00 a 0 a          0.7668553   0.4603618  -0.4472136
 0a 0 a 0         -0.6374572   0.6274140  -0.4472136

 TOTAL ENERGIES                       -57.60710069   -57.60710069   -57.54912977

 CI vector for state symmetry 4
 ==============================

 a0 0 0 a          0.0747511  -0.6280225   0.7745967
 00 a a 0          0.7668868  -0.4603092  -0.4472136
 0a 0 0 a          0.6374142   0.6274577   0.4472136

 TOTAL ENERGIES                       -57.60710069   -57.60710069   -57.54912977



 **********************************************************************************************************************************
 DATASETS  * FILE   NREC   LENGTH (MB)   RECORD NAMES
              1      21       27.12       500      610      700      900      950      970     1000      129      960     1100   
                                          VAR    BASINP    GEOM    SYMINP    ZMAT    AOBASIS   BASIS     P2S    ABASIS      S 
                                         1400     1410     1420     1200     1210     1080     1600     1650     1300     1700   
                                         EKIN       V       ECP      H0       H01     AOSYM     SMH    MOLCAS    ERIS     OPER   
                                         1380   
                                         JKOP   

              2       5        5.35       700     1000      520     4202     5202   
                                         GEOM     BASIS   MCVARS     RHF     MCSCF   

 PROGRAMS   *        TOTAL     MULTI       POP       RHF       INT
 CPU TIMES  *         2.46      0.28      0.00      0.14      1.89
 REAL TIME  *        12.60 SEC
 DISK USED  *        49.55 MB      
 **********************************************************************************************************************************


 PROGRAM * RHF-SCF (OPEN SHELL)       Authors: W. Meyer, H.-J. Werner


 NUMBER OF ELECTRONS:       7+    5-    SPACE SYMMETRY=1    SPIN SYMMETRY: Triplet 
 CONVERGENCE THRESHOLDS:    1.00E-05 (Density)    1.00E-07 (Energy)
 MAX. NUMBER OF ITERATIONS:        0
 INTERPOLATION TYPE:            DIIS
 INTERPOLATION STEPS:              2 (START)      1 (STEP)
 LEVEL SHIFTS:                 -0.60 (CLOSED) -0.30 (OPEN) 


 Singly occupied orbitals:      3.1       4.1
 Molecular orbitals read from record     5202.2  Type=MCSCF/NATURAL (state averaged)

 Molecular orbital dump at record        2101.2

 ITERATION    DDIFF          GRAD             ENERGY        2-EL.EN.            DIPOLE MOMENTS         DIIS   ORB.
    1      0.000D+00      0.000D+00       -57.60710069     79.080734    0.00000    0.00000    0.00000    0    start

 Final alpha occupancy:   4   1   1   0   1   0   0   0
 Final beta  occupancy:   2   1   1   0   1   0   0   0

 !RHF STATE 1.1 Energy                -57.607100694796
 Nuclear energy                         0.00000000
 One-electron energy                  -97.14746765
 Two-electron energy                   39.54036696
 Virial quotient                       -2.23268044
 !RHF STATE 1.1 Dipole moment           0.00000000     0.00000000     0.00000000
 Dipole moment /Debye                   0.00000000     0.00000000     0.00000000
 

 !RHF expec          <1.1|EKIN|1.1>    25.801767068430
 
 !RHF expec           <1.1|POT|1.1>   -10.947007827715

 ELECTRON ORBITALS
 =================


   Orb  Occ    Energy  Couls-En    Coefficients

                                   1 1s      1 1s      1 1s      1 1s      1 1s      1 1s      1 1s      1 3d0     1 3d2+    1 3d0  
                                   1 3d2+    1 3d0     1 3d2+    1 3d0     1 3d2+    1 3d0     1 3d2+    1 3d0     1 3d2+    1 5g0  
                                   1 5g4+    1 5g2+    1 5g0     1 5g4+    1 5g2+ 

   1.1   2    -2.9326  -13.2828  1.000005 -0.000007 -0.000005 -0.000001  0.000008 -0.000010  0.000005  0.000000  0.000000  0.000000
                                 0.000000  0.000000  0.000000  0.000000  0.000000  0.000000  0.000000  0.000000  0.000000  0.000000
                                 0.000000  0.000000  0.000000  0.000000  0.000000

   2.1   2    -0.2223   -3.7565  0.000006  0.999973 -0.000032  0.000002  0.000031 -0.000020  0.000008  0.000000  0.000000  0.000000
                                 0.000000  0.000000  0.000000  0.000000  0.000000  0.000000  0.000000  0.000000  0.000000  0.000000
                                 0.000000  0.000000  0.000000  0.000000  0.000000

   3.1   +     0.0897   -6.9537  0.000000  0.000000  0.000000  0.000000  0.000000  0.000000  0.000000  0.990505  0.000000 -0.153404
                                 0.000000 -0.015768  0.000000  0.007509  0.000000 -0.000677  0.000000 -0.000279  0.000000  0.000000
                                 0.000000  0.000000  0.000000  0.000000  0.000000

   4.1   +     0.0897   -6.9537  0.000000  0.000000  0.000000  0.000000  0.000000  0.000000  0.000000  0.000000  0.990505  0.000000
                                -0.153404  0.000000 -0.015768  0.000000  0.007509  0.000000 -0.000677  0.000000 -0.000279  0.000000
                                 0.000000  0.000000  0.000000  0.000000  0.000000

                                   1 2px     1 2px     1 2px     1 2px     1 2px     1 2px     1 2px     1 4f1+    1 4f3+    1 4f1+ 
                                   1 4f3+    1 4f1+    1 4f3+ 

   1.2   2    -1.8134  -11.0287  0.996876  0.053310  0.029697  0.010271 -0.027942  0.006095 -0.000612  0.000000  0.000000  0.000000
                                 0.000000  0.000000  0.000000

                                   1 2py     1 2py     1 2py     1 2py     1 2py     1 2py     1 2py     1 4f1-    1 4f3-    1 4f1- 
                                   1 4f3-    1 4f1-    1 4f3- 

   1.3   2    -1.8134  -11.0287  0.996876  0.053310  0.029697  0.010271 -0.027942  0.006095 -0.000612  0.000000  0.000000  0.000000
                                 0.000000  0.000000  0.000000

                                   1 2pz     1 2pz     1 2pz     1 2pz     1 2pz     1 2pz     1 2pz     1 4f0     1 4f2+    1 4f0  
                                   1 4f2+    1 4f0     1 4f2+ 

   1.5   2    -1.8134  -11.0287  0.996876  0.053310  0.029697  0.010271 -0.027942  0.006095 -0.000612  0.000000  0.000000  0.000000
                                 0.000000  0.000000  0.000000

 HOMO      4.1     0.089719 =       2.4414eV
 LUMO      2.2     0.026173 =       0.7122eV
 LUMO-HOMO        -0.063546 =      -1.7292eV


 **********************************************************************************************************************************
 DATASETS  * FILE   NREC   LENGTH (MB)   RECORD NAMES
              1      21       27.12       500      610      700      900      950      970     1000      129      960     1100   
                                          VAR    BASINP    GEOM    SYMINP    ZMAT    AOBASIS   BASIS     P2S    ABASIS      S 
                                         1400     1410     1420     1200     1210     1080     1600     1650     1300     1700   
                                         EKIN       V       ECP      H0       H01     AOSYM     SMH    MOLCAS    ERIS     OPER   
                                         1380   
                                         JKOP   

              2       6        7.96       700     1000      520     4202     5202     2101   
                                         GEOM     BASIS   MCVARS     RHF     MCSCF     RHF  

 PROGRAMS   *        TOTAL       RHF     MULTI       POP       RHF       INT
 CPU TIMES  *         2.48      0.02      0.28      0.00      0.14      1.89
 REAL TIME  *        12.79 SEC
 DISK USED  *        49.55 MB      
 **********************************************************************************************************************************
 SETTING SCF(I)         =       -57.60710069  AU                              
 SETTING _CC_NORM_MAX   =         2.00000000                                  


 PROGRAM * CCSD (Restricted open-shell coupled cluster)     Authors: C. Hampel, H.-J. Werner, 1991, M. Deegan, P.J. Knowles, 1992


 Convergence thresholds:  THRVAR = 1.00D-08  THRDEN = 1.00D-06

 CCSD(T)     terms to be evaluated (factor= 1.000)


 Number of closed-shell orbitals:   5 (   2   1   1   0   1   0   0   0 )
 Number of active  orbitals:        2 (   2   0   0   0   0   0   0   0 )
 Number of external orbitals:      90 (  21  12  12  10  12  10  10   3 )

 Memory could be reduced to 1.89 Mwords without degradation in triples

 Number of N-1 electron functions:              12
 Number of N-2 electron functions:              66
 Number of singly external CSFs:               210
 Number of doubly external CSFs:             56757
 Total number of CSFs:                       56967

 Molecular orbitals read from record     2101.2  Type=RHF/CANONICAL (state 1.1)

 Integral transformation finished. Total CPU:   0.03 sec, npass=  1  Memory used:   0.32 MW

 Starting RMP2 calculation

 Wavefunction is spin-projected

 ITER.      SQ.NORM     CORR.ENERGY   TOTAL ENERGY   ENERGY CHANGE        DEN1      VAR(S)    VAR(P)  DIIS     TIME
   1      1.09651057    -0.40874241   -58.01584310    -0.40874241    -0.00153344  0.60D-05  0.13D-02  1  1     0.03
   2      1.10017193    -0.41044029   -58.01754099    -0.00169789    -0.00004316  0.54D-07  0.45D-04  2  2     0.04
   3      1.10098610    -0.41069306   -58.01779375    -0.00025276    -0.00000066  0.16D-08  0.51D-06  3  3     0.04
   4      1.10102210    -0.41070223   -58.01780293    -0.00000918    -0.00000002  0.23D-10  0.21D-07  4  4     0.05
   5      1.10101369    -0.41070014   -58.01780084     0.00000209    -0.00000000  0.55D-12  0.24D-09  5  5     0.06
   6      1.10101293    -0.41070002   -58.01780071     0.00000012    -0.00000000  0.18D-13  0.35D-11  6  6     0.06

 Norm of t1 vector:      0.03892735      S-energy:    -0.00641875      T1 diagnostic:  0.00467198
 Norm of t2 vector:      0.31543239      P-energy:    -0.40428127
                                         Alpha-Beta:  -0.30020460
                                         Alpha-Alpha: -0.06300510
                                         Beta-Beta:   -0.04107157

 Spin contamination <S**2-Sz**2-Sz>     0.00000000
  Reference energy                    -57.607100694796
  RHF-RMP2 correlation energy          -0.410700018628
 !RHF-RMP2 energy                     -58.017800713425
 (NB above energy spin projected)

 Starting RCCSD calculation

 ITER.      SQ.NORM     CORR.ENERGY   TOTAL ENERGY   ENERGY CHANGE        DEN1      VAR(S)    VAR(P)  DIIS     TIME
   1      1.10683935    -0.42008355   -58.02718425    -0.42008355    -0.00799803  0.19D-02  0.34D-02  1  1     0.14
   2      1.12369479    -0.42832615   -58.03542685    -0.00824260    -0.00094091  0.36D-03  0.65D-03  2  2     0.23
   3      1.13419183    -0.43054038   -58.03764107    -0.00221422    -0.00017159  0.10D-03  0.11D-03  3  3     0.32
   4      1.14119321    -0.43168904   -58.03878973    -0.00114866    -0.00001581  0.73D-05  0.89D-05  4  4     0.41
   5      1.14314493    -0.43192142   -58.03902212    -0.00023239    -0.00000212  0.31D-06  0.14D-05  5  5     0.50
   6      1.14338552    -0.43193734   -58.03903804    -0.00001592    -0.00000063  0.34D-07  0.47D-06  6  6     0.59
   7      1.14344566    -0.43194191   -58.03904260    -0.00000456    -0.00000016  0.13D-07  0.11D-06  6  2     0.68
   8      1.14340363    -0.43193677   -58.03903746     0.00000514    -0.00000003  0.46D-08  0.20D-07  6  1     0.77
   9      1.14341199    -0.43193974   -58.03904043    -0.00000297    -0.00000000  0.12D-08  0.30D-08  6  3     0.85
  10      1.14340920    -0.43193886   -58.03903955     0.00000088    -0.00000000  0.17D-09  0.40D-09  6  4     0.94

 Norm of t1 vector:      0.10453488      S-energy:    -0.00568697      T1 diagnostic:  0.02001600
                                                                       D1 diagnostic:  0.06651625
 Norm of t2 vector:      0.36398030      P-energy:    -0.42625189
                                         Alpha-Beta:  -0.32626528
                                         Alpha-Alpha: -0.06057531
                                         Beta-Beta:   -0.03941131

 Singles amplitudes (print threshold =  0.500E-01):

         I         SYM. A    A   T(IA) [Alpha-Alpha]

         2         1         3     -0.06460166
         2         1         6     -0.05021247

 Doubles amplitudes (print threshold =  0.500E-01):

         I         J         SYM. A    SYM. B    A         B      T(IJ, AB) [Alpha-Beta]

         2         2         2         2         1         1     -0.07842327
         2         2         2         2         1         2     -0.05840850
         2         2         2         2         2         1     -0.05840850
         2         2         3         3         1         1     -0.07842327
         2         2         3         3         1         2     -0.05840850
         2         2         3         3         2         1     -0.05840850
         2         2         5         5         1         1     -0.07842328
         2         2         5         5         1         2     -0.05840851
         2         2         5         5         2         1     -0.05840851

 Spin contamination <S**2-Sz**2-Sz>     0.00000000

 Memory could be reduced to 1.98 Mwords without degradation in triples
 

  Correlated core orbitals:             1.1       1.2       1.3       1.5
  Orbital energies:                    -2.9998   -1.8959   -1.8959   -1.8959
 
  RCCSD core-core energy               -0.250700342420
  RCCSD core-valence energy            -0.132383396471
  RCCSD valence correlation energy     -0.048855118059
 

 RESULTS
 =======

  Reference energy                    -57.607100694796
  RCCSD singles energy                 -0.005686968694
  RCCSD pair energy                    -0.426251888256
  RCCSD correlation energy             -0.431938856950
  Triples (T) contribution             -0.015135172385
  Total correlation energy             -0.447074029334
 
  RHF-RCCSD energy                    -58.039039551746
  RHF-RCCSD[T] energy                 -58.054271709762
  RHF-RCCSD-T energy                  -58.054146613506
 !RHF-RCCSD(T) energy                 -58.054174724131

 Program statistics:

 Available memory in ccsd:               511999438
 Min. memory needed in ccsd:                198101
 Max. memory used in ccsd:                  263108
 Max. memory used in cckext:                239067 (10 integral passes)
 Max. memory used in cckint:                317416 ( 1 integral passes)



 **********************************************************************************************************************************
 DATASETS  * FILE   NREC   LENGTH (MB)   RECORD NAMES
              1      21       27.12       500      610      700      900      950      970     1000      129      960     1100   
                                          VAR    BASINP    GEOM    SYMINP    ZMAT    AOBASIS   BASIS     P2S    ABASIS      S 
                                         1400     1410     1420     1200     1210     1080     1600     1650     1300     1700   
                                         EKIN       V       ECP      H0       H01     AOSYM     SMH    MOLCAS    ERIS     OPER   
                                         1380   
                                         JKOP   

              2       6        7.96       700     1000      520     4202     5202     2101   
                                         GEOM     BASIS   MCVARS     RHF     MCSCF     RHF  

 PROGRAMS   *        TOTAL  RCCSD(T)       RHF     MULTI       POP       RHF       INT
 CPU TIMES  *         4.37      1.89      0.02      0.28      0.00      0.14      1.89
 REAL TIME  *        15.88 SEC
 DISK USED  *        63.01 MB      
 **********************************************************************************************************************************
 SETTING POSTHF(I)      =       -58.05417472  AU                              
                                                                                                                                                                                                                                                                

        SCF            POSTHF        EKIN           POT
    -57.60710069   -58.05417472   25.80176707   -10.94700783
                                                  

 RCCSD(T)/USERDEF energy=    -58.054174724131

        RCCSD(T)        RHF-SCF         MULTI           RHF-SCF 
    -58.05417472    -57.60710069    -57.54912977    -57.60962174
 **********************************************************************************************************************************
 Variable memory released
