
 Primary working directories    : /global/cscratch1/sd/aannabe
 Secondary working directories  : /global/cscratch1/sd/aannabe
 Wavefunction directory         : /global/homes/a/aannabe/wfu/
 Main file repository           : /global/cscratch1/sd/aannabe/

 SHA1      : 2873118e99aab1bc19f5b6fc1784693c06d15c95
 NAME      : 2015.1.8
 ARCHNAME  : linux/x86_64
 FC        : /opt/cray/pe/craype/2.5.5/bin/ftn
 BLASLIB   : -Wl,-_start-group /opt/intel/compilers_and_libraries_2016.3.210/linux/mkl/lib/intel64/libmkl_intel_ilp64.a /opt/intel/compilers_and_libraries_2016.3.210/linux/mkl/lib/intel64/libmkl_intel_thread.a /opt/intel/compilers_and_libraries_2016.3.210/linux/mkl/lib/intel64/libmkl_core.a -Wl,-_end-group
 id        : lbl

 Nodes     nprocs
 nid00472     1

 Using customized tuning parameters: mindgm=8; mindgv=16; mindgc=4; mindgr=1; noblas=0; minvec=7
 default implementation of scratch files=df  

 ***,Ti
 memory,512,m
 gthresh,twoint=1.e-12
 
 gprint,basis,orbitals
 gexpec,ekin,pot
 
 angstrom
 geometry={
 1                                                                               ! Number of atoms
 Ti 0.0 0.0 0.0
 }
 
 basis={
 Including file /global/homes/a/aannabe/docs/accurate/ccECP_Kh/pps/Ti.pp
                                              !include,/global/homes/a/aannabe/docs/accurate/ccECP_Kh/basis/aug-cc-pVnZ/Ti_5z.basis
 Including file /global/homes/a/aannabe/docs/accurate/ccECP_Kh/basis/cc-pVnZ/Ti_5z.basis
 }
 
 {rhf
  start,atden
  print,orbitals=2
  wf,12,1,2
  occ,4,1,1,0,1,0,0,0
  open,3.1,4.1
  sym,1,1,1,3,2
  orbital,4202.2
 }
 pop
 {multi
  start,4202.2
  occ,4,1,1,1,1,1,1,0
  closed,2,1,1,0,1,0,0
  wf,12,1,2;state,1
  wf,12,4,2;state,3
  wf,12,6,2;state,3
  wf,12,7,2;state,3
  natorb,ci,print
  orbital,5202.2
 }
 {rhf,nitord=1,maxit=0
  start,5202.2
  wf,12,1,2
  occ,4,1,1,0,1,0,0,0
  open,3.1,4.1
 }
 
 scf(i)=energy
 
 _CC_NORM_MAX=2.0
 {rccsd(t)
 maxit,100
 core
 }
 posthf(i)=energy
 
 table,scf,posthf,ekin,pot
 save,5.csv,new
 
 

 Variables initialized (889), CPU time= 0.01 sec
 Commands  initialized (702), CPU time= 0.00 sec, 572 directives.
 Default parameters read. Elapsed time= 0.22 sec

 Checking input...
 Passed
1


                                         ***  PROGRAM SYSTEM MOLPRO  ***
                                       Copyright, TTI GmbH Stuttgart, 2015
                                    Version 2015.1 linked Sep  7 2016 23:09:38


 **********************************************************************************************************************************
 LABEL *   Ti                                                                            
  64 bit serial version                                                                  DATE: 13-Nov-18          TIME: 22:00:12  
 **********************************************************************************************************************************

 SHA1:             2873118e99aab1bc19f5b6fc1784693c06d15c95
 **********************************************************************************************************************************

 THRESHOLDS:

 ZERO    =  1.00D-12  ONEINT  =  1.00D-12  TWOINT  =  1.00D-12  PREFAC  =  1.00D-14  LOCALI  =  1.00D-09  EORDER  =  1.00D-04
 ENERGY  =  0.00D+00  ETEST   =  0.00D+00  EDENS   =  0.00D+00  THRDEDEF=  1.00D-06  GRADIENT=  1.00D-02  STEP    =  1.00D-03
 ORBITAL =  1.00D-05  CIVEC   =  1.00D-05  COEFF   =  1.00D-04  PRINTCI =  5.00D-02  PUNCHCI =  9.90D+01  OPTGRAD =  3.00D-04
 OPTENERG=  1.00D-06  OPTSTEP =  3.00D-04  THRGRAD =  1.00D-10  COMPRESS=  1.00D-11  VARMIN  =  1.00D-07  VARMAX  =  1.00D-03
 THRDOUB =  0.00D+00  THRDIV  =  1.00D-05  THRRED  =  1.00D-07  THRPSP  =  1.00D+00  THRDC   =  1.00D-10  THRCS   =  1.00D-10
 THRNRM  =  1.00D-08  THREQ   =  0.00D+00  THRDE   =  1.00D+00  THRREF  =  1.00D-05  SPARFAC =  1.00D+00  THRDLP  =  1.00D-07
 THRDIA  =  1.00D-10  THRDLS  =  1.00D-07  THRGPS  =  0.00D+00  THRKEX  =  0.00D+00  THRDIS  =  2.00D-01  THRVAR  =  1.00D-10
 THRLOC  =  1.00D-06  THRGAP  =  1.00D-06  THRLOCT = -1.00D+00  THRGAPT = -1.00D+00  THRORB  =  1.00D-06  THRMLTP =  0.00D+00
 THRCPQCI=  1.00D-10  KEXTA   =  0.00D+00  THRCOARS=  0.00D+00  SYMTOL  =  1.00D-06  GRADTOL =  1.00D-06  THROVL  =  1.00D-08
 THRORTH =  1.00D-08  GRID    =  1.00D-06  GRIDMAX =  1.00D-03  DTMAX   =  0.00D+00  THROCCDE=  1.00D-01  THROCCDE=  1.00D-01



 ZUNIT=ANG
 

Geometry recognized as XYZ


 Variable memory set to  512000000 words,  buffer space   230000 words

 SETTING BASIS          =    USERDEF


 Recomputing integrals since basis changed


 Using spherical harmonics



 PROGRAM * SEWARD (Integral evaluation for generally contracted gaussian basis sets)     Author: Roland Lindh, 1990

 Geometry written to block  1 of record 700

 Orientation using atomic masses  
 Molecule type: Atom
 Symmetry elements: X,Y,Z
 Rotational constants:       0.0000000      0.0000000      0.0000000 GHz  (calculated with average atomic masses)

 Point group  D2h 



 ATOMIC COORDINATES

 NR  ATOM    CHARGE       X              Y              Z

   1  TI     12.00    0.000000000    0.000000000    0.000000000


          TI  CORE POTENTIAL

          d POTENTIAL

 POWERS             1              3              2              2
 EXPONENTIALS   18.41366       15.92292       13.65001       5.095552    
 COEFFICIENTS   12.00000       220.9639      -94.29026      9.7911425E-02

          s - d POTENTIAL

 POWERS             2              2
 EXPONENTIALS   12.70581       6.111786    
 COEFFICIENTS   173.9466       18.83768    

          p - d POTENTIAL

 POWERS             2              2
 EXPONENTIALS   12.64092       5.354374    
 COEFFICIENTS   111.4567       11.17703    


 BASIS DATA

   Nr Sym  Nuc  Type         Exponents   Contraction coefficients

    1.1 Ag    1  1s          68.910511     0.000616   -0.000156    0.000635   -0.001178    0.000115   -0.005022
                                           0.000000
    2.1 Ag                   33.720700    -0.007501    0.001966   -0.006468    0.011877    0.002833    0.045812
                                           0.000000
    3.1 Ag                   18.159676     0.012218   -0.003994    0.023444   -0.047240    0.006141   -0.223021
                                           0.000000
    4.1 Ag                   12.419305     0.144739   -0.036377    0.038921   -0.050922   -0.209682    0.098443
                                           0.000000
    5.1 Ag                    7.532195    -0.328621    0.088593   -0.141180    0.237746    0.518367    0.478430
                                           0.000000
    6.1 Ag                    3.504444    -0.317517    0.085630   -0.214765    0.403185    0.304164    1.061085
                                           0.000000
    7.1 Ag                    1.910727     0.357422   -0.105993    0.320151   -0.790961   -1.232863   -4.893196
                                           0.000000
                              0.888840     0.671406   -0.237421    0.451062   -1.102276   -2.090508    4.889552
                                           0.000000
                              0.447198     0.282226   -0.235359    0.855191    0.209446    7.092715    2.482096
                                           0.000000
                              0.281192     0.038673   -0.012960   -1.209224    2.527352   -4.543744   -7.421361
                                           0.000000
                              0.100258     0.004559    0.433582   -1.319481   -1.789041   -2.248270    7.324535
                                           0.000000
                              0.046525    -0.001565    0.577873    0.866517   -0.867842    4.473918   -6.282257
                                           0.000000
                              0.021840     0.000398    0.164360    0.618916    1.427395   -2.426296    2.413265
                                           1.000000
    8.1 Ag    1  1s           1.915355     1.000000
    9.1 Ag    1  1s           2.432281     1.000000
   10.1 Ag    1  3d0         77.434559     0.000022
                             27.708477     0.004218
                             12.914284     0.030087
                              6.062674     0.084821
                              2.863898     0.171110
                              1.386559     0.247451
                              0.677058     0.277310
                              0.329864     0.261077
                              0.159474     0.190336
                              0.076174     0.119385
                              0.028570     0.031297
   11.1 Ag    1  3d2+        77.434559     0.000022
                             27.708477     0.004218
                             12.914284     0.030087
                              6.062674     0.084821
                              2.863898     0.171110
                              1.386559     0.247451
                              0.677058     0.277310
                              0.329864     0.261077
                              0.159474     0.190336
                              0.076174     0.119385
                              0.028570     0.031297
   12.1 Ag    1  3d0         77.434559    -0.000025
                             27.708477    -0.004311
                             12.914284    -0.030913
                              6.062674    -0.088049
                              2.863898    -0.178330
                              1.386559    -0.234335
                              0.677058    -0.195775
                              0.329864     0.065872
                              0.159474     0.330536
                              0.076174     0.461229
                              0.028570     0.184273
   13.1 Ag    1  3d2+        77.434559    -0.000025
                             27.708477    -0.004311
                             12.914284    -0.030913
                              6.062674    -0.088049
                              2.863898    -0.178330
                              1.386559    -0.234335
                              0.677058    -0.195775
                              0.329864     0.065872
                              0.159474     0.330536
                              0.076174     0.461229
                              0.028570     0.184273
   14.1 Ag    1  3d0         77.434559     0.000010
                             27.708477     0.006187
                             12.914284     0.042630
                              6.062674     0.127524
                              2.863898     0.248289
                              1.386559     0.259761
                              0.677058    -0.070794
                              0.329864    -0.519396
                              0.159474    -0.373658
                              0.076174     0.455067
                              0.028570     0.489586
   15.1 Ag    1  3d2+        77.434559     0.000010
                             27.708477     0.006187
                             12.914284     0.042630
                              6.062674     0.127524
                              2.863898     0.248289
                              1.386559     0.259761
                              0.677058    -0.070794
                              0.329864    -0.519396
                              0.159474    -0.373658
                              0.076174     0.455067
                              0.028570     0.489586
   16.1 Ag    1  3d0         77.434559     0.000011
                             27.708477    -0.008026
                             12.914284    -0.053875
                              6.062674    -0.168795
                              2.863898    -0.312344
                              1.386559    -0.172031
                              0.677058     0.587633
                              0.329864     0.528592
                              0.159474    -0.859644
                              0.076174    -0.273831
                              0.028570     0.802754
   17.1 Ag    1  3d2+        77.434559     0.000011
                             27.708477    -0.008026
                             12.914284    -0.053875
                              6.062674    -0.168795
                              2.863898    -0.312344
                              1.386559    -0.172031
                              0.677058     0.587633
                              0.329864     0.528592
                              0.159474    -0.859644
                              0.076174    -0.273831
                              0.028570     0.802754
   18.1 Ag    1  3d0         77.434559    -0.000013
                             27.708477    -0.011727
                             12.914284    -0.081662
                              6.062674    -0.263474
                              2.863898    -0.446089
                              1.386559     0.342885
                              0.677058     1.158097
                              0.329864    -1.398039
                              0.159474    -0.139320
                              0.076174     1.173954
                              0.028570    -0.802320
   19.1 Ag    1  3d2+        77.434559    -0.000013
                             27.708477    -0.011727
                             12.914284    -0.081662
                              6.062674    -0.263474
                              2.863898    -0.446089
                              1.386559     0.342885
                              0.677058     1.158097
                              0.329864    -1.398039
                              0.159474    -0.139320
                              0.076174     1.173954
                              0.028570    -0.802320
   20.1 Ag    1  3d0         77.434559     0.000000
                             27.708477     0.000000
                             12.914284     0.000000
                              6.062674     0.000000
                              2.863898     0.000000
                              1.386559     0.000000
                              0.677058     0.000000
                              0.329864     0.000000
                              0.159474     0.000000
                              0.076174     0.000000
                              0.028570     1.000000
   21.1 Ag    1  3d2+        77.434559     0.000000
                             27.708477     0.000000
                             12.914284     0.000000
                              6.062674     0.000000
                              2.863898     0.000000
                              1.386559     0.000000
                              0.677058     0.000000
                              0.329864     0.000000
                              0.159474     0.000000
                              0.076174     0.000000
                              0.028570     1.000000
   22.1 Ag    1  3d0          2.162081     1.000000
   23.1 Ag    1  3d2+         2.162081     1.000000
   24.1 Ag    1  3d0          2.864191     1.000000
   25.1 Ag    1  3d2+         2.864191     1.000000
   26.1 Ag    1  5g0          0.268404     1.000000
   27.1 Ag    1  5g4+         0.268404     1.000000
   28.1 Ag    1  5g2+         0.268404     1.000000
   29.1 Ag    1  5g0          0.841165     1.000000
   30.1 Ag    1  5g4+         0.841165     1.000000
   31.1 Ag    1  5g2+         0.841165     1.000000
   32.1 Ag    1  5g0          2.636172     1.000000
   33.1 Ag    1  5g4+         2.636172     1.000000
   34.1 Ag    1  5g2+         2.636172     1.000000
   35.1 Ag    1  5g0          3.647632     1.000000
   36.1 Ag    1  5g4+         3.647632     1.000000
   37.1 Ag    1  5g2+         3.647632     1.000000
   38.1 Ag    1  7i6+         0.927112     1.000000
   39.1 Ag    1  7i4+         0.927112     1.000000
   40.1 Ag    1  7i2+         0.927112     1.000000
   41.1 Ag    1  7i0          0.927112     1.000000
   42.1 Ag    1  7i6+         3.318603     1.000000
   43.1 Ag    1  7i4+         3.318603     1.000000
   44.1 Ag    1  7i2+         3.318603     1.000000
   45.1 Ag    1  7i0          3.318603     1.000000
    1.2 B3u   1  2px         84.914002     0.000093    0.000020    0.000019   -0.000257    0.000271   -0.003746
                                           0.000000
    2.2 B3u                  42.855051    -0.000836   -0.000049    0.000138    0.001725   -0.001902    0.020807
                                           0.000000
    3.2 B3u                  21.700131     0.008679   -0.000761   -0.004622   -0.012646    0.015412   -0.093202
                                           0.000000
    4.2 B3u                  12.214690    -0.011178   -0.000575    0.004465    0.029062   -0.037586    0.329190
                                           0.000000
    5.2 B3u                   8.319164    -0.077767    0.018284    0.065760    0.058979   -0.124536   -0.265087
                                           0.000000
    6.2 B3u                   4.091071    -0.006113   -0.005943   -0.018927    0.030806    0.040812    0.353068
                                           0.000000
    7.2 B3u                   2.286543     0.271828   -0.043212   -0.222524   -0.524373    1.343823   -2.778765
                                           0.000000
                              1.159810     0.459585   -0.112513   -0.523890   -0.720968   -0.269411    4.959827
                                           0.000000
                              0.591343     0.315900   -0.052073   -0.071277    1.023204   -3.729590   -3.874454
                                           0.000000
                              0.312862     0.071683   -0.092263    0.812712    1.973874    5.884983   -0.178397
                                           0.000000
                              0.184828     0.010541    0.243946    0.625498   -2.805092   -3.113853    2.644742
                                           0.000000
                              0.068590     0.000045    0.413101   -0.812189    0.607954   -0.256973   -2.416632
                                           0.000000
                              0.026791    -0.000837    0.543985   -0.185796    0.447653    0.710733    1.418973
                                           1.000000
    8.2 B3u   1  2px          1.303007     1.000000
    9.2 B3u   1  2px          4.835111     1.000000
   10.2 B3u   1  4f1+         0.141956     1.000000
   11.2 B3u   1  4f3+         0.141956     1.000000
   12.2 B3u   1  4f1+         0.422577     1.000000
   13.2 B3u   1  4f3+         0.422577     1.000000
   14.2 B3u   1  4f1+         1.257932     1.000000
   15.2 B3u   1  4f3+         1.257932     1.000000
   16.2 B3u   1  4f1+         3.744629     1.000000
   17.2 B3u   1  4f3+         3.744629     1.000000
   18.2 B3u   1  4f1+         2.480939     1.000000
   19.2 B3u   1  4f3+         2.480939     1.000000
   20.2 B3u   1  6h1+         0.518283     1.000000
   21.2 B3u   1  6h3+         0.518283     1.000000
   22.2 B3u   1  6h5+         0.518283     1.000000
   23.2 B3u   1  6h1+         1.872404     1.000000
   24.2 B3u   1  6h3+         1.872404     1.000000
   25.2 B3u   1  6h5+         1.872404     1.000000
   26.2 B3u   1  6h1+         3.922726     1.000000
   27.2 B3u   1  6h3+         3.922726     1.000000
   28.2 B3u   1  6h5+         3.922726     1.000000
    1.3 B2u   1  2py         84.914002     0.000093    0.000020    0.000019   -0.000257    0.000271   -0.003746
                                           0.000000
    2.3 B2u                  42.855051    -0.000836   -0.000049    0.000138    0.001725   -0.001902    0.020807
                                           0.000000
    3.3 B2u                  21.700131     0.008679   -0.000761   -0.004622   -0.012646    0.015412   -0.093202
                                           0.000000
    4.3 B2u                  12.214690    -0.011178   -0.000575    0.004465    0.029062   -0.037586    0.329190
                                           0.000000
    5.3 B2u                   8.319164    -0.077767    0.018284    0.065760    0.058979   -0.124536   -0.265087
                                           0.000000
    6.3 B2u                   4.091071    -0.006113   -0.005943   -0.018927    0.030806    0.040812    0.353068
                                           0.000000
    7.3 B2u                   2.286543     0.271828   -0.043212   -0.222524   -0.524373    1.343823   -2.778765
                                           0.000000
                              1.159810     0.459585   -0.112513   -0.523890   -0.720968   -0.269411    4.959827
                                           0.000000
                              0.591343     0.315900   -0.052073   -0.071277    1.023204   -3.729590   -3.874454
                                           0.000000
                              0.312862     0.071683   -0.092263    0.812712    1.973874    5.884983   -0.178397
                                           0.000000
                              0.184828     0.010541    0.243946    0.625498   -2.805092   -3.113853    2.644742
                                           0.000000
                              0.068590     0.000045    0.413101   -0.812189    0.607954   -0.256973   -2.416632
                                           0.000000
                              0.026791    -0.000837    0.543985   -0.185796    0.447653    0.710733    1.418973
                                           1.000000
    8.3 B2u   1  2py          1.303007     1.000000
    9.3 B2u   1  2py          4.835111     1.000000
   10.3 B2u   1  4f1-         0.141956     1.000000
   11.3 B2u   1  4f3-         0.141956     1.000000
   12.3 B2u   1  4f1-         0.422577     1.000000
   13.3 B2u   1  4f3-         0.422577     1.000000
   14.3 B2u   1  4f1-         1.257932     1.000000
   15.3 B2u   1  4f3-         1.257932     1.000000
   16.3 B2u   1  4f1-         3.744629     1.000000
   17.3 B2u   1  4f3-         3.744629     1.000000
   18.3 B2u   1  4f1-         2.480939     1.000000
   19.3 B2u   1  4f3-         2.480939     1.000000
   20.3 B2u   1  6h1-         0.518283     1.000000
   21.3 B2u   1  6h3-         0.518283     1.000000
   22.3 B2u   1  6h5-         0.518283     1.000000
   23.3 B2u   1  6h1-         1.872404     1.000000
   24.3 B2u   1  6h3-         1.872404     1.000000
   25.3 B2u   1  6h5-         1.872404     1.000000
   26.3 B2u   1  6h1-         3.922726     1.000000
   27.3 B2u   1  6h3-         3.922726     1.000000
   28.3 B2u   1  6h5-         3.922726     1.000000
    1.4 B1g   1  3d2-        77.434559     0.000022   -0.000025    0.000010    0.000011   -0.000013    0.000000
    2.4 B1g                  27.708477     0.004218   -0.004311    0.006187   -0.008026   -0.011727    0.000000
    3.4 B1g                  12.914284     0.030087   -0.030913    0.042630   -0.053875   -0.081662    0.000000
    4.4 B1g                   6.062674     0.084821   -0.088049    0.127524   -0.168795   -0.263474    0.000000
    5.4 B1g                   2.863898     0.171110   -0.178330    0.248289   -0.312344   -0.446089    0.000000
    6.4 B1g                   1.386559     0.247451   -0.234335    0.259761   -0.172031    0.342885    0.000000
                              0.677058     0.277310   -0.195775   -0.070794    0.587633    1.158097    0.000000
                              0.329864     0.261077    0.065872   -0.519396    0.528592   -1.398039    0.000000
                              0.159474     0.190336    0.330536   -0.373658   -0.859644   -0.139320    0.000000
                              0.076174     0.119385    0.461229    0.455067   -0.273831    1.173954    0.000000
                              0.028570     0.031297    0.184273    0.489586    0.802754   -0.802320    1.000000
    7.4 B1g   1  3d2-         2.162081     1.000000
    8.4 B1g   1  3d2-         2.864191     1.000000
    9.4 B1g   1  5g2-         0.268404     1.000000
   10.4 B1g   1  5g4-         0.268404     1.000000
   11.4 B1g   1  5g2-         0.841165     1.000000
   12.4 B1g   1  5g4-         0.841165     1.000000
   13.4 B1g   1  5g2-         2.636172     1.000000
   14.4 B1g   1  5g4-         2.636172     1.000000
   15.4 B1g   1  5g2-         3.647632     1.000000
   16.4 B1g   1  5g4-         3.647632     1.000000
   17.4 B1g   1  7i2-         0.927112     1.000000
   18.4 B1g   1  7i6-         0.927112     1.000000
   19.4 B1g   1  7i4-         0.927112     1.000000
   20.4 B1g   1  7i2-         3.318603     1.000000
   21.4 B1g   1  7i6-         3.318603     1.000000
   22.4 B1g   1  7i4-         3.318603     1.000000
    1.5 B1u   1  2pz         84.914002     0.000093    0.000020    0.000019   -0.000257    0.000271   -0.003746
                                           0.000000
    2.5 B1u                  42.855051    -0.000836   -0.000049    0.000138    0.001725   -0.001902    0.020807
                                           0.000000
    3.5 B1u                  21.700131     0.008679   -0.000761   -0.004622   -0.012646    0.015412   -0.093202
                                           0.000000
    4.5 B1u                  12.214690    -0.011178   -0.000575    0.004465    0.029062   -0.037586    0.329190
                                           0.000000
    5.5 B1u                   8.319164    -0.077767    0.018284    0.065760    0.058979   -0.124536   -0.265087
                                           0.000000
    6.5 B1u                   4.091071    -0.006113   -0.005943   -0.018927    0.030806    0.040812    0.353068
                                           0.000000
    7.5 B1u                   2.286543     0.271828   -0.043212   -0.222524   -0.524373    1.343823   -2.778765
                                           0.000000
                              1.159810     0.459585   -0.112513   -0.523890   -0.720968   -0.269411    4.959827
                                           0.000000
                              0.591343     0.315900   -0.052073   -0.071277    1.023204   -3.729590   -3.874454
                                           0.000000
                              0.312862     0.071683   -0.092263    0.812712    1.973874    5.884983   -0.178397
                                           0.000000
                              0.184828     0.010541    0.243946    0.625498   -2.805092   -3.113853    2.644742
                                           0.000000
                              0.068590     0.000045    0.413101   -0.812189    0.607954   -0.256973   -2.416632
                                           0.000000
                              0.026791    -0.000837    0.543985   -0.185796    0.447653    0.710733    1.418973
                                           1.000000
    8.5 B1u   1  2pz          1.303007     1.000000
    9.5 B1u   1  2pz          4.835111     1.000000
   10.5 B1u   1  4f0          0.141956     1.000000
   11.5 B1u   1  4f2+         0.141956     1.000000
   12.5 B1u   1  4f0          0.422577     1.000000
   13.5 B1u   1  4f2+         0.422577     1.000000
   14.5 B1u   1  4f0          1.257932     1.000000
   15.5 B1u   1  4f2+         1.257932     1.000000
   16.5 B1u   1  4f0          3.744629     1.000000
   17.5 B1u   1  4f2+         3.744629     1.000000
   18.5 B1u   1  4f0          2.480939     1.000000
   19.5 B1u   1  4f2+         2.480939     1.000000
   20.5 B1u   1  6h2+         0.518283     1.000000
   21.5 B1u   1  6h4+         0.518283     1.000000
   22.5 B1u   1  6h0          0.518283     1.000000
   23.5 B1u   1  6h2+         1.872404     1.000000
   24.5 B1u   1  6h4+         1.872404     1.000000
   25.5 B1u   1  6h0          1.872404     1.000000
   26.5 B1u   1  6h2+         3.922726     1.000000
   27.5 B1u   1  6h4+         3.922726     1.000000
   28.5 B1u   1  6h0          3.922726     1.000000
    1.6 B2g   1  3d1+        77.434559     0.000022   -0.000025    0.000010    0.000011   -0.000013    0.000000
    2.6 B2g                  27.708477     0.004218   -0.004311    0.006187   -0.008026   -0.011727    0.000000
    3.6 B2g                  12.914284     0.030087   -0.030913    0.042630   -0.053875   -0.081662    0.000000
    4.6 B2g                   6.062674     0.084821   -0.088049    0.127524   -0.168795   -0.263474    0.000000
    5.6 B2g                   2.863898     0.171110   -0.178330    0.248289   -0.312344   -0.446089    0.000000
    6.6 B2g                   1.386559     0.247451   -0.234335    0.259761   -0.172031    0.342885    0.000000
                              0.677058     0.277310   -0.195775   -0.070794    0.587633    1.158097    0.000000
                              0.329864     0.261077    0.065872   -0.519396    0.528592   -1.398039    0.000000
                              0.159474     0.190336    0.330536   -0.373658   -0.859644   -0.139320    0.000000
                              0.076174     0.119385    0.461229    0.455067   -0.273831    1.173954    0.000000
                              0.028570     0.031297    0.184273    0.489586    0.802754   -0.802320    1.000000
    7.6 B2g   1  3d1+         2.162081     1.000000
    8.6 B2g   1  3d1+         2.864191     1.000000
    9.6 B2g   1  5g1+         0.268404     1.000000
   10.6 B2g   1  5g3+         0.268404     1.000000
   11.6 B2g   1  5g1+         0.841165     1.000000
   12.6 B2g   1  5g3+         0.841165     1.000000
   13.6 B2g   1  5g1+         2.636172     1.000000
   14.6 B2g   1  5g3+         2.636172     1.000000
   15.6 B2g   1  5g1+         3.647632     1.000000
   16.6 B2g   1  5g3+         3.647632     1.000000
   17.6 B2g   1  7i5+         0.927112     1.000000
   18.6 B2g   1  7i3+         0.927112     1.000000
   19.6 B2g   1  7i1+         0.927112     1.000000
   20.6 B2g   1  7i5+         3.318603     1.000000
   21.6 B2g   1  7i3+         3.318603     1.000000
   22.6 B2g   1  7i1+         3.318603     1.000000
    1.7 B3g   1  3d1-        77.434559     0.000022   -0.000025    0.000010    0.000011   -0.000013    0.000000
    2.7 B3g                  27.708477     0.004218   -0.004311    0.006187   -0.008026   -0.011727    0.000000
    3.7 B3g                  12.914284     0.030087   -0.030913    0.042630   -0.053875   -0.081662    0.000000
    4.7 B3g                   6.062674     0.084821   -0.088049    0.127524   -0.168795   -0.263474    0.000000
    5.7 B3g                   2.863898     0.171110   -0.178330    0.248289   -0.312344   -0.446089    0.000000
    6.7 B3g                   1.386559     0.247451   -0.234335    0.259761   -0.172031    0.342885    0.000000
                              0.677058     0.277310   -0.195775   -0.070794    0.587633    1.158097    0.000000
                              0.329864     0.261077    0.065872   -0.519396    0.528592   -1.398039    0.000000
                              0.159474     0.190336    0.330536   -0.373658   -0.859644   -0.139320    0.000000
                              0.076174     0.119385    0.461229    0.455067   -0.273831    1.173954    0.000000
                              0.028570     0.031297    0.184273    0.489586    0.802754   -0.802320    1.000000
    7.7 B3g   1  3d1-         2.162081     1.000000
    8.7 B3g   1  3d1-         2.864191     1.000000
    9.7 B3g   1  5g1-         0.268404     1.000000
   10.7 B3g   1  5g3-         0.268404     1.000000
   11.7 B3g   1  5g1-         0.841165     1.000000
   12.7 B3g   1  5g3-         0.841165     1.000000
   13.7 B3g   1  5g1-         2.636172     1.000000
   14.7 B3g   1  5g3-         2.636172     1.000000
   15.7 B3g   1  5g1-         3.647632     1.000000
   16.7 B3g   1  5g3-         3.647632     1.000000
   17.7 B3g   1  7i5-         0.927112     1.000000
   18.7 B3g   1  7i3-         0.927112     1.000000
   19.7 B3g   1  7i1-         0.927112     1.000000
   20.7 B3g   1  7i5-         3.318603     1.000000
   21.7 B3g   1  7i3-         3.318603     1.000000
   22.7 B3g   1  7i1-         3.318603     1.000000
    1.8 Au    1  4f2-         0.141956     1.000000
    2.8 Au    1  4f2-         0.422577     1.000000
    3.8 Au    1  4f2-         1.257932     1.000000
    4.8 Au    1  4f2-         3.744629     1.000000
    5.8 Au    1  4f2-         2.480939     1.000000
    6.8 Au    1  6h4-         0.518283     1.000000
    7.8 Au    1  6h2-         0.518283     1.000000
    8.8 Au    1  6h4-         1.872404     1.000000
    9.8 Au    1  6h2-         1.872404     1.000000
   10.8 Au    1  6h4-         3.922726     1.000000
   11.8 Au    1  6h2-         3.922726     1.000000

 NUCLEAR CHARGE:                   12
 NUMBER OF PRIMITIVE AOS:         367
 NUMBER OF SYMMETRY AOS:          255
 NUMBER OF CONTRACTIONS:          206   (  45Ag  +  28B3u +  28B2u +  22B1g +  28B1u +  22B2g +  22B3g +  11Au  )
 NUMBER OF CORE ORBITALS:           4   (   1Ag  +   1B3u +   1B2u +   0B1g +   1B1u +   0B2g +   0B3g +   0Au  )
 NUMBER OF VALENCE ORBITALS:        6   (   3Ag  +   0B3u +   0B2u +   1B1g +   0B1u +   1B2g +   1B3g +   0Au  )


 NUCLEAR REPULSION ENERGY    0.00000000

 EXTRA SYMMETRY OF AOS IN SYMMETRY 1:   1 1 1 1 1 1 1 1 1 2   3 2 3 2 3 2 3 2 3 2   3 2 3 2 3 4 5 6 4 5   6 4 5 6 4 5 6 7 8 9
                                       10 7 8 910
 EXTRA SYMMETRY OF AOS IN SYMMETRY 2:   1 1 1 1 1 1 1 1 1 2   3 2 3 2 3 2 3 2 3 4   5 6 4 5 6 4 5 6
 EXTRA SYMMETRY OF AOS IN SYMMETRY 3:   1 1 1 1 1 1 1 1 1 2   3 2 3 2 3 2 3 2 3 4   5 6 4 5 6 4 5 6
 EXTRA SYMMETRY OF AOS IN SYMMETRY 4:   1 1 1 1 1 1 1 1 2 3   2 3 2 3 2 3 4 5 6 4   5 6
 EXTRA SYMMETRY OF AOS IN SYMMETRY 5:   1 1 1 1 1 1 1 1 1 2   3 2 3 2 3 2 3 2 3 4   5 6 4 5 6 4 5 6
 EXTRA SYMMETRY OF AOS IN SYMMETRY 6:   1 1 1 1 1 1 1 1 2 3   2 3 2 3 2 3 4 5 6 4   5 6
 EXTRA SYMMETRY OF AOS IN SYMMETRY 7:   1 1 1 1 1 1 1 1 2 3   2 3 2 3 2 3 4 5 6 4   5 6
 EXTRA SYMMETRY OF AOS IN SYMMETRY 8:   1 1 1 1 1 2 3 2 3 2   3

 Eigenvalues of metric

         1 0.208E-04 0.107E-03 0.181E-02 0.181E-02 0.979E-02 0.979E-02 0.297E-01 0.297E-01
         2 0.155E-03 0.273E-02 0.237E-01 0.237E-01 0.165E+00 0.238E+00 0.238E+00 0.312E+00
         3 0.155E-03 0.273E-02 0.237E-01 0.237E-01 0.165E+00 0.238E+00 0.238E+00 0.312E+00
         4 0.181E-02 0.979E-02 0.297E-01 0.497E-01 0.497E-01 0.515E+00 0.515E+00 0.761E+00
         5 0.155E-03 0.273E-02 0.237E-01 0.237E-01 0.165E+00 0.238E+00 0.238E+00 0.312E+00
         6 0.181E-02 0.979E-02 0.297E-01 0.497E-01 0.497E-01 0.515E+00 0.515E+00 0.761E+00
         7 0.181E-02 0.979E-02 0.297E-01 0.497E-01 0.497E-01 0.515E+00 0.515E+00 0.761E+00
         8 0.237E-01 0.238E+00 0.312E+00 0.312E+00 0.611E+00 0.959E+00 0.959E+00 0.147E+01


 Contracted 2-electron integrals neglected if value below      1.0D-12
 AO integral compression algorithm  1   Integral accuracy      1.0D-12

     162.005 MB (compressed) written to integral file ( 45.5%)


 NUMBER OF SORTED TWO-ELECTRON INTEGRALS:   29098917.     BUFFER LENGTH:  32768
 NUMBER OF SEGMENTS:   2  SEGMENT LENGTH:   15999969      RECORD LENGTH: 524288

 Memory used in sort:      16.56 MW

 SORT1 READ    44478058. AND WROTE    18923596. INTEGRALS IN     55 RECORDS. CPU TIME:     1.51 SEC, REAL TIME:     2.07 SEC
 SORT2 READ    18923596. AND WROTE    29098917. INTEGRALS IN    618 RECORDS. CPU TIME:     0.86 SEC, REAL TIME:     1.56 SEC

 FILE SIZES:   FILE 1:   182.1 MBYTE,  FILE 4:   230.7 MBYTE,   TOTAL:    412.8 MBYTE

 OPERATOR DM      FOR CENTER  0  COORDINATES:    0.000000    0.000000    0.000000
 OPERATOR EKIN    FOR CENTER  0  COORDINATES:    0.000000    0.000000    0.000000
 OPERATOR POT     FOR CENTER  0  COORDINATES:    0.000000    0.000000    0.000000


 **********************************************************************************************************************************
 DATASETS  * FILE   NREC   LENGTH (MB)   RECORD NAMES
              1      20      124.04       500      610      700      900      950      970     1000      129      960     1100   
                                          VAR    BASINP    GEOM    SYMINP    ZMAT    AOBASIS   BASIS     P2S    ABASIS      S 
                                         1400     1410     1420     1200     1210     1080     1600     1650     1300     1700   
                                         EKIN       V       ECP      H0       H01     AOSYM     SMH    MOLCAS    ERIS     OPER   

 PROGRAMS   *        TOTAL       INT
 CPU TIMES  *        12.90     12.78
 REAL TIME  *        16.68 SEC
 DISK USED  *       413.16 MB      
 **********************************************************************************************************************************


 PROGRAM * RHF-SCF (OPEN SHELL)       Authors: W. Meyer, H.-J. Werner


 NUMBER OF ELECTRONS:       7+    5-    SPACE SYMMETRY=1    SPIN SYMMETRY: Triplet 
 CONVERGENCE THRESHOLDS:    1.00E-05 (Density)    1.00E-07 (Energy)
 MAX. NUMBER OF ITERATIONS:       60
 INTERPOLATION TYPE:            DIIS
 INTERPOLATION STEPS:              2 (START)      1 (STEP)
 LEVEL SHIFTS:                 -0.60 (CLOSED) -0.30 (OPEN) 


 Singly occupied orbitals:      3.1       4.1
 
 Extra symmetries of mos in symmetry 1:   1   1   3   2

   Atom=TI basis=ECP10MDF_GUESS    lmin=0  lmax=2

 Orbital guess generated from atomic densities. Full valence occupancy:    4   1   1   1   1   1   1   0


 Molecular orbital dump at record        4202.2

 ITERATION    DDIFF          GRAD             ENERGY        2-EL.EN.            DIPOLE MOMENTS         DIIS   ORB.
    1      0.000D+00      0.000D+00       -57.24364876     69.939856    0.00000    0.00000    0.00000    0    start
    2      0.000D+00      0.217D-01       -57.54271699     78.752869    0.00000    0.00000    0.00000    1    diag,B
    3      0.148D-01      0.124D-01       -57.57777897     78.821357    0.00000    0.00000    0.00000    2    diag,B
    4      0.298D-02      0.595D-02       -57.60430779     79.157324    0.00000    0.00000    0.00000    3    diag,B
    5      0.399D-02      0.167D-02       -57.60910775     79.273434    0.00000    0.00000    0.00000    4    diag,B
    6      0.160D-02      0.560D-03       -57.60960057     79.257817    0.00000    0.00000    0.00000    5    diag,B
    7      0.389D-02      0.302D-03       -57.60971479     79.184374    0.00000    0.00000    0.00000    6    fixocc
    8      0.311D-02      0.105D-03       -57.60973571     79.154840    0.00000    0.00000    0.00000    7    diag,B
    9      0.563D-03      0.526D-04       -57.60974206     79.142278    0.00000    0.00000    0.00000    8    diag,B
   10      0.187D-02      0.260D-04       -57.60974269     79.143832    0.00000    0.00000    0.00000    9    orth
   11      0.936D-03      0.844D-05       -57.60974273     79.142803    0.00000    0.00000    0.00000    9    diag,B
   12      0.189D-03      0.102D-05       -57.60974274     79.142927    0.00000    0.00000    0.00000    9    diag,B
   13      0.328D-04      0.374D-06       -57.60974274     79.142887    0.00000    0.00000    0.00000    9    diag,B
   14      0.259D-05      0.298D-07       -57.60974274     79.142889    0.00000    0.00000    0.00000    0    orth

 Final alpha occupancy:   4   1   1   0   1   0   0   0
 Final beta  occupancy:   2   1   1   0   1   0   0   0

 !RHF STATE 1.1 Energy                -57.609742735800
 Nuclear energy                         0.00000000
 One-electron energy                  -97.18118705
 Two-electron energy                   39.57144431
 Virial quotient                       -2.22716638
 !RHF STATE 1.1 Dipole moment           0.00000000     0.00000000     0.00000000
 Dipole moment /Debye                   0.00000000     0.00000000     0.00000000
 

 !RHF expec          <1.1|EKIN|1.1>    25.866833890408
 
 !RHF expec           <1.1|POT|1.1>   -10.954106211714

 ELECTRON ORBITALS
 =================


   Orb  Occ    Energy  Couls-En    Coefficients

                                   1 1s      1 1s      1 1s      1 1s      1 1s      1 1s      1 1s      1 1s      1 1s      1 3d0  
                                   1 3d2+    1 3d0     1 3d2+    1 3d0     1 3d2+    1 3d0     1 3d2+    1 3d0     1 3d2+    1 3d0  
                                   1 3d2+    1 3d0     1 3d2+    1 3d0     1 3d2+    1 5g0     1 5g4+    1 5g2+    1 5g0     1 5g4+ 
                                   1 5g2+    1 5g0     1 5g4+    1 5g2+    1 5g0     1 5g4+    1 5g2+    1 7i6+    1 7i4+    1 7i2+ 
                                   1 7i0     1 7i6+    1 7i4+    1 7i2+    1 7i0  

   1.1   2    -2.9280  -13.2772  1.000183  0.000461 -0.000155  0.000277  0.000069  0.000032 -0.000285 -0.000649  0.000556 -0.000000
                                -0.000000 -0.000000  0.000000 -0.000000 -0.000000 -0.000000  0.000000 -0.000000 -0.000000  0.000000
                                -0.000000  0.000000  0.000000 -0.000000  0.000000  0.000375  0.000317 -0.000000  0.001166  0.000985
                                 0.000000  0.000092  0.000078 -0.000000  0.000285  0.000241  0.000000 -0.000000 -0.000006  0.000000
                                 0.000002  0.000000 -0.000002 -0.000000  0.000001

   2.1   2    -0.2217   -3.7506 -0.000306  0.999765  0.002187  0.000052 -0.000058  0.000016  0.000285  0.000025 -0.000030 -0.000000
                                -0.000000  0.000000  0.000000  0.000000  0.000000  0.000000  0.000000 -0.000000 -0.000000 -0.000000
                                -0.000000  0.000000  0.000000 -0.000000 -0.000000 -0.000459 -0.000388  0.000000  0.000165  0.000139
                                 0.000000  0.000269  0.000227  0.000000 -0.000111 -0.000094 -0.000000  0.000000 -0.000004  0.000000
                                 0.000001  0.000000  0.000000 -0.000000 -0.000000

   3.1   +    -0.4405   -7.5132 -0.000000 -0.000000 -0.000000 -0.000000  0.000000 -0.000000  0.000000  0.000000 -0.000000  0.019656
                                 0.988936 -0.003194 -0.160721 -0.000262 -0.013164  0.000058  0.002917  0.000003  0.000169  0.000089
                                 0.004491  0.000001  0.000060  0.000001  0.000033  0.000037 -0.000044 -0.002875  0.000055 -0.000065
                                -0.004259  0.000019 -0.000022 -0.001478  0.000003 -0.000004 -0.000267 -0.000018 -0.000000 -0.000012
                                -0.000000 -0.000017 -0.000000 -0.000012 -0.000000

   4.1   +    -0.4405   -7.5132 -0.000000 -0.000000 -0.000000 -0.000000  0.000000 -0.000000  0.000000  0.000000 -0.000000  0.988936
                                -0.019656 -0.160721  0.003194 -0.013164  0.000262  0.002917 -0.000058  0.000169 -0.000003  0.004491
                                -0.000089  0.000060 -0.000001  0.000033 -0.000001  0.001856 -0.002196  0.000057  0.002749 -0.003253
                                 0.000085  0.000954 -0.001129  0.000029  0.000172 -0.000204  0.000005  0.000000 -0.000008  0.000000
                                -0.000021  0.000000 -0.000007  0.000000 -0.000019

   5.1   0     0.0591   -1.5509 -1.307046 -6.333746 -2.120673 -1.030110  0.198860 -0.044486  7.272297 -0.512838  0.207408 -0.000000
                                 0.000000 -0.000000  0.000000 -0.000000  0.000000  0.000000  0.000000 -0.000000  0.000000  0.000000
                                -0.000000  0.000000 -0.000000 -0.000000  0.000000 -0.000821 -0.000694 -0.000000 -0.000457 -0.000386
                                 0.000000 -0.000050 -0.000042 -0.000000  0.000091  0.000077  0.000000  0.000000  0.000005 -0.000000
                                -0.000002 -0.000000 -0.000000  0.000000  0.000000

   6.1   0     0.0852   -1.3941 -0.000000 -0.000000 -0.000000 -0.000000  0.000000 -0.000000  0.000000 -0.000000  0.000000 -0.311131
                                -0.000035 -0.663650 -0.000075 -0.608473 -0.000068 -0.338045 -0.000038  0.083945  0.000009  1.973320
                                 0.000222 -0.056246 -0.000006  0.034397  0.000004 -0.000082  0.000097  0.000000 -0.000139  0.000165
                                 0.000000 -0.000078  0.000093  0.000000 -0.000009  0.000010  0.000000  0.000000  0.000001  0.000000
                                 0.000001  0.000000  0.000002  0.000000  0.000004

                                   1 2px     1 2px     1 2px     1 2px     1 2px     1 2px     1 2px     1 2px     1 2px     1 4f1+ 
                                   1 4f3+    1 4f1+    1 4f3+    1 4f1+    1 4f3+    1 4f1+    1 4f3+    1 4f1+    1 4f3+    1 6h1+ 
                                   1 6h3+    1 6h5+    1 6h1+    1 6h3+    1 6h5+    1 6h1+    1 6h3+    1 6h5+ 

   1.2   2    -1.8096  -11.0229  1.002669  0.050038  0.031616  0.010028 -0.001867 -0.000286 -0.023348 -0.000599  0.000123 -0.000380
                                 0.000491 -0.003052  0.003940 -0.003413  0.004406 -0.001442  0.001861  0.000387 -0.000500  0.000062
                                -0.000029  0.000073 -0.000239  0.000028 -0.000244 -0.000083  0.000012 -0.000086

   2.2   0     0.0239   -2.1800 -0.114880  0.084417  0.100702 -0.071116 -0.029608 -0.017718  1.003425  0.025504 -0.005050 -0.002224
                                 0.002871 -0.001661  0.002144 -0.000091  0.000117  0.000127 -0.000163  0.000056 -0.000072  0.000028
                                -0.000020  0.000036  0.000033 -0.000006  0.000035 -0.000021  0.000004 -0.000021

   3.2   0     0.1396   -2.1661  0.389901  3.721584 -0.716614  0.428735  0.168599  0.095698 -4.085442 -0.123015  0.023350 -0.004044
                                 0.005220 -0.002268  0.002928 -0.000201  0.000260  0.000164 -0.000212  0.000133 -0.000172  0.000022
                                -0.000026  0.000033  0.000052 -0.000010  0.000055 -0.000030  0.000005 -0.000031

                                   1 2py     1 2py     1 2py     1 2py     1 2py     1 2py     1 2py     1 2py     1 2py     1 4f1- 
                                   1 4f3-    1 4f1-    1 4f3-    1 4f1-    1 4f3-    1 4f1-    1 4f3-    1 4f1-    1 4f3-    1 6h1- 
                                   1 6h3-    1 6h5-    1 6h1-    1 6h3-    1 6h5-    1 6h1-    1 6h3-    1 6h5- 

   1.3   2    -1.8096  -11.0229  1.002669  0.050038  0.031616  0.010028 -0.001867 -0.000286 -0.023348 -0.000599  0.000123 -0.000380
                                -0.000491 -0.003052 -0.003940 -0.003413 -0.004406 -0.001442 -0.001861  0.000387  0.000500  0.000062
                                 0.000029  0.000073 -0.000239 -0.000028 -0.000244 -0.000083 -0.000012 -0.000086

   2.3   0     0.0239   -2.1800 -0.114880  0.084417  0.100702 -0.071116 -0.029608 -0.017718  1.003425  0.025504 -0.005050 -0.002224
                                -0.002871 -0.001661 -0.002144 -0.000091 -0.000117  0.000127  0.000163  0.000056  0.000072  0.000028
                                 0.000020  0.000036  0.000033  0.000006  0.000035 -0.000021 -0.000004 -0.000021

   3.3   0     0.1396   -2.1661  0.389901  3.721584 -0.716614  0.428735  0.168599  0.095698 -4.085442 -0.123015  0.023350 -0.004044
                                -0.005220 -0.002268 -0.002928 -0.000201 -0.000260  0.000164  0.000212  0.000133  0.000172  0.000022
                                 0.000026  0.000033  0.000052  0.000010  0.000055 -0.000030 -0.000005 -0.000031

                                   1 3d2-    1 3d2-    1 3d2-    1 3d2-    1 3d2-    1 3d2-    1 3d2-    1 3d2-    1 5g2-    1 5g4- 
                                   1 5g2-    1 5g4-    1 5g2-    1 5g4-    1 5g2-    1 5g4-    1 7i2-    1 7i6-    1 7i4-    1 7i2- 
                                   1 7i6-    1 7i4- 

   1.4   0     0.0777   -1.8642  0.093438 -0.463261 -0.464405 -0.264655  0.067458  1.636521 -0.045602  0.027877 -0.000511  0.000000
                                -0.000560 -0.000000 -0.000161  0.000000 -0.000029 -0.000000 -0.000015 -0.000015 -0.000000  0.000000
                                 0.000002 -0.000000

   2.4   0     0.1451   -4.5492  1.194017  1.143236  0.835416  0.423962 -0.095799 -1.817597  0.061276 -0.037358 -0.001482  0.000000
                                -0.001588 -0.000000 -0.000510  0.000000 -0.000078 -0.000000 -0.000046 -0.000049  0.000000 -0.000002
                                 0.000002 -0.000000

                                   1 2pz     1 2pz     1 2pz     1 2pz     1 2pz     1 2pz     1 2pz     1 2pz     1 2pz     1 4f0  
                                   1 4f2+    1 4f0     1 4f2+    1 4f0     1 4f2+    1 4f0     1 4f2+    1 4f0     1 4f2+    1 6h2+ 
                                   1 6h4+    1 6h0     1 6h2+    1 6h4+    1 6h0     1 6h2+    1 6h4+    1 6h0  

   1.5   2    -1.8096  -11.0229  1.002669  0.050038  0.031616  0.010028 -0.001867 -0.000286 -0.023348 -0.000599  0.000123  0.000621
                                -0.000000  0.004984  0.000000  0.005574 -0.000000  0.002354 -0.000000 -0.000632  0.000000 -0.000000
                                 0.000027  0.000096  0.000000 -0.000163 -0.000302 -0.000000 -0.000055 -0.000106

   2.5   0     0.0239   -2.1800 -0.114880  0.084417  0.100702 -0.071116 -0.029608 -0.017718  1.003425  0.025504 -0.005050  0.003632
                                 0.000000  0.002712 -0.000000  0.000148  0.000000 -0.000207  0.000000 -0.000091 -0.000000 -0.000000
                                 0.000007  0.000050  0.000000  0.000021  0.000044 -0.000000 -0.000013 -0.000027

   3.5   0     0.1396   -2.1661  0.389901  3.721584 -0.716614  0.428735  0.168599  0.095698 -4.085442 -0.123015  0.023350  0.006603
                                -0.000000  0.003704  0.000000  0.000329 -0.000000 -0.000269 -0.000000 -0.000217  0.000000  0.000000
                                -0.000002  0.000048 -0.000000  0.000033  0.000069  0.000000 -0.000019 -0.000039

                                   1 3d1+    1 3d1+    1 3d1+    1 3d1+    1 3d1+    1 3d1+    1 3d1+    1 3d1+    1 5g1+    1 5g3+ 
                                   1 5g1+    1 5g3+    1 5g1+    1 5g3+    1 5g1+    1 5g3+    1 7i5+    1 7i3+    1 7i1+    1 7i5+ 
                                   1 7i3+    1 7i1+ 

   1.6   0     0.0777   -1.8642  0.093438 -0.463261 -0.464405 -0.264655  0.067458  1.636521 -0.045602  0.027877  0.000181  0.000478
                                 0.000198  0.000524  0.000057  0.000151  0.000010  0.000027 -0.000013 -0.000001 -0.000016  0.000001
                                -0.000001  0.000002

   2.6   0     0.1451   -4.5492  1.194017  1.143236  0.835416  0.423962 -0.095799 -1.817597  0.061276 -0.037358  0.000524  0.001387
                                 0.000562  0.001486  0.000180  0.000477  0.000028  0.000073 -0.000042 -0.000003 -0.000052 -0.000001
                                -0.000002  0.000002

                                   1 3d1-    1 3d1-    1 3d1-    1 3d1-    1 3d1-    1 3d1-    1 3d1-    1 3d1-    1 5g1-    1 5g3- 
                                   1 5g1-    1 5g3-    1 5g1-    1 5g3-    1 5g1-    1 5g3-    1 7i5-    1 7i3-    1 7i1-    1 7i5- 
                                   1 7i3-    1 7i1- 

   1.7   0     0.0777   -1.8642  0.093438 -0.463261 -0.464405 -0.264655  0.067458  1.636521 -0.045602  0.027877  0.000181 -0.000478
                                 0.000198 -0.000524  0.000057 -0.000151  0.000010 -0.000027 -0.000013  0.000001 -0.000016  0.000001
                                 0.000001  0.000002

   2.7   0     0.1451   -4.5492  1.194017  1.143236  0.835416  0.423962 -0.095799 -1.817597  0.061276 -0.037358  0.000524 -0.001387
                                 0.000562 -0.001486  0.000180 -0.000477  0.000028 -0.000073 -0.000042  0.000003 -0.000052 -0.000001
                                 0.000002  0.000002

                                   1 4f2-    1 4f2-    1 4f2-    1 4f2-    1 4f2-    1 6h4-    1 6h2-    1 6h4-    1 6h2-    1 6h4- 
                                   1 6h2- 

   1.8   0     0.5246   -2.0398  1.054403 -0.120334  0.067017  0.021635 -0.044682 -0.000000 -0.000000  0.000000 -0.000000 -0.000000
                                 0.000000

   2.8   0     1.5831   -1.8538 -0.567888  1.239043 -0.159502 -0.058079  0.169686  0.000000  0.000000 -0.000000 -0.000000  0.000000
                                -0.000000

 HOMO      4.1    -0.440517 =     -11.9871eV
 LUMO      2.2     0.023917 =       0.6508eV
 LUMO-HOMO         0.464434 =      12.6379eV


 **********************************************************************************************************************************
 DATASETS  * FILE   NREC   LENGTH (MB)   RECORD NAMES
              1      20      124.04       500      610      700      900      950      970     1000      129      960     1100   
                                          VAR    BASINP    GEOM    SYMINP    ZMAT    AOBASIS   BASIS     P2S    ABASIS      S 
                                         1400     1410     1420     1200     1210     1080     1600     1650     1300     1700   
                                         EKIN       V       ECP      H0       H01     AOSYM     SMH    MOLCAS    ERIS     OPER   

              2       4        2.96       700     1000      520     4202   
                                         GEOM     BASIS   MCVARS     RHF  

 PROGRAMS   *        TOTAL       RHF       INT
 CPU TIMES  *        14.20      1.30     12.78
 REAL TIME  *        18.32 SEC
 DISK USED  *       413.16 MB      
 **********************************************************************************************************************************


 PROGRAM * POP (Mulliken population analysis)

 
 Density matrix read from record         4202.2  Type=RHF/CHARGE (state 1.1)
 
 Population analysis by basis function type

 Unique atom        s        p        d        f        g    Total    Charge
   1  TI      3.99999  5.99938  1.99991  0.00061  0.00010 12.00000  - 0.00000


 **********************************************************************************************************************************
 DATASETS  * FILE   NREC   LENGTH (MB)   RECORD NAMES
              1      20      124.04       500      610      700      900      950      970     1000      129      960     1100   
                                          VAR    BASINP    GEOM    SYMINP    ZMAT    AOBASIS   BASIS     P2S    ABASIS      S 
                                         1400     1410     1420     1200     1210     1080     1600     1650     1300     1700   
                                         EKIN       V       ECP      H0       H01     AOSYM     SMH    MOLCAS    ERIS     OPER   

              2       4        2.96       700     1000      520     4202   
                                         GEOM     BASIS   MCVARS     RHF  

 PROGRAMS   *        TOTAL       POP       RHF       INT
 CPU TIMES  *        14.20      0.00      1.30     12.78
 REAL TIME  *        18.34 SEC
 DISK USED  *       413.16 MB      
 **********************************************************************************************************************************


 PROGRAM * MULTI (Direct Multiconfiguration SCF)       Authors: P.J. Knowles, H.-J. Werner (1984)     S.T. Elbert (1988)


 Number of closed-shell orbitals:   5 (   2   1   1   0   1   0   0   0 )
 Number of active  orbitals:        5 (   2   0   0   1   0   1   1   0 )
 Number of external orbitals:     196 (  41  27  27  21  27  21  21  11 )

 State symmetry 1

 Number of electrons:     2    Spin symmetry=Triplet   Space symmetry=1
 Number of states:        1
 Number of CSFs:          1   (1 determinants, 10 intermediate states)

 State symmetry 2

 Number of electrons:     2    Spin symmetry=Triplet   Space symmetry=4
 Number of states:        3
 Number of CSFs:          3   (3 determinants, 10 intermediate states)

 State symmetry 3

 Number of electrons:     2    Spin symmetry=Triplet   Space symmetry=6
 Number of states:        3
 Number of CSFs:          3   (3 determinants, 10 intermediate states)

 State symmetry 4

 Number of electrons:     2    Spin symmetry=Triplet   Space symmetry=7
 Number of states:        3
 Number of CSFs:          3   (3 determinants, 10 intermediate states)

 Molecular orbitals read from record     4202.2  Type=RHF/CANONICAL (state 1.1)
 *** IN SYMMETRY 1 ORBITAL  1 SYMMETRY CONTAMINATION OF 0.353D-02 HAS BEEN REMOVED
 *** IN SYMMETRY 1 ORBITAL  2 SYMMETRY CONTAMINATION OF 0.185D-02 HAS BEEN REMOVED
 *** IN SYMMETRY 1 ORBITAL  3 SYMMETRY CONTAMINATION OF 0.270D-01 HAS BEEN REMOVED
 *** IN SYMMETRY 1 ORBITAL  4 SYMMETRY CONTAMINATION OF 0.298D-01 HAS BEEN REMOVED

 EXTRA SYMMETRY OF MOS IN SYMMETRY 1:   1 1 3 2 1 2 3 3 2 1   3 2 1 4 6 5 3 2 1 4   6 5 3 2 8 9 710 1 3   2 4 5 6 1 8 9 710 3
                                        2 6 5 4 1
 *** IN SYMMETRY 2 ORBITAL  1 SYMMETRY CONTAMINATION OF 0.182D-01 HAS BEEN REMOVED
 EXTRA SYMMETRY OF MOS IN SYMMETRY 2:   1 1 1 1 3 2 1 3 2 5   6 4 1 3 2 1 3 2 5 6   4 1 3 2 5 6 4 1
 *** IN SYMMETRY 3 ORBITAL  1 SYMMETRY CONTAMINATION OF 0.182D-01 HAS BEEN REMOVED
 EXTRA SYMMETRY OF MOS IN SYMMETRY 3:   1 1 1 1 3 2 1 3 2 5   6 4 1 3 2 1 3 2 5 6   4 1 3 2 5 6 4 1
 *** IN SYMMETRY 4 ORBITAL  1 SYMMETRY CONTAMINATION OF 0.422D-03 HAS BEEN REMOVED
 EXTRA SYMMETRY OF MOS IN SYMMETRY 4:   1 1 1 1 3 2 1 3 2 1   6 4 5 1 3 2 6 4 5 1   2 3
 *** IN SYMMETRY 5 ORBITAL  1 SYMMETRY CONTAMINATION OF 0.131D-01 HAS BEEN REMOVED
 EXTRA SYMMETRY OF MOS IN SYMMETRY 5:   1 1 1 1 2 3 1 2 3 5   4 6 1 2 3 1 2 3 5 4   6 1 2 3 5 4 6 1
 *** IN SYMMETRY 6 ORBITAL  1 SYMMETRY CONTAMINATION OF 0.541D-03 HAS BEEN REMOVED
 EXTRA SYMMETRY OF MOS IN SYMMETRY 6:   1 1 1 1 2 3 1 2 3 1   5 4 6 1 2 3 5 4 6 1   3 2
 *** IN SYMMETRY 7 ORBITAL  1 SYMMETRY CONTAMINATION OF 0.541D-03 HAS BEEN REMOVED
 EXTRA SYMMETRY OF MOS IN SYMMETRY 7:   1 1 1 1 2 3 1 2 3 1   5 4 6 1 2 3 5 4 6 1   3 2
 EXTRA SYMMETRY OF MOS IN SYMMETRY 8:   1 1 3 2 1 1 2 3 1 2   3

 Wavefunction dump at record             5202.2

 Convergence thresholds  0.10E-01 (gradient)  0.10E-05 (energy)  0.10E-02 (step length)

 Weight factors for state symmetry  1:    0.10000
 Weight factors for state symmetry  2:    0.10000   0.10000   0.10000
 Weight factors for state symmetry  3:    0.10000   0.10000   0.10000
 Weight factors for state symmetry  4:    0.10000   0.10000   0.10000

 Number of orbital rotations:      312   (     4 Core/Active    163 Core/Virtual   0 Active/Active    145 Active/Virtual)
 Total number of variables:        340


 ITER. MIC  NCI  NEG     ENERGY(VAR)     ENERGY(PROJ)   ENERGY CHANGE     GRAD(0)  GRAD(ORB)   GRAD(CI)     STEP       TIME

   1   37   16    3     -57.08462390     -57.68296578   -0.59834189    0.57089610 0.00000000 0.00000000  0.16D+01      0.42
   2   15   20    0     -57.54778181     -57.58816159   -0.04037979    0.39175857 0.00000696 0.00000000  0.23D+00      0.77
   3   21   20    0     -57.58954656     -57.58971713   -0.00017057    0.01780704 0.00000000 0.00000000  0.16D-01      1.12
   4   24   24    0     -57.58971782     -57.58971783   -0.00000001    0.00009216 0.00000000 0.00000000  0.10D-03      1.47
   5   25   20    0     -57.58971783     -57.58971783    0.00000000    0.00000000 0.00000000 0.00000000  0.44D-08      1.82

 ** WVFN ****  CONVERGENCE REACHED, FINAL GRADIENT:  0.67D-12



 Results for state 1.1
 =====================

 !MCSCF STATE 1.1 Energy              -57.607110481386
 Nuclear energy                         0.00000000
 Kinetic energy                        25.80150019
 One electron energy                  -97.14746629
 Two electron energy                   39.54035581
 Virial ratio                           3.23270391

 !MCSCF STATE 1.1 Dipole moment         0.00000000     0.00000000     0.00000000
 Dipole moment /Debye                   0.00000000     0.00000000     0.00000000



 Results for state 1.4
 =====================

 !MCSCF STATE 1.4 Energy              -57.607110481387
 Nuclear energy                         0.00000000
 Kinetic energy                        25.80150019
 One electron energy                  -97.14746629
 Two electron energy                   39.54035581
 Virial ratio                           3.23270391

 !MCSCF STATE 1.4 Dipole moment         0.00000000     0.00000000     0.00000000
 Dipole moment /Debye                   0.00000000     0.00000000     0.00000000

 Results for state 2.4
 =====================

 !MCSCF STATE 2.4 Energy              -57.607110481386
 Nuclear energy                         0.00000000
 Kinetic energy                        25.80150019
 One electron energy                  -97.14746629
 Two electron energy                   39.54035581
 Virial ratio                           3.23270391

 !MCSCF STATE 2.4 Dipole moment         0.00000000     0.00000000     0.00000000
 Dipole moment /Debye                   0.00000000     0.00000000     0.00000000

 Results for state 3.4
 =====================

 !MCSCF STATE 3.4 Energy              -57.549134973708
 Nuclear energy                         0.00000000
 Kinetic energy                        25.80150019
 One electron energy                  -97.14746629
 Two electron energy                   39.59833132
 Virial ratio                           3.23045693

 !MCSCF STATE 3.4 Dipole moment         0.00000000     0.00000000     0.00000000
 Dipole moment /Debye                   0.00000000     0.00000000     0.00000000



 Results for state 1.6
 =====================

 !MCSCF STATE 1.6 Energy              -57.607110481387
 Nuclear energy                         0.00000000
 Kinetic energy                        25.80150019
 One electron energy                  -97.14746629
 Two electron energy                   39.54035581
 Virial ratio                           3.23270391

 !MCSCF STATE 1.6 Dipole moment         0.00000000     0.00000000     0.00000000
 Dipole moment /Debye                   0.00000000     0.00000000     0.00000000

 Results for state 2.6
 =====================

 !MCSCF STATE 2.6 Energy              -57.607110481386
 Nuclear energy                         0.00000000
 Kinetic energy                        25.80150019
 One electron energy                  -97.14746629
 Two electron energy                   39.54035581
 Virial ratio                           3.23270391

 !MCSCF STATE 2.6 Dipole moment         0.00000000     0.00000000     0.00000000
 Dipole moment /Debye                   0.00000000     0.00000000     0.00000000

 Results for state 3.6
 =====================

 !MCSCF STATE 3.6 Energy              -57.549134973708
 Nuclear energy                         0.00000000
 Kinetic energy                        25.80150019
 One electron energy                  -97.14746629
 Two electron energy                   39.59833132
 Virial ratio                           3.23045693

 !MCSCF STATE 3.6 Dipole moment         0.00000000     0.00000000     0.00000000
 Dipole moment /Debye                   0.00000000     0.00000000     0.00000000



 Results for state 1.7
 =====================

 !MCSCF STATE 1.7 Energy              -57.607110481387
 Nuclear energy                         0.00000000
 Kinetic energy                        25.80150019
 One electron energy                  -97.14746629
 Two electron energy                   39.54035581
 Virial ratio                           3.23270391

 !MCSCF STATE 1.7 Dipole moment         0.00000000     0.00000000     0.00000000
 Dipole moment /Debye                   0.00000000     0.00000000     0.00000000

 Results for state 2.7
 =====================

 !MCSCF STATE 2.7 Energy              -57.607110481386
 Nuclear energy                         0.00000000
 Kinetic energy                        25.80150019
 One electron energy                  -97.14746629
 Two electron energy                   39.54035581
 Virial ratio                           3.23270391

 !MCSCF STATE 2.7 Dipole moment         0.00000000     0.00000000     0.00000000
 Dipole moment /Debye                   0.00000000     0.00000000     0.00000000

 Results for state 3.7
 =====================

 !MCSCF STATE 3.7 Energy              -57.549134973708
 Nuclear energy                         0.00000000
 Kinetic energy                        25.80150019
 One electron energy                  -97.14746629
 Two electron energy                   39.59833132
 Virial ratio                           3.23045693

 !MCSCF STATE 3.7 Dipole moment         0.00000000     0.00000000     0.00000000
 Dipole moment /Debye                   0.00000000     0.00000000     0.00000000

 State-averaged charge density matrix saved on record  5202.2 (density set 1)

 !MCSCF expec        <1.1|EKIN|1.1>    25.801500193584
 !MCSCF expec        <1.4|EKIN|1.4>    25.801500193586
 !MCSCF expec        <2.4|EKIN|2.4>    25.801500193584
 !MCSCF expec        <3.4|EKIN|3.4>    25.801500193585
 !MCSCF expec        <1.6|EKIN|1.6>    25.801500193585
 !MCSCF expec        <2.6|EKIN|2.6>    25.801500193585
 !MCSCF expec        <3.6|EKIN|3.6>    25.801500193586
 !MCSCF expec        <1.7|EKIN|1.7>    25.801500193585
 !MCSCF expec        <2.7|EKIN|2.7>    25.801500193585
 !MCSCF expec        <3.7|EKIN|3.7>    25.801500193586

 !MCSCF expec         <1.1|POT|1.1>   -10.946980704183
 !MCSCF expec         <1.4|POT|1.4>   -10.946980704183
 !MCSCF expec         <2.4|POT|2.4>   -10.946980704183
 !MCSCF expec         <3.4|POT|3.4>   -10.946980704183
 !MCSCF expec         <1.6|POT|1.6>   -10.946980704183
 !MCSCF expec         <2.6|POT|2.6>   -10.946980704183
 !MCSCF expec         <3.6|POT|3.6>   -10.946980704183
 !MCSCF expec         <1.7|POT|1.7>   -10.946980704183
 !MCSCF expec         <2.7|POT|2.7>   -10.946980704183
 !MCSCF expec         <3.7|POT|3.7>   -10.946980704183


 NATURAL ORBITALS (state averaged)
 =================================

   Orb     Occ        Energy       Coefficients

                                   1 1s      1 1s      1 1s      1 1s      1 1s      1 1s      1 1s      1 1s      1 1s      1 3d0  
                                   1 3d2+    1 3d0     1 3d2+    1 3d0     1 3d2+    1 3d0     1 3d2+    1 3d0     1 3d2+    1 3d0  
                                   1 3d2+    1 3d0     1 3d2+    1 3d0     1 3d2+    1 5g0     1 5g4+    1 5g2+    1 5g0     1 5g4+ 
                                   1 5g2+    1 5g0     1 5g4+    1 5g2+    1 5g0     1 5g4+    1 5g2+    1 7i6+    1 7i4+    1 7i2+ 
                                   1 7i0     1 7i6+    1 7i4+    1 7i2+    1 7i0  

   1.1  2.00000    -2.932569     1.000231  0.000580  0.000282  0.000131 -0.000068  0.000022 -0.000682 -0.000501  0.000443  0.000000
                                 0.000000  0.000000  0.000000  0.000000  0.000000  0.000000  0.000000  0.000000  0.000000  0.000000
                                 0.000000  0.000000  0.000000  0.000000  0.000000  0.000000  0.000000  0.000000  0.000000  0.000000
                                 0.000000  0.000000  0.000000  0.000000  0.000000  0.000000  0.000000  0.000000  0.000000  0.000000
                                 0.000000  0.000000  0.000000  0.000000  0.000000

   2.1  2.00000    -0.222333    -0.000018  0.999961 -0.000019 -0.000009  0.000005 -0.000002  0.000046  0.000044 -0.000039  0.000000
                                 0.000000  0.000000  0.000000  0.000000  0.000000  0.000000  0.000000  0.000000  0.000000  0.000000
                                 0.000000  0.000000  0.000000  0.000000  0.000000  0.000000  0.000000  0.000000  0.000000  0.000000
                                 0.000000  0.000000  0.000000  0.000000  0.000000  0.000000  0.000000  0.000000  0.000000  0.000000
                                 0.000000  0.000000  0.000000  0.000000  0.000000

   3.1  0.40000     0.089730     0.000000  0.000000  0.000000  0.000000  0.000000  0.000000  0.000000  0.000000  0.000000  0.000000
                                 0.990768  0.000000 -0.151138  0.000000 -0.013952  0.000000  0.001623  0.000000 -0.000152  0.000000
                                 0.004239  0.000000 -0.000252  0.000000 -0.000001  0.000000  0.000000  0.000000  0.000000  0.000000
                                 0.000000  0.000000  0.000000  0.000000  0.000000  0.000000  0.000000  0.000000  0.000000  0.000000
                                 0.000000  0.000000  0.000000  0.000000  0.000000

   4.1  0.40000     0.089730     0.000000  0.000000  0.000000  0.000000  0.000000  0.000000  0.000000  0.000000  0.000000  0.990768
                                 0.000000 -0.151138  0.000000 -0.013952  0.000000  0.001623  0.000000 -0.000152  0.000000  0.004239
                                 0.000000 -0.000252  0.000000 -0.000001  0.000000  0.000000  0.000000  0.000000  0.000000  0.000000
                                 0.000000  0.000000  0.000000  0.000000  0.000000  0.000000  0.000000  0.000000  0.000000  0.000000
                                 0.000000  0.000000  0.000000  0.000000  0.000000

                                   1 2px     1 2px     1 2px     1 2px     1 2px     1 2px     1 2px     1 2px     1 2px     1 4f1+ 
                                   1 4f3+    1 4f1+    1 4f3+    1 4f1+    1 4f3+    1 4f1+    1 4f3+    1 4f1+    1 4f3+    1 6h1+ 
                                   1 6h3+    1 6h5+    1 6h1+    1 6h3+    1 6h5+    1 6h1+    1 6h3+    1 6h5+ 

   1.2  2.00000    -1.813411     1.002699  0.049405  0.031146  0.009849 -0.001829 -0.000286 -0.023037 -0.000595  0.000122  0.000000
                                 0.000000  0.000000  0.000000  0.000000  0.000000  0.000000  0.000000  0.000000  0.000000  0.000000
                                 0.000000  0.000000  0.000000  0.000000  0.000000  0.000000  0.000000  0.000000

                                   1 2py     1 2py     1 2py     1 2py     1 2py     1 2py     1 2py     1 2py     1 2py     1 4f1- 
                                   1 4f3-    1 4f1-    1 4f3-    1 4f1-    1 4f3-    1 4f1-    1 4f3-    1 4f1-    1 4f3-    1 6h1- 
                                   1 6h3-    1 6h5-    1 6h1-    1 6h3-    1 6h5-    1 6h1-    1 6h3-    1 6h5- 

   1.3  2.00000    -1.813411     1.002699  0.049405  0.031146  0.009849 -0.001829 -0.000286 -0.023037 -0.000595  0.000122  0.000000
                                 0.000000  0.000000  0.000000  0.000000  0.000000  0.000000  0.000000  0.000000  0.000000  0.000000
                                 0.000000  0.000000  0.000000  0.000000  0.000000  0.000000  0.000000  0.000000

                                   1 3d2-    1 3d2-    1 3d2-    1 3d2-    1 3d2-    1 3d2-    1 3d2-    1 3d2-    1 5g2-    1 5g4- 
                                   1 5g2-    1 5g4-    1 5g2-    1 5g4-    1 5g2-    1 5g4-    1 7i2-    1 7i6-    1 7i4-    1 7i2- 
                                   1 7i6-    1 7i4- 

   1.4  0.40000     0.089730     0.990768 -0.151138 -0.013952  0.001623 -0.000152  0.004239 -0.000252 -0.000001  0.000000  0.000000
                                 0.000000  0.000000  0.000000  0.000000  0.000000  0.000000  0.000000  0.000000  0.000000  0.000000
                                 0.000000  0.000000

                                   1 2pz     1 2pz     1 2pz     1 2pz     1 2pz     1 2pz     1 2pz     1 2pz     1 2pz     1 4f0  
                                   1 4f2+    1 4f0     1 4f2+    1 4f0     1 4f2+    1 4f0     1 4f2+    1 4f0     1 4f2+    1 6h2+ 
                                   1 6h4+    1 6h0     1 6h2+    1 6h4+    1 6h0     1 6h2+    1 6h4+    1 6h0  

   1.5  2.00000    -1.813411     1.002699  0.049405  0.031146  0.009849 -0.001829 -0.000286 -0.023037 -0.000595  0.000122  0.000000
                                 0.000000  0.000000  0.000000  0.000000  0.000000  0.000000  0.000000  0.000000  0.000000  0.000000
                                 0.000000  0.000000  0.000000  0.000000  0.000000  0.000000  0.000000  0.000000

                                   1 3d1+    1 3d1+    1 3d1+    1 3d1+    1 3d1+    1 3d1+    1 3d1+    1 3d1+    1 5g1+    1 5g3+ 
                                   1 5g1+    1 5g3+    1 5g1+    1 5g3+    1 5g1+    1 5g3+    1 7i5+    1 7i3+    1 7i1+    1 7i5+ 
                                   1 7i3+    1 7i1+ 

   1.6  0.40000     0.089730     0.990768 -0.151138 -0.013952  0.001623 -0.000152  0.004239 -0.000252 -0.000001  0.000000  0.000000
                                 0.000000  0.000000  0.000000  0.000000  0.000000  0.000000  0.000000  0.000000  0.000000  0.000000
                                 0.000000  0.000000

                                   1 3d1-    1 3d1-    1 3d1-    1 3d1-    1 3d1-    1 3d1-    1 3d1-    1 3d1-    1 5g1-    1 5g3- 
                                   1 5g1-    1 5g3-    1 5g1-    1 5g3-    1 5g1-    1 5g3-    1 7i5-    1 7i3-    1 7i1-    1 7i5- 
                                   1 7i3-    1 7i1- 

   1.7  0.40000     0.089730     0.990768 -0.151138 -0.013952  0.001623 -0.000152  0.004239 -0.000252 -0.000001  0.000000  0.000000
                                 0.000000  0.000000  0.000000  0.000000  0.000000  0.000000  0.000000  0.000000  0.000000  0.000000
                                 0.000000  0.000000
 

 EXTRA SYMMETRY OF MOS IN SYMMETRY 1:   1 1 3 2 1 3 2 3 2 1   3 2 1 5 6 4 3 2 1 4   6 5 3 2 9 8 710 1 3   2 4 6 5 110 8 9 7 3
                                        2 5 4 6 1
 EXTRA SYMMETRY OF MOS IN SYMMETRY 2:   1 1 1 1 3 2 1 3 2 6   4 5 1 3 2 1 3 2 4 6   5 1 3 2 6 4 5 1
 EXTRA SYMMETRY OF MOS IN SYMMETRY 3:   1 1 1 1 3 2 1 3 2 6   4 5 1 3 2 1 3 2 4 6   5 1 3 2 6 4 5 1
 EXTRA SYMMETRY OF MOS IN SYMMETRY 4:   1 1 1 1 3 2 1 2 3 1   4 6 5 1 2 3 6 4 5 1   2 3
 EXTRA SYMMETRY OF MOS IN SYMMETRY 5:   1 1 1 1 2 3 1 3 2 4   6 5 1 2 3 1 2 3 6 5   4 1 2 3 6 5 4 1
 EXTRA SYMMETRY OF MOS IN SYMMETRY 6:   1 1 1 1 3 2 1 3 2 1   5 6 4 1 3 2 6 5 4 1   2 3
 EXTRA SYMMETRY OF MOS IN SYMMETRY 7:   1 1 1 1 3 2 1 3 2 1   5 6 4 1 3 2 6 5 4 1   2 3

 Natural orbital dump (state averaged) at molpro section  5202.2    (Orbital set 2)


 CI vector for state symmetry 1
 ==============================

 aa 0 0 0          1.0000000

 TOTAL ENERGIES                       -57.60711048

 CI vector for state symmetry 2
 ==============================

 0a a 0 0          0.0000000   1.0000000   0.0000000
 a0 a 0 0         -0.4472136   0.0000000   0.8944272
 00 0 a a          0.8944272   0.0000000   0.4472136

 TOTAL ENERGIES                       -57.60711048   -57.60711048   -57.54913497

 CI vector for state symmetry 3
 ==============================

 0a 0 a 0          0.0757801   0.6278992   0.7745967
 00 a 0 a          0.7676401   0.4590519  -0.4472136
 a0 0 a 0         -0.6363851   0.6285014  -0.4472136

 TOTAL ENERGIES                       -57.60711048   -57.60711048   -57.54913497

 CI vector for state symmetry 4
 ==============================

 0a 0 0 a          0.0781075  -0.6276139   0.7745967
 00 a a 0          0.7693367  -0.4562028  -0.4472136
 a0 0 0 a          0.6340507   0.6308564   0.4472136

 TOTAL ENERGIES                       -57.60711048   -57.60711048   -57.54913497



 **********************************************************************************************************************************
 DATASETS  * FILE   NREC   LENGTH (MB)   RECORD NAMES
              1      21      127.76       500      610      700      900      950      970     1000      129      960     1100   
                                          VAR    BASINP    GEOM    SYMINP    ZMAT    AOBASIS   BASIS     P2S    ABASIS      S 
                                         1400     1410     1420     1200     1210     1080     1600     1650     1300     1700   
                                         EKIN       V       ECP      H0       H01     AOSYM     SMH    MOLCAS    ERIS     OPER   
                                         1380   
                                         JKOP   

              2       5        5.67       700     1000      520     4202     5202   
                                         GEOM     BASIS   MCVARS     RHF     MCSCF   

 PROGRAMS   *        TOTAL     MULTI       POP       RHF       INT
 CPU TIMES  *        16.42      2.22      0.00      1.30     12.78
 REAL TIME  *        22.44 SEC
 DISK USED  *       413.16 MB      
 **********************************************************************************************************************************


 PROGRAM * RHF-SCF (OPEN SHELL)       Authors: W. Meyer, H.-J. Werner


 NUMBER OF ELECTRONS:       7+    5-    SPACE SYMMETRY=1    SPIN SYMMETRY: Triplet 
 CONVERGENCE THRESHOLDS:    1.00E-05 (Density)    1.00E-07 (Energy)
 MAX. NUMBER OF ITERATIONS:        0
 INTERPOLATION TYPE:            DIIS
 INTERPOLATION STEPS:              2 (START)      1 (STEP)
 LEVEL SHIFTS:                 -0.60 (CLOSED) -0.30 (OPEN) 


 Singly occupied orbitals:      3.1       4.1
 Molecular orbitals read from record     5202.2  Type=MCSCF/NATURAL (state averaged)

 Molecular orbital dump at record        2101.2

 ITERATION    DDIFF          GRAD             ENERGY        2-EL.EN.            DIPOLE MOMENTS         DIIS   ORB.
    1      0.000D+00      0.000D+00       -57.60711048     79.080712    0.00000    0.00000    0.00000    0    start

 Final alpha occupancy:   4   1   1   0   1   0   0   0
 Final beta  occupancy:   2   1   1   0   1   0   0   0

 !RHF STATE 1.1 Energy                -57.607110481386
 Nuclear energy                         0.00000000
 One-electron energy                  -97.14746629
 Two-electron energy                   39.54035581
 Virial quotient                       -2.23270391
 !RHF STATE 1.1 Dipole moment           0.00000000     0.00000000     0.00000000
 Dipole moment /Debye                   0.00000000     0.00000000     0.00000000
 

 !RHF expec          <1.1|EKIN|1.1>    25.801500193584
 
 !RHF expec           <1.1|POT|1.1>   -10.946980704183

 ELECTRON ORBITALS
 =================


   Orb  Occ    Energy  Couls-En    Coefficients

                                   1 1s      1 1s      1 1s      1 1s      1 1s      1 1s      1 1s      1 1s      1 1s      1 3d0  
                                   1 3d2+    1 3d0     1 3d2+    1 3d0     1 3d2+    1 3d0     1 3d2+    1 3d0     1 3d2+    1 3d0  
                                   1 3d2+    1 3d0     1 3d2+    1 3d0     1 3d2+    1 5g0     1 5g4+    1 5g2+    1 5g0     1 5g4+ 
                                   1 5g2+    1 5g0     1 5g4+    1 5g2+    1 5g0     1 5g4+    1 5g2+    1 7i6+    1 7i4+    1 7i2+ 
                                   1 7i0     1 7i6+    1 7i4+    1 7i2+    1 7i0  

   1.1   2    -2.9326  -13.2828  1.000231  0.000580  0.000282  0.000131 -0.000068  0.000022 -0.000682 -0.000501  0.000443  0.000000
                                 0.000000  0.000000  0.000000  0.000000  0.000000  0.000000  0.000000  0.000000  0.000000  0.000000
                                 0.000000  0.000000  0.000000  0.000000  0.000000  0.000000  0.000000  0.000000  0.000000  0.000000
                                 0.000000  0.000000  0.000000  0.000000  0.000000  0.000000  0.000000  0.000000  0.000000  0.000000
                                 0.000000  0.000000  0.000000  0.000000  0.000000

   2.1   2    -0.2223   -3.7564 -0.000018  0.999961 -0.000019 -0.000009  0.000005 -0.000002  0.000046  0.000044 -0.000039  0.000000
                                 0.000000  0.000000  0.000000  0.000000  0.000000  0.000000  0.000000  0.000000  0.000000  0.000000
                                 0.000000  0.000000  0.000000  0.000000  0.000000  0.000000  0.000000  0.000000  0.000000  0.000000
                                 0.000000  0.000000  0.000000  0.000000  0.000000  0.000000  0.000000  0.000000  0.000000  0.000000
                                 0.000000  0.000000  0.000000  0.000000  0.000000

   3.1   +     0.0897   -6.9538  0.000000  0.000000  0.000000  0.000000  0.000000  0.000000  0.000000  0.000000  0.000000  0.000000
                                 0.990768  0.000000 -0.151138  0.000000 -0.013952  0.000000  0.001623  0.000000 -0.000152  0.000000
                                 0.004239  0.000000 -0.000252  0.000000 -0.000001  0.000000  0.000000  0.000000  0.000000  0.000000
                                 0.000000  0.000000  0.000000  0.000000  0.000000  0.000000  0.000000  0.000000  0.000000  0.000000
                                 0.000000  0.000000  0.000000  0.000000  0.000000

   4.1   +     0.0897   -6.9538  0.000000  0.000000  0.000000  0.000000  0.000000  0.000000  0.000000  0.000000  0.000000  0.990768
                                 0.000000 -0.151138  0.000000 -0.013952  0.000000  0.001623  0.000000 -0.000152  0.000000  0.004239
                                 0.000000 -0.000252  0.000000 -0.000001  0.000000  0.000000  0.000000  0.000000  0.000000  0.000000
                                 0.000000  0.000000  0.000000  0.000000  0.000000  0.000000  0.000000  0.000000  0.000000  0.000000
                                 0.000000  0.000000  0.000000  0.000000  0.000000

                                   1 2px     1 2px     1 2px     1 2px     1 2px     1 2px     1 2px     1 2px     1 2px     1 4f1+ 
                                   1 4f3+    1 4f1+    1 4f3+    1 4f1+    1 4f3+    1 4f1+    1 4f3+    1 4f1+    1 4f3+    1 6h1+ 
                                   1 6h3+    1 6h5+    1 6h1+    1 6h3+    1 6h5+    1 6h1+    1 6h3+    1 6h5+ 

   1.2   2    -1.8134  -11.0287  1.002699  0.049405  0.031146  0.009849 -0.001829 -0.000286 -0.023037 -0.000595  0.000122  0.000000
                                 0.000000  0.000000  0.000000  0.000000  0.000000  0.000000  0.000000  0.000000  0.000000  0.000000
                                 0.000000  0.000000  0.000000  0.000000  0.000000  0.000000  0.000000  0.000000

                                   1 2py     1 2py     1 2py     1 2py     1 2py     1 2py     1 2py     1 2py     1 2py     1 4f1- 
                                   1 4f3-    1 4f1-    1 4f3-    1 4f1-    1 4f3-    1 4f1-    1 4f3-    1 4f1-    1 4f3-    1 6h1- 
                                   1 6h3-    1 6h5-    1 6h1-    1 6h3-    1 6h5-    1 6h1-    1 6h3-    1 6h5- 

   1.3   2    -1.8134  -11.0287  1.002699  0.049405  0.031146  0.009849 -0.001829 -0.000286 -0.023037 -0.000595  0.000122  0.000000
                                 0.000000  0.000000  0.000000  0.000000  0.000000  0.000000  0.000000  0.000000  0.000000  0.000000
                                 0.000000  0.000000  0.000000  0.000000  0.000000  0.000000  0.000000  0.000000

                                   1 2pz     1 2pz     1 2pz     1 2pz     1 2pz     1 2pz     1 2pz     1 2pz     1 2pz     1 4f0  
                                   1 4f2+    1 4f0     1 4f2+    1 4f0     1 4f2+    1 4f0     1 4f2+    1 4f0     1 4f2+    1 6h2+ 
                                   1 6h4+    1 6h0     1 6h2+    1 6h4+    1 6h0     1 6h2+    1 6h4+    1 6h0  

   1.5   2    -1.8134  -11.0287  1.002699  0.049405  0.031146  0.009849 -0.001829 -0.000286 -0.023037 -0.000595  0.000122  0.000000
                                 0.000000  0.000000  0.000000  0.000000  0.000000  0.000000  0.000000  0.000000  0.000000  0.000000
                                 0.000000  0.000000  0.000000  0.000000  0.000000  0.000000  0.000000  0.000000

 HOMO      4.1     0.089730 =       2.4417eV
 LUMO      2.2     0.025911 =       0.7051eV
 LUMO-HOMO        -0.063819 =      -1.7366eV


 **********************************************************************************************************************************
 DATASETS  * FILE   NREC   LENGTH (MB)   RECORD NAMES
              1      21      127.76       500      610      700      900      950      970     1000      129      960     1100   
                                          VAR    BASINP    GEOM    SYMINP    ZMAT    AOBASIS   BASIS     P2S    ABASIS      S 
                                         1400     1410     1420     1200     1210     1080     1600     1650     1300     1700   
                                         EKIN       V       ECP      H0       H01     AOSYM     SMH    MOLCAS    ERIS     OPER   
                                         1380   
                                         JKOP   

              2       6        8.62       700     1000      520     4202     5202     2101   
                                         GEOM     BASIS   MCVARS     RHF     MCSCF     RHF  

 PROGRAMS   *        TOTAL       RHF     MULTI       POP       RHF       INT
 CPU TIMES  *        16.52      0.10      2.22      0.00      1.30     12.78
 REAL TIME  *        22.74 SEC
 DISK USED  *       413.16 MB      
 **********************************************************************************************************************************
 SETTING SCF(I)         =       -57.60711048  AU                              
 SETTING _CC_NORM_MAX   =         2.00000000                                  


 PROGRAM * CCSD (Restricted open-shell coupled cluster)     Authors: C. Hampel, H.-J. Werner, 1991, M. Deegan, P.J. Knowles, 1992


 Convergence thresholds:  THRVAR = 1.00D-08  THRDEN = 1.00D-06

 CCSD(T)     terms to be evaluated (factor= 1.000)


 Number of closed-shell orbitals:   5 (   2   1   1   0   1   0   0   0 )
 Number of active  orbitals:        2 (   2   0   0   0   0   0   0   0 )
 Number of external orbitals:     199 (  41  27  27  22  27  22  22  11 )

 Memory could be reduced to 14.87 Mwords without degradation in triples

 Number of N-1 electron functions:              12
 Number of N-2 electron functions:              66
 Number of singly external CSFs:               420
 Number of doubly external CSFs:            264749
 Total number of CSFs:                      265169

 Molecular orbitals read from record     2101.2  Type=RHF/CANONICAL (state 1.1)

 Integral transformation finished. Total CPU:   0.46 sec, npass=  1  Memory used:   2.54 MW

 Starting RMP2 calculation

 Wavefunction is spin-projected

 ITER.      SQ.NORM     CORR.ENERGY   TOTAL ENERGY   ENERGY CHANGE        DEN1      VAR(S)    VAR(P)  DIIS     TIME
   1      1.09948259    -0.43919108   -58.04630156    -0.43919108    -0.00159289  0.66D-05  0.13D-02  1  1     0.50
   2      1.10319849    -0.44095154   -58.04806202    -0.00176046    -0.00004382  0.59D-07  0.46D-04  2  2     0.51
   3      1.10401793    -0.44120763   -58.04831811    -0.00025609    -0.00000069  0.16D-08  0.54D-06  3  3     0.52
   4      1.10405844    -0.44121787   -58.04832836    -0.00001025    -0.00000002  0.28D-10  0.21D-07  4  4     0.54
   5      1.10405018    -0.44121580   -58.04832628     0.00000208    -0.00000000  0.48D-12  0.27D-09  5  5     0.56
   6      1.10404933    -0.44121566   -58.04832614     0.00000014    -0.00000000  0.19D-13  0.34D-11  6  6     0.58

 Norm of t1 vector:      0.04001700      S-energy:    -0.00674458      T1 diagnostic:  0.00480237
 Norm of t2 vector:      0.32007494      P-energy:    -0.43447108
                                         Alpha-Beta:  -0.32663106
                                         Alpha-Alpha: -0.06616837
                                         Beta-Beta:   -0.04167165

 Spin contamination <S**2-Sz**2-Sz>     0.00000000
  Reference energy                    -57.607110481386
  RHF-RMP2 correlation energy          -0.441215657251
 !RHF-RMP2 energy                     -58.048326138637
 (NB above energy spin projected)

 Starting RCCSD calculation

 ITER.      SQ.NORM     CORR.ENERGY   TOTAL ENERGY   ENERGY CHANGE        DEN1      VAR(S)    VAR(P)  DIIS     TIME
   1      1.10716640    -0.44548102   -58.05259150    -0.44548102    -0.00780273  0.21D-02  0.30D-02  1  1     1.38
   2      1.12292861    -0.45333466   -58.06044514    -0.00785364    -0.00101106  0.38D-03  0.69D-03  2  2     2.17
   3      1.13324605    -0.45555180   -58.06266229    -0.00221715    -0.00019320  0.11D-03  0.12D-03  3  3     2.94
   4      1.14068649    -0.45678078   -58.06389126    -0.00122898    -0.00001691  0.84D-05  0.96D-05  4  4     3.71
   5      1.14273094    -0.45703089   -58.06414137    -0.00025011    -0.00000232  0.50D-06  0.14D-05  5  5     4.48
   6      1.14306965    -0.45705751   -58.06416799    -0.00002662    -0.00000060  0.43D-07  0.44D-06  6  6     5.24
   7      1.14314398    -0.45706479   -58.06417527    -0.00000728    -0.00000017  0.10D-07  0.13D-06  6  1     5.99
   8      1.14309885    -0.45705755   -58.06416804     0.00000723    -0.00000003  0.47D-08  0.20D-07  6  2     6.73
   9      1.14310346    -0.45705955   -58.06417003    -0.00000200    -0.00000000  0.13D-08  0.33D-08  6  3     7.51
  10      1.14309964    -0.45705881   -58.06416929     0.00000074    -0.00000000  0.17D-09  0.45D-09  6  4     8.28

 Norm of t1 vector:      0.10689925      S-energy:    -0.00605982      T1 diagnostic:  0.02050474
                                                                       D1 diagnostic:  0.06867599
 Norm of t2 vector:      0.36286663      P-energy:    -0.45099898
                                         Alpha-Beta:  -0.34774450
                                         Alpha-Alpha: -0.06336924
                                         Beta-Beta:   -0.03988524

 Singles amplitudes (print threshold =  0.500E-01):

         I         SYM. A    A   T(IA) [Alpha-Alpha]

         2         1         3     -0.06377526
         2         1         8     -0.05229700

 Doubles amplitudes (print threshold =  0.500E-01):

         I         J         SYM. A    SYM. B    A         B      T(IJ, AB) [Alpha-Beta]

         2         2         2         2         1         1     -0.07628429
         2         2         2         2         1         2     -0.05715814
         2         2         2         2         2         1     -0.05715814
         2         2         3         3         1         1     -0.07628429
         2         2         3         3         1         2     -0.05715814
         2         2         3         3         2         1     -0.05715814
         2         2         5         5         1         1     -0.07628430
         2         2         5         5         1         2     -0.05715814
         2         2         5         5         2         1     -0.05715814

 Spin contamination <S**2-Sz**2-Sz>     0.00000000

 Memory could be reduced to 15.41 Mwords without degradation in triples
 

  Correlated core orbitals:             1.1       1.2       1.3       1.5
  Orbital energies:                    -2.9998   -1.8959   -1.8959   -1.8959
 
  RCCSD core-core energy               -0.263800504410
  RCCSD core-valence energy            -0.143143218737
  RCCSD valence correlation energy     -0.050115086391
 

 RESULTS
 =======

  Reference energy                    -57.607110481386
  RCCSD singles energy                 -0.006059824998
  RCCSD pair energy                    -0.450998984540
  RCCSD correlation energy             -0.457058809538
  Triples (T) contribution             -0.016644379568
  Total correlation energy             -0.473703189106
 
  RHF-RCCSD energy                    -58.064169290924
  RHF-RCCSD[T] energy                 -58.080928767571
  RHF-RCCSD-T energy                  -58.080787957372
 !RHF-RCCSD(T) energy                 -58.080813670492

 Program statistics:

 Available memory in ccsd:               511999438
 Min. memory needed in ccsd:                890427
 Max. memory used in ccsd:                 1196119
 Max. memory used in cckext:                946661 (10 integral passes)
 Max. memory used in cckint:               2544472 ( 1 integral passes)



 **********************************************************************************************************************************
 DATASETS  * FILE   NREC   LENGTH (MB)   RECORD NAMES
              1      21      127.76       500      610      700      900      950      970     1000      129      960     1100   
                                          VAR    BASINP    GEOM    SYMINP    ZMAT    AOBASIS   BASIS     P2S    ABASIS      S 
                                         1400     1410     1420     1200     1210     1080     1600     1650     1300     1700   
                                         EKIN       V       ECP      H0       H01     AOSYM     SMH    MOLCAS    ERIS     OPER   
                                         1380   
                                         JKOP   

              2       6        8.62       700     1000      520     4202     5202     2101   
                                         GEOM     BASIS   MCVARS     RHF     MCSCF     RHF  

 PROGRAMS   *        TOTAL  RCCSD(T)       RHF     MULTI       POP       RHF       INT
 CPU TIMES  *        37.06     20.54      0.10      2.22      0.00      1.30     12.78
 REAL TIME  *        52.32 SEC
 DISK USED  *       413.16 MB      
 **********************************************************************************************************************************
 SETTING POSTHF(I)      =       -58.08081367  AU                              
                                                                                                                                                                                                                                                                

        SCF            POSTHF        EKIN           POT
    -57.60711048   -58.08081367   25.80150019   -10.94698070
                                                  

 RCCSD(T)/USERDEF energy=    -58.080813670492

        RCCSD(T)        RHF-SCF         MULTI           RHF-SCF 
    -58.08081367    -57.60711048    -57.54913497    -57.60974274
 **********************************************************************************************************************************
 Variable memory released
