
 Primary working directories    : /global/cscratch1/sd/aannabe
 Secondary working directories  : /global/cscratch1/sd/aannabe
 Wavefunction directory         : /global/homes/a/aannabe/wfu/
 Main file repository           : /global/cscratch1/sd/aannabe/

 SHA1      : 19cd028119e0e09f93f0674bd8af7968d9b3eff6
 NAME      : 2015.1.36
 ARCHNAME  : linux/x86_64
 FC        : /opt/cray/pe/craype/2.5.14/bin/ftn
 BLASLIB   : -L/opt/intel/compilers_and_libraries_2018.1.163/linux/mkl/lib/intel64 -Wl,-_start-group -lmkl_intel_ilp64 -lmkl_intel_thread -lmkl_core -Wl,-_end-group -liomp5
 id        : lbl

 Nodes     nprocs
 nid00471     1

 Using customized tuning parameters: mindgm=7; mindgv=16; mindgc=1; mindgr=1; noblas=0; minvec=7
 default implementation of scratch files=df  

 ***,Kr
 memory,8,g
 gthresh,twoint=1.e-12
 
 gprint,basis,orbitals
 gexpec,ekin,pot
 
 angstrom
 geometry={
 1                                                                               ! Number of atoms
 Kr 0.0 0.0 0.0
 }
 
 basis={
 
 Including file /global/homes/a/aannabe/repos/pseudopotentiallibrary/recipes/Kr/ccECP/Kr.ccECP.molpro
 
                                   !include,/global/homes/a/aannabe/repos/pseudopotentiallibrary/recipes/Kr/ccECP/Kr.cc-pVTZ.molpro
                                  !include,/global/homes/a/aannabe/repos/pseudopotentiallibrary/recipes/Kr/ccECP/Kr.cc-pCVTZ.molpro
 Including file /global/homes/a/aannabe/repos/pseudopotentiallibrary/recipes/Kr/ccECP/Kr.aug-cc-pVTZ.molpro
 
 
 }
 
 {hf
 wf,8,1,0
 occ,1,1,1,0,1,0,0,0
                                                                                 !open,1.2
 closed,1,1,1,0,1,0,0,0
                                                                                 !sym,
 }
 scf(i)=energy
 
 _CC_NORM_MAX=2.0
 {uccsd(t)
 maxit,100
 core
 }
 posthf(i)=energy
 
 table,scf,posthf,ekin,pot
 save,3.csv,new
 
 

 Variables initialized (889), CPU time= 0.01 sec
 Commands  initialized (702), CPU time= 0.01 sec, 572 directives.
 Default parameters read. Elapsed time= 0.14 sec

 Checking input...
 Passed
1


                                         ***  PROGRAM SYSTEM MOLPRO  ***
                                       Copyright, TTI GmbH Stuttgart, 2015
                                    Version 2015.1 linked Dec 29 2018 15:55:43


 **********************************************************************************************************************************
 LABEL *   Kr                                                                            
  64 bit serial version                                                                  DATE: 25-Jun-19          TIME: 12:03:18  
 **********************************************************************************************************************************

 SHA1:             19cd028119e0e09f93f0674bd8af7968d9b3eff6
 **********************************************************************************************************************************

 THRESHOLDS:

 ZERO    =  1.00D-12  ONEINT  =  1.00D-12  TWOINT  =  1.00D-12  PREFAC  =  1.00D-14  LOCALI  =  1.00D-09  EORDER  =  1.00D-04
 ENERGY  =  0.00D+00  ETEST   =  0.00D+00  EDENS   =  0.00D+00  THRDEDEF=  1.00D-06  GRADIENT=  1.00D-02  STEP    =  1.00D-03
 ORBITAL =  1.00D-05  CIVEC   =  1.00D-05  COEFF   =  1.00D-04  PRINTCI =  5.00D-02  PUNCHCI =  9.90D+01  OPTGRAD =  3.00D-04
 OPTENERG=  1.00D-06  OPTSTEP =  3.00D-04  THRGRAD =  1.00D-10  COMPRESS=  1.00D-11  VARMIN  =  1.00D-07  VARMAX  =  1.00D-03
 THRDOUB =  0.00D+00  THRDIV  =  1.00D-05  THRRED  =  1.00D-07  THRPSP  =  1.00D+00  THRDC   =  1.00D-10  THRCS   =  1.00D-10
 THRNRM  =  1.00D-08  THREQ   =  0.00D+00  THRDE   =  1.00D+00  THRREF  =  1.00D-05  SPARFAC =  1.00D+00  THRDLP  =  1.00D-07
 THRDIA  =  1.00D-10  THRDLS  =  1.00D-07  THRGPS  =  0.00D+00  THRKEX  =  0.00D+00  THRDIS  =  2.00D-01  THRVAR  =  1.00D-10
 THRLOC  =  1.00D-06  THRGAP  =  1.00D-06  THRLOCT = -1.00D+00  THRGAPT = -1.00D+00  THRORB  =  1.00D-06  THRMLTP =  0.00D+00
 THRCPQCI=  1.00D-10  KEXTA   =  0.00D+00  THRCOARS=  0.00D+00  SYMTOL  =  1.00D-06  GRADTOL =  1.00D-06  THROVL  =  1.00D-08
 THRORTH =  1.00D-08  GRID    =  1.00D-06  GRIDMAX =  1.00D-03  DTMAX   =  0.00D+00  THROCCDE=  1.00D-01  THROCCDE=  1.00D-01



 ZUNIT=ANG
 

Geometry recognized as XYZ


 Variable memory set to 8000000000 words,  buffer space   230000 words

 SETTING BASIS          =    USERDEF


 Recomputing integrals since basis changed


 Using spherical harmonics



 PROGRAM * SEWARD (Integral evaluation for generally contracted gaussian basis sets)     Author: Roland Lindh, 1990

 Geometry written to block  1 of record 700

 Orientation using atomic masses  
 Molecule type: Atom
 Symmetry elements: X,Y,Z
 Rotational constants:       0.0000000      0.0000000      0.0000000 GHz  (calculated with average atomic masses)

 Point group  D2h 



 ATOMIC COORDINATES

 NR  ATOM    CHARGE       X              Y              Z

   1  KR      8.00    0.000000000    0.000000000    0.000000000


          KR  CORE POTENTIAL

          f POTENTIAL

 POWERS             1              3              2              2
 EXPONENTIALS   10.79424       13.32339       9.292050       20.14896    
 COEFFICIENTS   8.000000       86.35390      -11.11453       10.22952    

          s - f POTENTIAL

 POWERS             2              2
 EXPONENTIALS   5.490729       3.863012    
 COEFFICIENTS   92.88955       12.92948    

          p - f POTENTIAL

 POWERS             2              2
 EXPONENTIALS   4.038577       3.306789    
 COEFFICIENTS   43.09952       9.509760    

          d - f POTENTIAL

 POWERS             2              2
 EXPONENTIALS   4.213480       1.549897    
 COEFFICIENTS   17.80494       4.589115    


 BASIS DATA

   Nr Sym  Nuc  Type         Exponents   Contraction coefficients

    1.1 Ag    1  1s          59.995647    -0.000203
                             27.757709     0.001794
                             12.842438    -0.019252
                              5.941709     0.171194
                              2.749003    -0.477847
                              1.271859    -0.119686
                              0.588441     0.568434
                              0.272249     0.564028
                              0.125959     0.157608
    2.1 Ag    1  1s           1.799033     1.000000
    3.1 Ag    1  1s           0.340362     1.000000
    4.1 Ag    1  1s           0.136145     1.000000
    5.1 Ag    1  3d0          0.699202     1.000000
    6.1 Ag    1  3d2+         0.699202     1.000000
    7.1 Ag    1  3d0          0.284803     1.000000
    8.1 Ag    1  3d2+         0.284803     1.000000
    9.1 Ag    1  3d0          0.113921     1.000000
   10.1 Ag    1  3d2+         0.113921     1.000000
    1.2 B3u   1  2px         24.020781     0.000106
                             11.612963    -0.000892
                              5.614344     0.020380
                              2.714282    -0.155160
                              1.312233     0.057643
                              0.634405     0.355559
                              0.306706     0.426667
                              0.148279     0.271151
                              0.071686     0.067680
    2.2 B3u   1  2px          0.202260     1.000000
    3.2 B3u   1  2px          0.109890     1.000000
    4.2 B3u   1  2px          0.043956     1.000000
    5.2 B3u   1  4f1+         0.696837     1.000000
    6.2 B3u   1  4f3+         0.696837     1.000000
    7.2 B3u   1  4f1+         0.278735     1.000000
    8.2 B3u   1  4f3+         0.278735     1.000000
    1.3 B2u   1  2py         24.020781     0.000106
                             11.612963    -0.000892
                              5.614344     0.020380
                              2.714282    -0.155160
                              1.312233     0.057643
                              0.634405     0.355559
                              0.306706     0.426667
                              0.148279     0.271151
                              0.071686     0.067680
    2.3 B2u   1  2py          0.202260     1.000000
    3.3 B2u   1  2py          0.109890     1.000000
    4.3 B2u   1  2py          0.043956     1.000000
    5.3 B2u   1  4f1-         0.696837     1.000000
    6.3 B2u   1  4f3-         0.696837     1.000000
    7.3 B2u   1  4f1-         0.278735     1.000000
    8.3 B2u   1  4f3-         0.278735     1.000000
    1.4 B1g   1  3d2-         0.699202     1.000000
    2.4 B1g   1  3d2-         0.284803     1.000000
    3.4 B1g   1  3d2-         0.113921     1.000000
    1.5 B1u   1  2pz         24.020781     0.000106
                             11.612963    -0.000892
                              5.614344     0.020380
                              2.714282    -0.155160
                              1.312233     0.057643
                              0.634405     0.355559
                              0.306706     0.426667
                              0.148279     0.271151
                              0.071686     0.067680
    2.5 B1u   1  2pz          0.202260     1.000000
    3.5 B1u   1  2pz          0.109890     1.000000
    4.5 B1u   1  2pz          0.043956     1.000000
    5.5 B1u   1  4f0          0.696837     1.000000
    6.5 B1u   1  4f2+         0.696837     1.000000
    7.5 B1u   1  4f0          0.278735     1.000000
    8.5 B1u   1  4f2+         0.278735     1.000000
    1.6 B2g   1  3d1+         0.699202     1.000000
    2.6 B2g   1  3d1+         0.284803     1.000000
    3.6 B2g   1  3d1+         0.113921     1.000000
    1.7 B3g   1  3d1-         0.699202     1.000000
    2.7 B3g   1  3d1-         0.284803     1.000000
    3.7 B3g   1  3d1-         0.113921     1.000000
    1.8 Au    1  4f2-         0.696837     1.000000
    2.8 Au    1  4f2-         0.278735     1.000000

 NUCLEAR CHARGE:                    8
 NUMBER OF PRIMITIVE AOS:          86
 NUMBER OF SYMMETRY AOS:           77
 NUMBER OF CONTRACTIONS:           45   (  10Ag  +   8B3u +   8B2u +   3B1g +   8B1u +   3B2g +   3B3g +   2Au  )
 NUMBER OF CORE ORBITALS:           0   (   0Ag  +   0B3u +   0B2u +   0B1g +   0B1u +   0B2g +   0B3g +   0Au  )
 NUMBER OF VALENCE ORBITALS:        4   (   1Ag  +   1B3u +   1B2u +   0B1g +   1B1u +   0B2g +   0B3g +   0Au  )


 NUCLEAR REPULSION ENERGY    0.00000000

 EXTRA SYMMETRY OF AOS IN SYMMETRY 1:   1 1 1 1 2 3 2 3 2 3
 EXTRA SYMMETRY OF AOS IN SYMMETRY 2:   1 1 1 1 2 3 2 3
 EXTRA SYMMETRY OF AOS IN SYMMETRY 3:   1 1 1 1 2 3 2 3
 EXTRA SYMMETRY OF AOS IN SYMMETRY 5:   1 1 1 1 2 3 2 3

 Eigenvalues of metric

         1 0.201E-02 0.126E+00 0.131E+00 0.131E+00 0.721E+00 0.721E+00 0.766E+00 0.215E+01
         2 0.134E-01 0.103E+00 0.367E+00 0.367E+00 0.670E+00 0.163E+01 0.163E+01 0.321E+01
         3 0.134E-01 0.103E+00 0.367E+00 0.367E+00 0.670E+00 0.163E+01 0.163E+01 0.321E+01
         4 0.131E+00 0.721E+00 0.215E+01
         5 0.134E-01 0.103E+00 0.367E+00 0.367E+00 0.670E+00 0.163E+01 0.163E+01 0.321E+01
         6 0.131E+00 0.721E+00 0.215E+01
         7 0.131E+00 0.721E+00 0.215E+01
         8 0.367E+00 0.163E+01


 Contracted 2-electron integrals neglected if value below      1.0D-12
 AO integral compression algorithm  1   Integral accuracy      1.0D-12

     1.049 MB (compressed) written to integral file ( 96.7%)


 NUMBER OF SORTED TWO-ELECTRON INTEGRALS:      75808.     BUFFER LENGTH:  32768
 NUMBER OF SEGMENTS:   1  SEGMENT LENGTH:      75808      RECORD LENGTH: 524288

 Memory used in sort:       0.63 MW

 SORT1 READ      155797. AND WROTE       61548. INTEGRALS IN      1 RECORDS. CPU TIME:     0.00 SEC, REAL TIME:     0.01 SEC
 SORT2 READ       61548. AND WROTE       75808. INTEGRALS IN      4 RECORDS. CPU TIME:     0.01 SEC, REAL TIME:     0.03 SEC

 FILE SIZES:   FILE 1:    21.0 MBYTE,  FILE 4:     4.2 MBYTE,   TOTAL:     25.2 MBYTE

 OPERATOR DM      FOR CENTER  0  COORDINATES:    0.000000    0.000000    0.000000
 OPERATOR EKIN    FOR CENTER  0  COORDINATES:    0.000000    0.000000    0.000000
 OPERATOR POT     FOR CENTER  0  COORDINATES:    0.000000    0.000000    0.000000


 **********************************************************************************************************************************
 DATASETS  * FILE   NREC   LENGTH (MB)   RECORD NAMES
              1      20       20.40       500      610      700      900      950      970     1000      129      960     1100   
                                          VAR    BASINP    GEOM    SYMINP    ZMAT    AOBASIS   BASIS     P2S    ABASIS      S 
                                         1400     1410     1420     1200     1210     1080     1600     1650     1300     1700   
                                         EKIN       V       ECP      H0       H01     AOSYM     SMH    MOLCAS    ERIS     OPER   

 PROGRAMS   *        TOTAL       INT
 CPU TIMES  *         1.75      1.65
 REAL TIME  *        11.50 SEC
 DISK USED  *        25.47 MB      
 **********************************************************************************************************************************


 PROGRAM * RHF-SCF (CLOSED SHELL)       Authors: W. Meyer, H.-J. Werner


 NUMBER OF ELECTRONS:       4+    4-    SPACE SYMMETRY=1    SPIN SYMMETRY: Singlet 
 CONVERGENCE THRESHOLDS:    1.00E-05 (Density)    1.00E-07 (Energy)
 MAX. NUMBER OF ITERATIONS:       60
 INTERPOLATION TYPE:            DIIS
 INTERPOLATION STEPS:              2 (START)      1 (STEP)
 LEVEL SHIFTS:                  0.00 (CLOSED)  0.00 (OPEN) 

 Number of closed-shell orbitals:    4 (   1   1   1   0   1   0   0   0 )



   Atom=KR basis=ECP28MWB_GUESS    lmin=0  lmax=1

 Orbital guess generated from atomic densities. Full valence occupancy:    1   1   1   0   1   0   0   0


 Molecular orbital dump at record        2100.2

 ITERATION    DDIFF          GRAD             ENERGY        2-EL.EN.            DIPOLE MOMENTS         DIIS   ORB.
    1      0.000D+00      0.000D+00       -18.22803670     25.294732    0.00000    0.00000    0.00000    0    start
    2      0.000D+00      0.195D-02       -18.22806000     25.286164    0.00000    0.00000    0.00000    1    diag
    3      0.223D-02      0.138D-03       -18.22806064     25.286744    0.00000    0.00000    0.00000    2    diag
    4      0.300D-03      0.208D-04       -18.22806066     25.286496    0.00000    0.00000    0.00000    3    diag
    5      0.409D-04      0.235D-05       -18.22806066     25.286519    0.00000    0.00000    0.00000    4    diag
    6      0.497D-05      0.142D-06       -18.22806066     25.286517    0.00000    0.00000    0.00000    0    orth

 Final occupancy:   1   1   1   0   1   0   0   0

 !RHF STATE 1.1 Energy                -18.228060660774
 Nuclear energy                         0.00000000
 One-electron energy                  -30.87131897
 Two-electron energy                   12.64325831
 Virial quotient                       -2.96073591
 !RHF STATE 1.1 Dipole moment           0.00000000     0.00000000     0.00000000
 Dipole moment /Debye                   0.00000000     0.00000000     0.00000000
 

 !RHF expec          <1.1|EKIN|1.1>     6.156597951167
 
 !RHF expec           <1.1|POT|1.1>    -4.941074865030

 ELECTRON ORBITALS
 =================


   Orb  Occ    Energy  Couls-En    Coefficients

                                   1 1s      1 1s      1 1s      1 1s      1 3d0     1 3d2+    1 3d0     1 3d2+    1 3d0     1 3d2+ 


   1.1   2    -1.2174   -5.7007  0.999896 -0.000044  0.000147 -0.000023 -0.000000 -0.000000  0.000000  0.000000 -0.000000  0.000000

                                   1 2px     1 2px     1 2px     1 2px     1 4f1+    1 4f3+    1 4f1+    1 4f3+ 

   1.2   2    -0.5250   -4.1758  0.999565  0.001285 -0.001564  0.000983  0.000000  0.000000 -0.000000  0.000000

                                   1 2py     1 2py     1 2py     1 2py     1 4f1-    1 4f3-    1 4f1-    1 4f3- 

   1.3   2    -0.5250   -4.1758  0.999565  0.001285 -0.001564  0.000983  0.000000 -0.000000 -0.000000 -0.000000

                                   1 2pz     1 2pz     1 2pz     1 2pz     1 4f0     1 4f2+    1 4f0     1 4f2+ 

   1.5   2    -0.5250   -4.1758  0.999565  0.001285 -0.001564  0.000983  0.000000  0.000000  0.000000  0.000000

 HOMO      1.2    -0.525001 =     -14.2860eV
 LUMO      2.2     0.108643 =       2.9563eV
 LUMO-HOMO         0.633644 =      17.2423eV


 **********************************************************************************************************************************
 DATASETS  * FILE   NREC   LENGTH (MB)   RECORD NAMES
              1      20       20.40       500      610      700      900      950      970     1000      129      960     1100   
                                          VAR    BASINP    GEOM    SYMINP    ZMAT    AOBASIS   BASIS     P2S    ABASIS      S 
                                         1400     1410     1420     1200     1210     1080     1600     1650     1300     1700   
                                         EKIN       V       ECP      H0       H01     AOSYM     SMH    MOLCAS    ERIS     OPER   

              2       4        2.75       700     1000      520     2100   
                                         GEOM     BASIS   MCVARS     RHF  

 PROGRAMS   *        TOTAL        HF       INT
 CPU TIMES  *         1.80      0.05      1.65
 REAL TIME  *        11.66 SEC
 DISK USED  *        25.47 MB      
 **********************************************************************************************************************************
 SETTING SCF(I)         =       -18.22806066  AU                              
 SETTING _CC_NORM_MAX   =         2.00000000                                  


 PROGRAM * CCSD (Unrestricted open-shell coupled cluster)     Authors: C. Hampel, H.-J. Werner, 1991, M. Deegan, P.J. Knowles, 1992


 Convergence thresholds:  THRVAR = 1.00D-08  THRDEN = 1.00D-06

 CCSD(T)     terms to be evaluated (factor= 1.000)


 Number of closed-shell orbitals:   4 (   1   1   1   0   1   0   0   0 )
 Number of external orbitals:      41 (   9   7   7   3   7   3   3   2 )

 Memory could be reduced to 0.40 Mwords without degradation in triples

 Number of N-1 electron functions:               8
 Number of N-2 electron functions:              28
 Number of singly external CSFs:                60
 Number of doubly external CSFs:              4816
 Total number of CSFs:                        4876

 Molecular orbitals read from record     2100.2  Type=RHF/CANONICAL (state 1.1)

 Integral transformation finished. Total CPU:   0.01 sec, npass=  1  Memory used:   0.09 MW

 Starting RMP2 calculation

 ITER.      SQ.NORM     CORR.ENERGY   TOTAL ENERGY   ENERGY CHANGE        DEN1      VAR(S)    VAR(P)  DIIS     TIME
   1      1.06012916    -0.17848881   -18.40654947    -0.17848881    -0.00074671  0.32D-14  0.29D-03  1  1     0.01
   2      1.06082025    -0.17929303   -18.40735369    -0.00080422    -0.00000047  0.52D-16  0.21D-06  2  2     0.01
   3      1.06083110    -0.17929992   -18.40736058    -0.00000689    -0.00000000  0.81D-18  0.20D-09  3  3     0.01
   4      1.06083118    -0.17929994   -18.40736060    -0.00000002    -0.00000000  0.11D-19  0.20D-12  4  4     0.01

 Norm of t1 vector:      0.00000037      S-energy:    -0.00000000      T1 diagnostic:  0.00000009
 Norm of t2 vector:      0.24663979      P-energy:    -0.17929994
                                         Alpha-Beta:  -0.13528853
                                         Alpha-Alpha: -0.02200570
                                         Beta-Beta:   -0.02200570

 Spin contamination <S**2-Sz**2-Sz>     0.00000000
  Reference energy                    -18.228060660774
  RHF-RMP2 correlation energy          -0.179299936167
 !RHF-RMP2 energy                     -18.407360596940

 Starting UCCSD calculation

 ITER.      SQ.NORM     CORR.ENERGY   TOTAL ENERGY   ENERGY CHANGE        DEN1      VAR(S)    VAR(P)  DIIS     TIME
   1      1.06653740    -0.18865436   -18.41671502    -0.18865436    -0.00414630  0.39D-04  0.12D-02  1  1     0.01
   2      1.07031110    -0.19320924   -18.42126990    -0.00455488    -0.00006558  0.39D-05  0.21D-04  2  2     0.02
   3      1.07064215    -0.19341324   -18.42147390    -0.00020400    -0.00000226  0.31D-06  0.71D-06  3  3     0.02
   4      1.07071865    -0.19345151   -18.42151217    -0.00003827    -0.00000007  0.21D-07  0.17D-07  4  4     0.03
   5      1.07072471    -0.19345237   -18.42151303    -0.00000086    -0.00000000  0.24D-08  0.68D-09  5  5     0.04

 Norm of t1 vector:      0.00888304      S-energy:    -0.00000000      T1 diagnostic:  0.00222076
                                                                       D1 diagnostic:  0.00538623
 Norm of t2 vector:      0.26579278      P-energy:    -0.19345237
                                         Alpha-Beta:  -0.15103874
                                         Alpha-Alpha: -0.02120682
                                         Beta-Beta:   -0.02120682

 Spin contamination <S**2-Sz**2-Sz>     0.00000000

 Memory could be reduced to 0.41 Mwords without degradation in triples
 

 RESULTS
 =======

  Reference energy                    -18.228060660774
  UCCSD singles energy                 -0.000000001319
  UCCSD pair energy                    -0.193452368103
  UCCSD correlation energy             -0.193452369423
  Triples (T) contribution             -0.006241325384
  Total correlation energy             -0.199693694807
 
  RHF-UCCSD energy                    -18.421513030197
  RHF-UCCSD[T] energy                 -18.427762457090
  RHF-UCCSD-T energy                  -18.427754205436
 !RHF-UCCSD(T) energy                 -18.427754355581

 Program statistics:

 Available memory in ccsd:              7999999732
 Min. memory needed in ccsd:                 21986
 Max. memory used in ccsd:                   26878
 Max. memory used in cckext:                 56468 ( 5 integral passes)
 Max. memory used in cckint:                 85458 ( 1 integral passes)



 **********************************************************************************************************************************
 DATASETS  * FILE   NREC   LENGTH (MB)   RECORD NAMES
              1      20       20.40       500      610      700      900      950      970     1000      129      960     1100   
                                          VAR    BASINP    GEOM    SYMINP    ZMAT    AOBASIS   BASIS     P2S    ABASIS      S 
                                         1400     1410     1420     1200     1210     1080     1600     1650     1300     1700   
                                         EKIN       V       ECP      H0       H01     AOSYM     SMH    MOLCAS    ERIS     OPER   

              2       4        2.75       700     1000      520     2100   
                                         GEOM     BASIS   MCVARS     RHF  

 PROGRAMS   *        TOTAL  UCCSD(T)        HF       INT
 CPU TIMES  *         1.88      0.08      0.05      1.65
 REAL TIME  *        12.52 SEC
 DISK USED  *        25.47 MB      
 **********************************************************************************************************************************
 SETTING POSTHF(I)      =       -18.42775436  AU                              
                                                                                                                                                                                                                                                                

        SCF            POSTHF       EKIN          POT
    -18.22806066   -18.42775436   6.15659795   -4.94107487
                                                  

 UCCSD(T)/USERDEF energy=    -18.427754355581

        UCCSD(T)        HF-SCF  
    -18.42775436    -18.22806066
 **********************************************************************************************************************************
 Molpro calculation terminated
 Variable memory released
