
 Primary working directories    : /global/cscratch1/sd/aannabe
 Secondary working directories  : /global/cscratch1/sd/aannabe
 Wavefunction directory         : /global/homes/a/aannabe/wfu/
 Main file repository           : /global/cscratch1/sd/aannabe/

 SHA1      : 19cd028119e0e09f93f0674bd8af7968d9b3eff6
 NAME      : 2015.1.36
 ARCHNAME  : linux/x86_64
 FC        : /opt/cray/pe/craype/2.5.14/bin/ftn
 BLASLIB   : -L/opt/intel/compilers_and_libraries_2018.1.163/linux/mkl/lib/intel64 -Wl,-_start-group -lmkl_intel_ilp64 -lmkl_intel_thread -lmkl_core -Wl,-_end-group -liomp5
 id        : lbl

 Nodes     nprocs
 nid00471     1

 Using customized tuning parameters: mindgm=7; mindgv=16; mindgc=1; mindgr=1; noblas=0; minvec=7
 default implementation of scratch files=df  

 ***,Kr
 memory,8,g
 gthresh,twoint=1.e-12
 
 gprint,basis,orbitals
 gexpec,ekin,pot
 
 angstrom
 geometry={
 1                                                                               ! Number of atoms
 Kr 0.0 0.0 0.0
 }
 
 basis={
 
 Including file /global/homes/a/aannabe/repos/pseudopotentiallibrary/recipes/Kr/ccECP/Kr.ccECP.molpro
 
                                   !include,/global/homes/a/aannabe/repos/pseudopotentiallibrary/recipes/Kr/ccECP/Kr.cc-pV6Z.molpro
                                  !include,/global/homes/a/aannabe/repos/pseudopotentiallibrary/recipes/Kr/ccECP/Kr.cc-pCV6Z.molpro
 Including file /global/homes/a/aannabe/repos/pseudopotentiallibrary/recipes/Kr/ccECP/Kr.aug-cc-pV6Z.molpro
 
 
 }
 
 {hf
 wf,8,1,0
 occ,1,1,1,0,1,0,0,0
                                                                                 !open,1.2
 closed,1,1,1,0,1,0,0,0
                                                                                 !sym,
 }
 scf(i)=energy
 
 _CC_NORM_MAX=2.0
 {uccsd(t)
 maxit,100
 core
 }
 posthf(i)=energy
 
 table,scf,posthf,ekin,pot
 save,6.csv,new
 
 

 Variables initialized (889), CPU time= 0.00 sec
 Commands  initialized (702), CPU time= 0.01 sec, 572 directives.
 Default parameters read. Elapsed time= 0.20 sec

 Checking input...
 Passed
1


                                         ***  PROGRAM SYSTEM MOLPRO  ***
                                       Copyright, TTI GmbH Stuttgart, 2015
                                    Version 2015.1 linked Dec 29 2018 15:55:43


 **********************************************************************************************************************************
 LABEL *   Kr                                                                            
  64 bit serial version                                                                  DATE: 25-Jun-19          TIME: 12:04:43  
 **********************************************************************************************************************************

 SHA1:             19cd028119e0e09f93f0674bd8af7968d9b3eff6
 **********************************************************************************************************************************

 THRESHOLDS:

 ZERO    =  1.00D-12  ONEINT  =  1.00D-12  TWOINT  =  1.00D-12  PREFAC  =  1.00D-14  LOCALI  =  1.00D-09  EORDER  =  1.00D-04
 ENERGY  =  0.00D+00  ETEST   =  0.00D+00  EDENS   =  0.00D+00  THRDEDEF=  1.00D-06  GRADIENT=  1.00D-02  STEP    =  1.00D-03
 ORBITAL =  1.00D-05  CIVEC   =  1.00D-05  COEFF   =  1.00D-04  PRINTCI =  5.00D-02  PUNCHCI =  9.90D+01  OPTGRAD =  3.00D-04
 OPTENERG=  1.00D-06  OPTSTEP =  3.00D-04  THRGRAD =  1.00D-10  COMPRESS=  1.00D-11  VARMIN  =  1.00D-07  VARMAX  =  1.00D-03
 THRDOUB =  0.00D+00  THRDIV  =  1.00D-05  THRRED  =  1.00D-07  THRPSP  =  1.00D+00  THRDC   =  1.00D-10  THRCS   =  1.00D-10
 THRNRM  =  1.00D-08  THREQ   =  0.00D+00  THRDE   =  1.00D+00  THRREF  =  1.00D-05  SPARFAC =  1.00D+00  THRDLP  =  1.00D-07
 THRDIA  =  1.00D-10  THRDLS  =  1.00D-07  THRGPS  =  0.00D+00  THRKEX  =  0.00D+00  THRDIS  =  2.00D-01  THRVAR  =  1.00D-10
 THRLOC  =  1.00D-06  THRGAP  =  1.00D-06  THRLOCT = -1.00D+00  THRGAPT = -1.00D+00  THRORB  =  1.00D-06  THRMLTP =  0.00D+00
 THRCPQCI=  1.00D-10  KEXTA   =  0.00D+00  THRCOARS=  0.00D+00  SYMTOL  =  1.00D-06  GRADTOL =  1.00D-06  THROVL  =  1.00D-08
 THRORTH =  1.00D-08  GRID    =  1.00D-06  GRIDMAX =  1.00D-03  DTMAX   =  0.00D+00  THROCCDE=  1.00D-01  THROCCDE=  1.00D-01



 ZUNIT=ANG
 

Geometry recognized as XYZ


 Variable memory set to 8000000000 words,  buffer space   230000 words

 SETTING BASIS          =    USERDEF


 Recomputing integrals since basis changed


 Using spherical harmonics



 PROGRAM * SEWARD (Integral evaluation for generally contracted gaussian basis sets)     Author: Roland Lindh, 1990

 Geometry written to block  1 of record 700

 Orientation using atomic masses  
 Molecule type: Atom
 Symmetry elements: X,Y,Z
 Rotational constants:       0.0000000      0.0000000      0.0000000 GHz  (calculated with average atomic masses)

 Point group  D2h 



 ATOMIC COORDINATES

 NR  ATOM    CHARGE       X              Y              Z

   1  KR      8.00    0.000000000    0.000000000    0.000000000


          KR  CORE POTENTIAL

          f POTENTIAL

 POWERS             1              3              2              2
 EXPONENTIALS   10.79424       13.32339       9.292050       20.14896    
 COEFFICIENTS   8.000000       86.35390      -11.11453       10.22952    

          s - f POTENTIAL

 POWERS             2              2
 EXPONENTIALS   5.490729       3.863012    
 COEFFICIENTS   92.88955       12.92948    

          p - f POTENTIAL

 POWERS             2              2
 EXPONENTIALS   4.038577       3.306789    
 COEFFICIENTS   43.09952       9.509760    

          d - f POTENTIAL

 POWERS             2              2
 EXPONENTIALS   4.213480       1.549897    
 COEFFICIENTS   17.80494       4.589115    


 BASIS DATA

   Nr Sym  Nuc  Type         Exponents   Contraction coefficients

    1.1 Ag    1  1s          59.995647    -0.000203
                             27.757709     0.001794
                             12.842438    -0.019252
                              5.941709     0.171194
                              2.749003    -0.477847
                              1.271859    -0.119686
                              0.588441     0.568434
                              0.272249     0.564028
                              0.125959     0.157608
    2.1 Ag    1  1s           2.854275     1.000000
    3.1 Ag    1  1s           1.367584     1.000000
    4.1 Ag    1  1s           0.655258     1.000000
    5.1 Ag    1  1s           0.313957     1.000000
    6.1 Ag    1  1s           0.150428     1.000000
    7.1 Ag    1  1s           0.060171     1.000000
    8.1 Ag    1  3d0          2.655815     1.000000
    9.1 Ag    1  3d2+         2.655815     1.000000
   10.1 Ag    1  3d0          1.383402     1.000000
   11.1 Ag    1  3d2+         1.383402     1.000000
   12.1 Ag    1  3d0          0.720608     1.000000
   13.1 Ag    1  3d2+         0.720608     1.000000
   14.1 Ag    1  3d0          0.375361     1.000000
   15.1 Ag    1  3d2+         0.375361     1.000000
   16.1 Ag    1  3d0          0.195524     1.000000
   17.1 Ag    1  3d2+         0.195524     1.000000
   18.1 Ag    1  3d0          0.078210     1.000000
   19.1 Ag    1  3d2+         0.078210     1.000000
   20.1 Ag    1  5g0          1.492619     1.000000
   21.1 Ag    1  5g4+         1.492619     1.000000
   22.1 Ag    1  5g2+         1.492619     1.000000
   23.1 Ag    1  5g0          0.798099     1.000000
   24.1 Ag    1  5g4+         0.798099     1.000000
   25.1 Ag    1  5g2+         0.798099     1.000000
   26.1 Ag    1  5g0          0.426741     1.000000
   27.1 Ag    1  5g4+         0.426741     1.000000
   28.1 Ag    1  5g2+         0.426741     1.000000
   29.1 Ag    1  5g0          0.170696     1.000000
   30.1 Ag    1  5g4+         0.170696     1.000000
   31.1 Ag    1  5g2+         0.170696     1.000000
   32.1 Ag    1  7i6+         1.151272     1.000000
   33.1 Ag    1  7i4+         1.151272     1.000000
   34.1 Ag    1  7i2+         1.151272     1.000000
   35.1 Ag    1  7i0          1.151272     1.000000
   36.1 Ag    1  7i6+         0.460509     1.000000
   37.1 Ag    1  7i4+         0.460509     1.000000
   38.1 Ag    1  7i2+         0.460509     1.000000
   39.1 Ag    1  7i0          0.460509     1.000000
    1.2 B3u   1  2px         24.020781     0.000106
                             11.612963    -0.000892
                              5.614344     0.020380
                              2.714282    -0.155160
                              1.312233     0.057643
                              0.634405     0.355559
                              0.306706     0.426667
                              0.148279     0.271151
                              0.071686     0.067680
    2.2 B3u   1  2px          1.618432     1.000000
    3.2 B3u   1  2px          0.788474     1.000000
    4.2 B3u   1  2px          0.384132     1.000000
    5.2 B3u   1  2px          0.187143     1.000000
    6.2 B3u   1  2px          0.091173     1.000000
    7.2 B3u   1  2px          0.036469     1.000000
    8.2 B3u   1  4f1+         1.488809     1.000000
    9.2 B3u   1  4f3+         1.488809     1.000000
   10.2 B3u   1  4f1+         0.882209     1.000000
   11.2 B3u   1  4f3+         0.882209     1.000000
   12.2 B3u   1  4f1+         0.522762     1.000000
   13.2 B3u   1  4f3+         0.522762     1.000000
   14.2 B3u   1  4f1+         0.309768     1.000000
   15.2 B3u   1  4f3+         0.309768     1.000000
   16.2 B3u   1  4f1+         0.123907     1.000000
   17.2 B3u   1  4f3+         0.123907     1.000000
   18.2 B3u   1  6h1+         1.384461     1.000000
   19.2 B3u   1  6h3+         1.384461     1.000000
   20.2 B3u   1  6h5+         1.384461     1.000000
   21.2 B3u   1  6h1+         0.690627     1.000000
   22.2 B3u   1  6h3+         0.690627     1.000000
   23.2 B3u   1  6h5+         0.690627     1.000000
   24.2 B3u   1  6h1+         0.276251     1.000000
   25.2 B3u   1  6h3+         0.276251     1.000000
   26.2 B3u   1  6h5+         0.276251     1.000000
    1.3 B2u   1  2py         24.020781     0.000106
                             11.612963    -0.000892
                              5.614344     0.020380
                              2.714282    -0.155160
                              1.312233     0.057643
                              0.634405     0.355559
                              0.306706     0.426667
                              0.148279     0.271151
                              0.071686     0.067680
    2.3 B2u   1  2py          1.618432     1.000000
    3.3 B2u   1  2py          0.788474     1.000000
    4.3 B2u   1  2py          0.384132     1.000000
    5.3 B2u   1  2py          0.187143     1.000000
    6.3 B2u   1  2py          0.091173     1.000000
    7.3 B2u   1  2py          0.036469     1.000000
    8.3 B2u   1  4f1-         1.488809     1.000000
    9.3 B2u   1  4f3-         1.488809     1.000000
   10.3 B2u   1  4f1-         0.882209     1.000000
   11.3 B2u   1  4f3-         0.882209     1.000000
   12.3 B2u   1  4f1-         0.522762     1.000000
   13.3 B2u   1  4f3-         0.522762     1.000000
   14.3 B2u   1  4f1-         0.309768     1.000000
   15.3 B2u   1  4f3-         0.309768     1.000000
   16.3 B2u   1  4f1-         0.123907     1.000000
   17.3 B2u   1  4f3-         0.123907     1.000000
   18.3 B2u   1  6h1-         1.384461     1.000000
   19.3 B2u   1  6h3-         1.384461     1.000000
   20.3 B2u   1  6h5-         1.384461     1.000000
   21.3 B2u   1  6h1-         0.690627     1.000000
   22.3 B2u   1  6h3-         0.690627     1.000000
   23.3 B2u   1  6h5-         0.690627     1.000000
   24.3 B2u   1  6h1-         0.276251     1.000000
   25.3 B2u   1  6h3-         0.276251     1.000000
   26.3 B2u   1  6h5-         0.276251     1.000000
    1.4 B1g   1  3d2-         2.655815     1.000000
    2.4 B1g   1  3d2-         1.383402     1.000000
    3.4 B1g   1  3d2-         0.720608     1.000000
    4.4 B1g   1  3d2-         0.375361     1.000000
    5.4 B1g   1  3d2-         0.195524     1.000000
    6.4 B1g   1  3d2-         0.078210     1.000000
    7.4 B1g   1  5g2-         1.492619     1.000000
    8.4 B1g   1  5g4-         1.492619     1.000000
    9.4 B1g   1  5g2-         0.798099     1.000000
   10.4 B1g   1  5g4-         0.798099     1.000000
   11.4 B1g   1  5g2-         0.426741     1.000000
   12.4 B1g   1  5g4-         0.426741     1.000000
   13.4 B1g   1  5g2-         0.170696     1.000000
   14.4 B1g   1  5g4-         0.170696     1.000000
   15.4 B1g   1  7i2-         1.151272     1.000000
   16.4 B1g   1  7i6-         1.151272     1.000000
   17.4 B1g   1  7i4-         1.151272     1.000000
   18.4 B1g   1  7i2-         0.460509     1.000000
   19.4 B1g   1  7i6-         0.460509     1.000000
   20.4 B1g   1  7i4-         0.460509     1.000000
    1.5 B1u   1  2pz         24.020781     0.000106
                             11.612963    -0.000892
                              5.614344     0.020380
                              2.714282    -0.155160
                              1.312233     0.057643
                              0.634405     0.355559
                              0.306706     0.426667
                              0.148279     0.271151
                              0.071686     0.067680
    2.5 B1u   1  2pz          1.618432     1.000000
    3.5 B1u   1  2pz          0.788474     1.000000
    4.5 B1u   1  2pz          0.384132     1.000000
    5.5 B1u   1  2pz          0.187143     1.000000
    6.5 B1u   1  2pz          0.091173     1.000000
    7.5 B1u   1  2pz          0.036469     1.000000
    8.5 B1u   1  4f0          1.488809     1.000000
    9.5 B1u   1  4f2+         1.488809     1.000000
   10.5 B1u   1  4f0          0.882209     1.000000
   11.5 B1u   1  4f2+         0.882209     1.000000
   12.5 B1u   1  4f0          0.522762     1.000000
   13.5 B1u   1  4f2+         0.522762     1.000000
   14.5 B1u   1  4f0          0.309768     1.000000
   15.5 B1u   1  4f2+         0.309768     1.000000
   16.5 B1u   1  4f0          0.123907     1.000000
   17.5 B1u   1  4f2+         0.123907     1.000000
   18.5 B1u   1  6h2+         1.384461     1.000000
   19.5 B1u   1  6h4+         1.384461     1.000000
   20.5 B1u   1  6h0          1.384461     1.000000
   21.5 B1u   1  6h2+         0.690627     1.000000
   22.5 B1u   1  6h4+         0.690627     1.000000
   23.5 B1u   1  6h0          0.690627     1.000000
   24.5 B1u   1  6h2+         0.276251     1.000000
   25.5 B1u   1  6h4+         0.276251     1.000000
   26.5 B1u   1  6h0          0.276251     1.000000
    1.6 B2g   1  3d1+         2.655815     1.000000
    2.6 B2g   1  3d1+         1.383402     1.000000
    3.6 B2g   1  3d1+         0.720608     1.000000
    4.6 B2g   1  3d1+         0.375361     1.000000
    5.6 B2g   1  3d1+         0.195524     1.000000
    6.6 B2g   1  3d1+         0.078210     1.000000
    7.6 B2g   1  5g1+         1.492619     1.000000
    8.6 B2g   1  5g3+         1.492619     1.000000
    9.6 B2g   1  5g1+         0.798099     1.000000
   10.6 B2g   1  5g3+         0.798099     1.000000
   11.6 B2g   1  5g1+         0.426741     1.000000
   12.6 B2g   1  5g3+         0.426741     1.000000
   13.6 B2g   1  5g1+         0.170696     1.000000
   14.6 B2g   1  5g3+         0.170696     1.000000
   15.6 B2g   1  7i5+         1.151272     1.000000
   16.6 B2g   1  7i3+         1.151272     1.000000
   17.6 B2g   1  7i1+         1.151272     1.000000
   18.6 B2g   1  7i5+         0.460509     1.000000
   19.6 B2g   1  7i3+         0.460509     1.000000
   20.6 B2g   1  7i1+         0.460509     1.000000
    1.7 B3g   1  3d1-         2.655815     1.000000
    2.7 B3g   1  3d1-         1.383402     1.000000
    3.7 B3g   1  3d1-         0.720608     1.000000
    4.7 B3g   1  3d1-         0.375361     1.000000
    5.7 B3g   1  3d1-         0.195524     1.000000
    6.7 B3g   1  3d1-         0.078210     1.000000
    7.7 B3g   1  5g1-         1.492619     1.000000
    8.7 B3g   1  5g3-         1.492619     1.000000
    9.7 B3g   1  5g1-         0.798099     1.000000
   10.7 B3g   1  5g3-         0.798099     1.000000
   11.7 B3g   1  5g1-         0.426741     1.000000
   12.7 B3g   1  5g3-         0.426741     1.000000
   13.7 B3g   1  5g1-         0.170696     1.000000
   14.7 B3g   1  5g3-         0.170696     1.000000
   15.7 B3g   1  7i5-         1.151272     1.000000
   16.7 B3g   1  7i3-         1.151272     1.000000
   17.7 B3g   1  7i1-         1.151272     1.000000
   18.7 B3g   1  7i5-         0.460509     1.000000
   19.7 B3g   1  7i3-         0.460509     1.000000
   20.7 B3g   1  7i1-         0.460509     1.000000
    1.8 Au    1  4f2-         1.488809     1.000000
    2.8 Au    1  4f2-         0.882209     1.000000
    3.8 Au    1  4f2-         0.522762     1.000000
    4.8 Au    1  4f2-         0.309768     1.000000
    5.8 Au    1  4f2-         0.123907     1.000000
    6.8 Au    1  6h4-         1.384461     1.000000
    7.8 Au    1  6h2-         1.384461     1.000000
    8.8 Au    1  6h4-         0.690627     1.000000
    9.8 Au    1  6h2-         0.690627     1.000000
   10.8 Au    1  6h4-         0.276251     1.000000
   11.8 Au    1  6h2-         0.276251     1.000000

 NUCLEAR CHARGE:                    8
 NUMBER OF PRIMITIVE AOS:         325
 NUMBER OF SYMMETRY AOS:          220
 NUMBER OF CONTRACTIONS:          188   (  39Ag  +  26B3u +  26B2u +  20B1g +  26B1u +  20B2g +  20B3g +  11Au  )
 NUMBER OF CORE ORBITALS:           0   (   0Ag  +   0B3u +   0B2u +   0B1g +   0B1u +   0B2g +   0B3g +   0Au  )
 NUMBER OF VALENCE ORBITALS:        4   (   1Ag  +   1B3u +   1B2u +   0B1g +   1B1u +   0B2g +   0B3g +   0Au  )


 NUCLEAR REPULSION ENERGY    0.00000000

 EXTRA SYMMETRY OF AOS IN SYMMETRY 1:   1 1 1 1 1 1 1 2 3 2   3 2 3 2 3 2 3 2 3 4   5 6 4 5 6 4 5 6 4 5   6 7 8 910 7 8 910
 EXTRA SYMMETRY OF AOS IN SYMMETRY 2:   1 1 1 1 1 1 1 2 3 2   3 2 3 2 3 2 3 4 5 6   4 5 6 4 5 6
 EXTRA SYMMETRY OF AOS IN SYMMETRY 3:   1 1 1 1 1 1 1 2 3 2   3 2 3 2 3 2 3 4 5 6   4 5 6 4 5 6
 EXTRA SYMMETRY OF AOS IN SYMMETRY 4:   1 1 1 1 1 1 2 3 2 3   2 3 2 3 4 5 6 4 5 6
 EXTRA SYMMETRY OF AOS IN SYMMETRY 5:   1 1 1 1 1 1 1 2 3 2   3 2 3 2 3 2 3 4 5 6   4 5 6 4 5 6
 EXTRA SYMMETRY OF AOS IN SYMMETRY 6:   1 1 1 1 1 1 2 3 2 3   2 3 2 3 4 5 6 4 5 6
 EXTRA SYMMETRY OF AOS IN SYMMETRY 7:   1 1 1 1 1 1 2 3 2 3   2 3 2 3 4 5 6 4 5 6
 EXTRA SYMMETRY OF AOS IN SYMMETRY 8:   1 1 1 1 1 2 3 2 3 2   3

 Eigenvalues of metric

         1 0.339E-03 0.198E-02 0.682E-02 0.682E-02 0.157E-01 0.481E-01 0.481E-01 0.581E-01
         2 0.271E-03 0.524E-02 0.717E-02 0.717E-02 0.354E-01 0.850E-01 0.850E-01 0.174E+00
         3 0.271E-03 0.524E-02 0.717E-02 0.717E-02 0.354E-01 0.850E-01 0.850E-01 0.174E+00
         4 0.682E-02 0.481E-01 0.581E-01 0.581E-01 0.223E+00 0.392E+00 0.392E+00 0.533E+00
         5 0.271E-03 0.524E-02 0.717E-02 0.717E-02 0.354E-01 0.850E-01 0.850E-01 0.174E+00
         6 0.682E-02 0.481E-01 0.581E-01 0.581E-01 0.223E+00 0.392E+00 0.392E+00 0.533E+00
         7 0.682E-02 0.481E-01 0.581E-01 0.581E-01 0.223E+00 0.392E+00 0.392E+00 0.533E+00
         8 0.717E-02 0.850E-01 0.212E+00 0.212E+00 0.468E+00 0.858E+00 0.858E+00 0.127E+01


 Contracted 2-electron integrals neglected if value below      1.0D-12
 AO integral compression algorithm  1   Integral accuracy      1.0D-12

     123.470 MB (compressed) written to integral file ( 48.8%)


 NUMBER OF SORTED TWO-ELECTRON INTEGRALS:   20212815.     BUFFER LENGTH:  32768
 NUMBER OF SEGMENTS:   2  SEGMENT LENGTH:   15998787      RECORD LENGTH: 524288

 Memory used in sort:      16.56 MW

 SORT1 READ    31710950. AND WROTE    13213985. INTEGRALS IN     39 RECORDS. CPU TIME:     0.83 SEC, REAL TIME:     1.12 SEC
 SORT2 READ    13213985. AND WROTE    20212815. INTEGRALS IN    471 RECORDS. CPU TIME:     0.54 SEC, REAL TIME:     0.95 SEC

 FILE SIZES:   FILE 1:   144.2 MBYTE,  FILE 4:   163.6 MBYTE,   TOTAL:    307.8 MBYTE

 OPERATOR DM      FOR CENTER  0  COORDINATES:    0.000000    0.000000    0.000000
 OPERATOR EKIN    FOR CENTER  0  COORDINATES:    0.000000    0.000000    0.000000
 OPERATOR POT     FOR CENTER  0  COORDINATES:    0.000000    0.000000    0.000000


 **********************************************************************************************************************************
 DATASETS  * FILE   NREC   LENGTH (MB)   RECORD NAMES
              1      20      100.26       500      610      700      900      950      970     1000      129      960     1100   
                                          VAR    BASINP    GEOM    SYMINP    ZMAT    AOBASIS   BASIS     P2S    ABASIS      S 
                                         1400     1410     1420     1200     1210     1080     1600     1650     1300     1700   
                                         EKIN       V       ECP      H0       H01     AOSYM     SMH    MOLCAS    ERIS     OPER   

 PROGRAMS   *        TOTAL       INT
 CPU TIMES  *         7.00      6.90
 REAL TIME  *        18.25 SEC
 DISK USED  *       308.12 MB      
 **********************************************************************************************************************************


 PROGRAM * RHF-SCF (CLOSED SHELL)       Authors: W. Meyer, H.-J. Werner


 NUMBER OF ELECTRONS:       4+    4-    SPACE SYMMETRY=1    SPIN SYMMETRY: Singlet 
 CONVERGENCE THRESHOLDS:    1.00E-05 (Density)    1.00E-07 (Energy)
 MAX. NUMBER OF ITERATIONS:       60
 INTERPOLATION TYPE:            DIIS
 INTERPOLATION STEPS:              2 (START)      1 (STEP)
 LEVEL SHIFTS:                  0.00 (CLOSED)  0.00 (OPEN) 

 Number of closed-shell orbitals:    4 (   1   1   1   0   1   0   0   0 )



   Atom=KR basis=ECP28MWB_GUESS    lmin=0  lmax=1

 Orbital guess generated from atomic densities. Full valence occupancy:    1   1   1   0   1   0   0   0


 Molecular orbital dump at record        2100.2

 ITERATION    DDIFF          GRAD             ENERGY        2-EL.EN.            DIPOLE MOMENTS         DIIS   ORB.
    1      0.000D+00      0.000D+00       -18.22802021     25.281939    0.00000    0.00000    0.00000    0    start
    2      0.000D+00      0.137D-02       -18.22806234     25.286361    0.00000    0.00000    0.00000    1    diag
    3      0.949D-03      0.878D-04       -18.22806313     25.286327    0.00000    0.00000    0.00000    2    diag
    4      0.114D-03      0.112D-04       -18.22806315     25.286331    0.00000    0.00000    0.00000    3    diag
    5      0.113D-04      0.585D-06       -18.22806315     25.286305    0.00000    0.00000    0.00000    4    diag
    6      0.684D-06      0.921D-07       -18.22806315     25.286306    0.00000    0.00000    0.00000    0    orth

 Final occupancy:   1   1   1   0   1   0   0   0

 !RHF STATE 1.1 Energy                -18.228063150692
 Nuclear energy                         0.00000000
 One-electron energy                  -30.87121631
 Two-electron energy                   12.64315316
 Virial quotient                       -2.96063386
 !RHF STATE 1.1 Dipole moment           0.00000000     0.00000000     0.00000000
 Dipole moment /Debye                   0.00000000     0.00000000     0.00000000
 

 !RHF expec          <1.1|EKIN|1.1>     6.156811005554
 
 !RHF expec           <1.1|POT|1.1>    -4.941051622370

 ELECTRON ORBITALS
 =================


   Orb  Occ    Energy  Couls-En    Coefficients

                                   1 1s      1 1s      1 1s      1 1s      1 1s      1 1s      1 1s      1 3d0     1 3d2+    1 3d0  
                                   1 3d2+    1 3d0     1 3d2+    1 3d0     1 3d2+    1 3d0     1 3d2+    1 3d0     1 3d2+    1 5g0  
                                   1 5g4+    1 5g2+    1 5g0     1 5g4+    1 5g2+    1 5g0     1 5g4+    1 5g2+    1 5g0     1 5g4+ 
                                   1 5g2+    1 7i6+    1 7i4+    1 7i2+    1 7i0     1 7i6+    1 7i4+    1 7i2+    1 7i0  

   1.1   2    -1.2174   -5.7007  1.000375 -0.000121  0.000929 -0.002120  0.002972 -0.003287  0.001544 -0.000000 -0.000000  0.000000
                                 0.000000 -0.000000 -0.000000  0.000000  0.000000 -0.000000  0.000000 -0.000000 -0.000000 -0.000000
                                 0.000000 -0.000000  0.000000 -0.000000  0.000000 -0.000000  0.000000  0.000000  0.000000 -0.000000
                                -0.000000  0.000000  0.000000 -0.000000  0.000000 -0.000000  0.000000  0.000000 -0.000000

                                   1 2px     1 2px     1 2px     1 2px     1 2px     1 2px     1 2px     1 4f1+    1 4f3+    1 4f1+ 
                                   1 4f3+    1 4f1+    1 4f3+    1 4f1+    1 4f3+    1 4f1+    1 4f3+    1 6h1+    1 6h3+    1 6h5+ 
                                   1 6h1+    1 6h3+    1 6h5+    1 6h1+    1 6h3+    1 6h5+ 

   1.2   2    -0.5250   -4.1758  0.995918 -0.001305  0.003173 -0.001291  0.005167 -0.002849  0.001755 -0.000000 -0.000000  0.000000
                                 0.000000 -0.000000 -0.000000  0.000000  0.000000 -0.000000 -0.000000  0.000000 -0.000000 -0.000000
                                -0.000000 -0.000000  0.000000  0.000000  0.000000 -0.000000

                                   1 2py     1 2py     1 2py     1 2py     1 2py     1 2py     1 2py     1 4f1-    1 4f3-    1 4f1- 
                                   1 4f3-    1 4f1-    1 4f3-    1 4f1-    1 4f3-    1 4f1-    1 4f3-    1 6h1-    1 6h3-    1 6h5- 
                                   1 6h1-    1 6h3-    1 6h5-    1 6h1-    1 6h3-    1 6h5- 

   1.3   2    -0.5250   -4.1758  0.995918 -0.001305  0.003173 -0.001291  0.005167 -0.002849  0.001755 -0.000000  0.000000  0.000000
                                -0.000000 -0.000000  0.000000  0.000000 -0.000000 -0.000000  0.000000  0.000000 -0.000000 -0.000000
                                -0.000000  0.000000  0.000000  0.000000 -0.000000 -0.000000

                                   1 2pz     1 2pz     1 2pz     1 2pz     1 2pz     1 2pz     1 2pz     1 4f0     1 4f2+    1 4f0  
                                   1 4f2+    1 4f0     1 4f2+    1 4f0     1 4f2+    1 4f0     1 4f2+    1 6h2+    1 6h4+    1 6h0  
                                   1 6h2+    1 6h4+    1 6h0     1 6h2+    1 6h4+    1 6h0  

   1.5   2    -0.5250   -4.1758  0.995918 -0.001305  0.003173 -0.001291  0.005167 -0.002849  0.001755 -0.000000  0.000000  0.000000
                                -0.000000 -0.000000  0.000000  0.000000 -0.000000 -0.000000  0.000000 -0.000000 -0.000000  0.000000
                                 0.000000  0.000000 -0.000000 -0.000000 -0.000000  0.000000

 HOMO      1.2    -0.525015 =     -14.2864eV
 LUMO      2.2     0.085849 =       2.3361eV
 LUMO-HOMO         0.610864 =      16.6225eV


 **********************************************************************************************************************************
 DATASETS  * FILE   NREC   LENGTH (MB)   RECORD NAMES
              1      20      100.26       500      610      700      900      950      970     1000      129      960     1100   
                                          VAR    BASINP    GEOM    SYMINP    ZMAT    AOBASIS   BASIS     P2S    ABASIS      S 
                                         1400     1410     1420     1200     1210     1080     1600     1650     1300     1700   
                                         EKIN       V       ECP      H0       H01     AOSYM     SMH    MOLCAS    ERIS     OPER   

              2       4        2.88       700     1000      520     2100   
                                         GEOM     BASIS   MCVARS     RHF  

 PROGRAMS   *        TOTAL        HF       INT
 CPU TIMES  *         7.37      0.36      6.90
 REAL TIME  *        18.77 SEC
 DISK USED  *       308.12 MB      
 **********************************************************************************************************************************
 SETTING SCF(I)         =       -18.22806315  AU                              
 SETTING _CC_NORM_MAX   =         2.00000000                                  


 PROGRAM * CCSD (Unrestricted open-shell coupled cluster)     Authors: C. Hampel, H.-J. Werner, 1991, M. Deegan, P.J. Knowles, 1992


 Convergence thresholds:  THRVAR = 1.00D-08  THRDEN = 1.00D-06

 CCSD(T)     terms to be evaluated (factor= 1.000)


 Number of closed-shell orbitals:   4 (   1   1   1   0   1   0   0   0 )
 Number of external orbitals:     184 (  38  25  25  20  25  20  20  11 )

 Memory could be reduced to 8.78 Mwords without degradation in triples

 Number of N-1 electron functions:               8
 Number of N-2 electron functions:              28
 Number of singly external CSFs:               226
 Number of doubly external CSFs:             94700
 Total number of CSFs:                       94926

 Molecular orbitals read from record     2100.2  Type=RHF/CANONICAL (state 1.1)

 Integral transformation finished. Total CPU:   0.18 sec, npass=  1  Memory used:   1.35 MW

 Starting RMP2 calculation

 ITER.      SQ.NORM     CORR.ENERGY   TOTAL ENERGY   ENERGY CHANGE        DEN1      VAR(S)    VAR(P)  DIIS     TIME
   1      1.06619252    -0.22112631   -18.44918946    -0.22112631    -0.00078636  0.20D-14  0.30D-03  1  1     0.19
   2      1.06690047    -0.22197029   -18.45003344    -0.00084398    -0.00000056  0.36D-16  0.25D-06  2  2     0.20
   3      1.06691341    -0.22197887   -18.45004202    -0.00000857    -0.00000000  0.63D-18  0.30D-09  3  3     0.20
   4      1.06691352    -0.22197889   -18.45004204    -0.00000002    -0.00000000  0.10D-19  0.47D-12  4  4     0.21

 Norm of t1 vector:      0.00000029      S-energy:    -0.00000000      T1 diagnostic:  0.00000007
 Norm of t2 vector:      0.25867649      P-energy:    -0.22197889
                                         Alpha-Beta:  -0.17410196
                                         Alpha-Alpha: -0.02393846
                                         Beta-Beta:   -0.02393846

 Spin contamination <S**2-Sz**2-Sz>     0.00000000
  Reference energy                    -18.228063150692
  RHF-RMP2 correlation energy          -0.221978887286
 !RHF-RMP2 energy                     -18.450042037978

 Starting UCCSD calculation

 ITER.      SQ.NORM     CORR.ENERGY   TOTAL ENERGY   ENERGY CHANGE        DEN1      VAR(S)    VAR(P)  DIIS     TIME
   1      1.07062329    -0.22725392   -18.45531707    -0.22725392    -0.00418087  0.14D-03  0.10D-02  1  1     0.51
   2      1.07433076    -0.23178668   -18.45984983    -0.00453276    -0.00009306  0.10D-05  0.26D-04  2  2     0.82
   3      1.07472780    -0.23210442   -18.46016757    -0.00031773    -0.00000413  0.11D-07  0.13D-05  3  3     1.12
   4      1.07479712    -0.23214108   -18.46020423    -0.00003666    -0.00000016  0.14D-08  0.59D-07  4  4     1.42
   5      1.07481131    -0.23214804   -18.46021119    -0.00000697    -0.00000000  0.47D-09  0.12D-08  5  5     1.72
   6      1.07481241    -0.23214814   -18.46021129    -0.00000009    -0.00000000  0.11D-10  0.58D-10  6  6     2.02

 Norm of t1 vector:      0.01353631      S-energy:     0.00000000      T1 diagnostic:  0.00338408
                                                                       D1 diagnostic:  0.00730767
 Norm of t2 vector:      0.27318342      P-energy:    -0.23214814
                                         Alpha-Beta:  -0.18631318
                                         Alpha-Alpha: -0.02291748
                                         Beta-Beta:   -0.02291748

 Spin contamination <S**2-Sz**2-Sz>     0.00000000

 Memory could be reduced to 8.75 Mwords without degradation in triples
 

 RESULTS
 =======

  Reference energy                    -18.228063150692
  UCCSD singles energy                  0.000000000589
  UCCSD pair energy                    -0.232148139143
  UCCSD correlation energy             -0.232148138554
  Triples (T) contribution             -0.008456768279
  Total correlation energy             -0.240604906833
 
  RHF-UCCSD energy                    -18.460211289247
  RHF-UCCSD[T] energy                 -18.468684484499
  RHF-UCCSD-T energy                  -18.468682034773
 !RHF-UCCSD(T) energy                 -18.468668057526

 Program statistics:

 Available memory in ccsd:              7999999732
 Min. memory needed in ccsd:                382615
 Max. memory used in ccsd:                  483843
 Max. memory used in cckext:                414333 ( 6 integral passes)
 Max. memory used in cckint:               1348636 ( 1 integral passes)



 **********************************************************************************************************************************
 DATASETS  * FILE   NREC   LENGTH (MB)   RECORD NAMES
              1      20      100.26       500      610      700      900      950      970     1000      129      960     1100   
                                          VAR    BASINP    GEOM    SYMINP    ZMAT    AOBASIS   BASIS     P2S    ABASIS      S 
                                         1400     1410     1420     1200     1210     1080     1600     1650     1300     1700   
                                         EKIN       V       ECP      H0       H01     AOSYM     SMH    MOLCAS    ERIS     OPER   

              2       4        2.88       700     1000      520     2100   
                                         GEOM     BASIS   MCVARS     RHF  

 PROGRAMS   *        TOTAL  UCCSD(T)        HF       INT
 CPU TIMES  *        10.84      3.47      0.36      6.90
 REAL TIME  *        24.58 SEC
 DISK USED  *       308.12 MB      
 **********************************************************************************************************************************
 SETTING POSTHF(I)      =       -18.46866806  AU                              
                                                                                                                                                                                                                                                                

        SCF            POSTHF       EKIN          POT
    -18.22806315   -18.46866806   6.15681101   -4.94105162
                                                  

 UCCSD(T)/USERDEF energy=    -18.468668057526

        UCCSD(T)        HF-SCF  
    -18.46866806    -18.22806315
 **********************************************************************************************************************************
 Molpro calculation terminated
 Variable memory released
