----- GAMESS execution script 'rungms' -----
This job is running on host login4.stampede2.tacc.utexas.edu
under operating system Linux at Thu Feb 21 12:10:49 CST 2019
Available scratch disk space (Kbyte units) at beginning of the job is
Filesystem     1K-blocks   Used Available Use% Mounted on
/dev/md2        73411824 737780  68938188   2% /tmp
GAMESS temporary binary files will be written to /tmp
GAMESS supplementary output files will be written to /work/04843/aannabe/stampede2/docs/accurate/qwalk/K/TZ
Copying input file K.inp to your run's scratch directory...

 Distributed Data Interface kickoff program.
 Initiating 1 compute processes on 1 nodes to run the following command:
 /work/04843/aannabe/stampede2/codes/gamess-mcb/gamess/gamess.00.x K 

          ******************************************************
          *         GAMESS VERSION =  1 MAY 2013 (R1)          *
          *             FROM IOWA STATE UNIVERSITY             *
          * M.W.SCHMIDT, K.K.BALDRIDGE, J.A.BOATZ, S.T.ELBERT, *
          *   M.S.GORDON, J.H.JENSEN, S.KOSEKI, N.MATSUNAGA,   *
          *          K.A.NGUYEN, S.J.SU, T.L.WINDUS,           *
          *       TOGETHER WITH M.DUPUIS, J.A.MONTGOMERY       *
          *         J.COMPUT.CHEM.  14, 1347-1363(1993)        *
          **************** 64 BIT INTEL VERSION ****************

  SINCE 1993, STUDENTS AND POSTDOCS WORKING AT IOWA STATE UNIVERSITY
  AND ALSO IN THEIR VARIOUS JOBS AFTER LEAVING ISU HAVE MADE IMPORTANT
  CONTRIBUTIONS TO THE CODE:
     IVANA ADAMOVIC, CHRISTINE AIKENS, YURI ALEXEEV, POOJA ARORA,
     ANDREY ASADCHEV, ROB BELL, PRADIPTA BANDYOPADHYAY, JONATHAN BENTZ,
     BRETT BODE, GALINA CHABAN, WEI CHEN, CHEOL HO CHOI, PAUL DAY,
     ALBERT DEFUSCO, TIM DUDLEY, DMITRI FEDOROV, GRAHAM FLETCHER,
     MARK FREITAG, KURT GLAESEMANN, DAN KEMP, GRANT MERRILL,
     NORIYUKI MINEZAWA, JONATHAN MULLIN, TAKESHI NAGATA,
     SEAN NEDD, HEATHER NETZLOFF, BOSILJKA NJEGIC, RYAN OLSON, MIKE PAK,
     JIM SHOEMAKER, LYUDMILA SLIPCHENKO, SAROM SOK, JIE SONG,
     TETSUYA TAKETSUGU, SIMON WEBB, SOOHAENG YOO, FEDERICO ZAHARIEV

  ADDITIONAL CODE HAS BEEN PROVIDED BY COLLABORATORS IN OTHER GROUPS:
     IOWA STATE UNIVERSITY:
          JOE IVANIC, LAIMUTIS BYTAUTAS, KLAUS RUEDENBERG
     UNIVERSITY OF TOKYO: KIMIHIKO HIRAO, TAKAHITO NAKAJIMA,
          TAKAO TSUNEDA, MUNEAKI KAMIYA, SUSUMU YANAGISAWA,
          KIYOSHI YAGI, MAHITO CHIBA, SEIKEN TOKURA, NAOAKI KAWAKAMI
     UNIVERSITY OF AARHUS: FRANK JENSEN
     UNIVERSITY OF IOWA: VISVALDAS KAIRYS, HUI LI
     NATIONAL INST. OF STANDARDS AND TECHNOLOGY: WALT STEVENS, DAVID GARMER
     UNIVERSITY OF PISA: BENEDETTA MENNUCCI, JACOPO TOMASI
     UNIVERSITY OF MEMPHIS: HENRY KURTZ, PRAKASHAN KORAMBATH
     UNIVERSITY OF ALBERTA: TOBY ZENG, MARIUSZ KLOBUKOWSKI
     UNIVERSITY OF NEW ENGLAND: MARK SPACKMAN
     MIE UNIVERSITY: HIROAKI UMEDA
     MICHIGAN STATE UNIVERSITY:
          KAROL KOWALSKI, MARTA WLOCH, JEFFREY GOUR, JESSE LUTZ,
          WEI LI, PIOTR PIECUCH
     UNIVERSITY OF SILESIA: MONIKA MUSIAL, STANISLAW KUCHARSKI
     FACULTES UNIVERSITAIRES NOTRE-DAME DE LA PAIX:
          OLIVIER QUINET, BENOIT CHAMPAGNE
     UNIVERSITY OF CALIFORNIA - SANTA BARBARA: BERNARD KIRTMAN
     INSTITUTE FOR MOLECULAR SCIENCE:
          KAZUYA ISHIMURA, MICHIO KATOUDA, AND SHIGERU NAGASE
     UNIVERSITY OF NOTRE DAME: DAN CHIPMAN
     KYUSHU UNIVERSITY:
          HARUYUKI NAKANO,
          FENG LONG GU, JACEK KORCHOWIEC, MARCIN MAKOWSKI, AND YURIKO AOKI,
          HIROTOSHI MORI AND EISAKU MIYOSHI
     PENNSYLVANIA STATE UNIVERSITY:
          TZVETELIN IORDANOV, CHET SWALINA, JONATHAN SKONE,
          SHARON HAMMES-SCHIFFER
     WASEDA UNIVERSITY:
          MASATO KOBAYASHI, TOMOKO AKAMA, TSUGUKI TOUMA,
          TAKESHI YOSHIKAWA, YASUHIRO IKABATA, HIROMI NAKAI
     NANJING UNIVERSITY: SHUHUA LI
     UNIVERSITY OF NEBRASKA:
          PEIFENG SU, DEJUN SI, NANDUN THELLAMUREGE, YALI WANG, HUI LI
     UNIVERSITY OF ZURICH:
          ROBERTO PEVERATI, KIM BALDRIDGE
     N. COPERNICUS UNIVERSITY AND JACKSON STATE UNIVERSITY:
          MARIA BARYSZ

 EXECUTION OF GAMESS BEGUN Thu Feb 21 12:10:49 2019

            ECHO OF THE FIRST FEW INPUT CARDS -
 INPUT CARD> $CONTRL                                                                        
 INPUT CARD>     SCFTYP=ROHF                                                                
 INPUT CARD>     MULT=2                                                                     
 INPUT CARD>     ICHARG=0                                                                   
 INPUT CARD>     RUNTYP=ENERGY                                                              
 INPUT CARD>     MAXIT=150                                                                  
 INPUT CARD>     ECP=READ                                                                   
 INPUT CARD>     ISPHER=1                                                                   
 INPUT CARD> $END                                                                           
 INPUT CARD>                                                                                
 INPUT CARD> $SYSTEM                                                                        
 INPUT CARD>     KDIAG=3                                                                    
 INPUT CARD> $END                                                                           
 INPUT CARD>                                                                                
 INPUT CARD> $GUESS                                                                         
 INPUT CARD>    GUESS=HUCKEL                                                                
 INPUT CARD> $END                                                                           
 INPUT CARD>                                                                                
 INPUT CARD>                                                                                
 INPUT CARD> $DATA                                                                          
 INPUT CARD>                                                                                
 INPUT CARD>Dnh, 2                                                                          
 INPUT CARD>                                                                                
 INPUT CARD>K 19    0. 0. 0.                                                                
 INPUT CARD>S  13                                                                           
 INPUT CARD>  1      33.190598  0.00093460                                                  
 INPUT CARD>  2      17.266513  -0.01746080                                                 
 INPUT CARD>  3       8.982438  0.15299840                                                  
 INPUT CARD>  4       4.672871  -0.34050680                                                 
 INPUT CARD>  5       2.430935  -0.22863440                                                 
 INPUT CARD>  6       1.264628  0.22672980                                                  
 INPUT CARD>  7       0.657889  0.54910420                                                  
 INPUT CARD>  8       0.342249  0.42310450                                                  
 INPUT CARD>  9       0.178046  0.09104080                                                  
 INPUT CARD> 10       0.092623  0.00345520                                                  
 INPUT CARD> 11       0.048185  -0.00028370                                                 
 INPUT CARD> 12       0.025067  0.00055460                                                  
 INPUT CARD> 13       0.013040  0.00000310                                                  
 INPUT CARD>S  13                                                                           
 INPUT CARD>  1      33.190598  -0.00013550                                                 
 INPUT CARD>  2      17.266513  0.00327580                                                  
 INPUT CARD>  3       8.982438  -0.03127550                                                 
 INPUT CARD>  4       4.672871  0.07304500                                                  
 INPUT CARD>  5       2.430935  0.04905170                                                  
 INPUT CARD>  6       1.264628  -0.05320270                                                 
 INPUT CARD>  7       0.657889  -0.13678160                                                 
 INPUT CARD>  8       0.342249  -0.16629980                                                 
 INPUT CARD>  9       0.178046  -0.15469740                                                 
 INPUT CARD> 10       0.092623  0.00178980                                                  
 INPUT CARD> 11       0.048185  0.40887000                                                  
    1000000 WORDS OF MEMORY AVAILABLE


     RUN TITLE
     ---------
                                                                                 

 THE POINT GROUP OF THE MOLECULE IS DNH     
 THE ORDER OF THE PRINCIPAL AXIS IS     2
 *** WARNING! ATOM   1 SHELL    2 TYPE S HAS NORMALIZATION   1.00000129
 *** WARNING! ATOM   1 SHELL    5 TYPE D HAS NORMALIZATION   1.00000180

 ATOM      ATOMIC                      COORDINATES (BOHR)
           CHARGE         X                   Y                   Z
 K          19.0     0.0000000000        0.0000000000        0.0000000000

          INTERNUCLEAR DISTANCES (ANGS.)
          ------------------------------

                1 K     

   1 K       0.0000000  

  * ... LESS THAN  3.000


     ATOMIC BASIS SET
     ----------------
 THE CONTRACTED PRIMITIVE FUNCTIONS HAVE BEEN UNNORMALIZED
 THE CONTRACTED BASIS FUNCTIONS ARE NOW NORMALIZED TO UNITY

  SHELL TYPE  PRIMITIVE        EXPONENT          CONTRACTION COEFFICIENT(S)

 K         

      1   S       1            33.1905980    0.000934599924
      1   S       2            17.2665130   -0.017460798578
      1   S       3             8.9824380    0.152998387541
      1   S       4             4.6728710   -0.340506772272
      1   S       5             2.4309350   -0.228634381382
      1   S       6             1.2646280    0.226729781537
      1   S       7             0.6578890    0.549104155285
      1   S       8             0.3422490    0.423104465545
      1   S       9             0.1780460    0.091040792586
      1   S      10             0.0926230    0.003455199719
      1   S      11             0.0481850   -0.000283699977
      1   S      12             0.0250670    0.000554599955
      1   S      13             0.0130400    0.000003100000

      2   S      14            33.1905980   -0.000135500175
      2   S      15            17.2665130    0.003275804229
      2   S      16             8.9824380   -0.031275540375
      2   S      17             4.6728710    0.073045094297
      2   S      18             2.4309350    0.049051763323
      2   S      19             1.2646280   -0.053202768682
      2   S      20             0.6578890   -0.136781776577
      2   S      21             0.3422490   -0.166300014684
      2   S      22             0.1780460   -0.154697599706
      2   S      23             0.0926230    0.001789802311
      2   S      24             0.0481850    0.408870527828
      2   S      25             0.0250670    0.567152232161
      2   S      26             0.0130400    0.184207837802

      3   P      27            25.9559830    0.000053100007
      3   P      28            12.8635270    0.003597400482
      3   P      29             6.3750360   -0.040585805438
      3   P      30             3.1594050   -0.042207605655
      3   P      31             1.5657700    0.209657728090
      3   P      32             0.7759800    0.395094552934
      3   P      33             0.3845680    0.375043650248
      3   P      34             0.1905880    0.156824821011
      3   P      35             0.0944530    0.019669402635
      3   P      36             0.0468100    0.001253800168
      3   P      37             0.0231990    0.000290500039
      3   P      38             0.0114970   -0.000009800001

      4   P      39            25.9559830   -0.000011299997
      4   P      40            12.8635270   -0.000501299864
      4   P      41             6.3750360    0.006010798373
      4   P      42             3.1594050    0.005705498456
      4   P      43             1.5657700   -0.032889791099
      4   P      44             0.7759800   -0.059125184000
      4   P      45             0.3845680   -0.067980281603
      4   P      46             0.1905880   -0.048525286868
      4   P      47             0.0944530    0.021827994093
      4   P      48             0.0468100    0.278276424694
      4   P      49             0.0231990    0.486404268371
      4   P      50             0.0114970    0.318327113856

      5   D      51            25.0028280    0.000028600051
      5   D      52            10.9597750   -0.000301900543
      5   D      53             4.8041240    0.004829808689
      5   D      54             2.1058460    0.014022025226
      5   D      55             0.9230800    0.025891446580
      5   D      56             0.4046240    0.036054464864
      5   D      57             0.1773640    0.048627387483
      5   D      58             0.0777460    0.102429684276
      5   D      59             0.0340790    0.281140605785
      5   D      60             0.0149380    0.512389921813
      5   D      61             0.0065480    0.252656554541

      6   S      62             0.0507430    1.000000000000

      7   S      63             0.0286520    1.000000000000

      8   S      64             0.0145670    1.000000000000

      9   P      65             0.0581280    1.000000000000

     10   P      66             0.0255060    1.000000000000

     11   P      67             0.0111680    1.000000000000

     12   D      68             0.0629840    1.000000000000

     13   D      69             0.0178740    1.000000000000

     14   F      70             0.0909980    1.000000000000

     15   S      71             0.5257940    1.000000000000

     16   S      72             0.8264250    1.000000000000

     17   S      73             1.2989470    1.000000000000

     18   P      74             0.2844270    1.000000000000

     19   P      75             0.6887840    1.000000000000

     20   P      76             1.6679960    1.000000000000

     21   D      77             0.5960050    1.000000000000

     22   D      78             1.8071100    1.000000000000

     23   F      79             1.1773640    1.000000000000

 TOTAL NUMBER OF BASIS SET SHELLS             =   23
 NUMBER OF CARTESIAN GAUSSIAN BASIS FUNCTIONS =   82
 NOTE: THIS RUN WILL RESTRICT THE MO VARIATION SPACE TO SPHERICAL HARMONICS.
 THE NUMBER OF ORBITALS KEPT IN THE VARIATIONAL SPACE WILL BE PRINTED LATER.
 NUMBER OF ELECTRONS                          =   19
 CHARGE OF MOLECULE                           =    0
 SPIN MULTIPLICITY                            =    2
 NUMBER OF OCCUPIED ORBITALS (ALPHA)          =   10
 NUMBER OF OCCUPIED ORBITALS (BETA )          =    9
 TOTAL NUMBER OF ATOMS                        =    1
 THE NUCLEAR REPULSION ENERGY IS        0.0000000000
 NOTE THIS RUN IS USING CORE POTENTIALS, AND THE NUMBER OF ELECTRONS,
 OCCUPIED ORBITALS, AND NUCLEAR REPULSION ENERGY WILL BE ADJUSTED BELOW
 AFTER REMOVAL OF THE CORE CHARGES.

 THIS MOLECULE IS RECOGNIZED AS BEING LINEAR,
 ORBITAL LZ DEGENERACY TOLERANCE ETOLLZ= 1.00E-06

     $CONTRL OPTIONS
     ---------------
 SCFTYP=ROHF         RUNTYP=ENERGY       EXETYP=RUN     
 MPLEVL=       0     CITYP =NONE         CCTYP =NONE         VBTYP =NONE    
 DFTTYP=NONE         TDDFT =NONE    
 MULT  =       2     ICHARG=       0     NZVAR =       0     COORD =UNIQUE  
 PP    =READ         RELWFN=NONE         LOCAL =NONE         NUMGRD=       F
 ISPHER=       1     NOSYM =       0     MAXIT =     150     UNITS =ANGS    
 PLTORB=       F     MOLPLT=       F     AIMPAC=       F     FRIEND=        
 NPRINT=       7     IREST =       0     GEOM  =INPUT   
 NORMF =       0     NORMP =       0     ITOL  =      20     ICUT  =       9
 INTTYP=BEST         GRDTYP=BEST         QMTTOL= 1.0E-06

     $SYSTEM OPTIONS
     ---------------
  REPLICATED MEMORY=     1000000 WORDS (ON EVERY NODE).
 DISTRIBUTED MEMDDI=           0 MILLION WORDS IN AGGREGATE,
 MEMDDI DISTRIBUTED OVER   1 PROCESSORS IS           0 WORDS/PROCESSOR.
 TOTAL MEMORY REQUESTED ON EACH PROCESSOR=     1000000 WORDS.
 TIMLIM=      525600.00 MINUTES, OR     365.0 DAYS.
 PARALL= F  BALTYP=  DLB     KDIAG=    3  COREFL= F
 MXSEQ2=     300 MXSEQ3=     150

          --------------
          ECP POTENTIALS
          --------------

 PARAMETERS FOR "K-CCECP " ON ATOM    1 WITH ZCORE  10 AND LMAX  2 ARE
 FOR L= 2      COEFF    N           ZETA
    1        9.00000    1        7.27386
    2       65.46477    3       11.17298
    3      -10.84434    2        7.70618
    4      -15.96316    2        5.62492
 FOR L= 0      COEFF    N           ZETA
    1       11.86687    2       11.44251
    2       90.07677    2        6.53712
 FOR L= 1      COEFF    N           ZETA
    1       11.53420    2        9.63122
    2       27.72024    2        4.50881

 THE ECP RUN REMOVES   10 CORE ELECTRONS, AND THE SAME NUMBER OF PROTONS.
 NUMBER OF ELECTRONS KEPT IN THE CALCULATION IS =    9
 NUMBER OF OCCUPIED ORBITALS (ALPHA) KEPT IS    =    5
 NUMBER OF OCCUPIED ORBITALS (BETA ) KEPT IS    =    4
 THE ADJUSTED NUCLEAR REPULSION ENERGY=        0.0000000000
          ECP ANGULAR INTS.........     0.00 SECONDS

          ----------------
          PROPERTIES INPUT
          ----------------

     MOMENTS            FIELD           POTENTIAL          DENSITY
 IEMOM =       1   IEFLD =       0   IEPOT =       0   IEDEN =       0
 WHERE =COMASS     WHERE =NUCLEI     WHERE =NUCLEI     WHERE =NUCLEI  
 OUTPUT=BOTH       OUTPUT=BOTH       OUTPUT=BOTH       OUTPUT=BOTH    
 IEMINT=       0   IEFINT=       0                     IEDINT=       0
                                                       MORB  =       0
          EXTRAPOLATION IN EFFECT
          SOSCF IN EFFECT
 ORBITAL PRINTING OPTION: NPREO=     1    82     2     1

     -------------------------------
     INTEGRAL TRANSFORMATION OPTIONS
     -------------------------------
     NWORD  =            0
     CUTOFF = 1.0E-09     MPTRAN =       0
     DIRTRF =       F     AOINTS =DUP     

          ----------------------
          INTEGRAL INPUT OPTIONS
          ----------------------
 NOPK  =       1 NORDER=       0 SCHWRZ=       F

     ------------------------------------------
     THE POINT GROUP IS DNH, NAXIS= 2, ORDER= 8
     ------------------------------------------

 -- VARIATIONAL SPACE WILL BE RESTRICTED TO PURE SPHERICAL HARMONICS ONLY --
 AFTER EXCLUDING CONTAMINANT COMBINATIONS FROM THE CARTESIAN GAUSSIAN BASIS
 SET, THE NUMBER OF SPHERICAL HARMONICS KEPT IN THE VARIATION SPACE IS   71

     DIMENSIONS OF THE SYMMETRY SUBSPACES ARE
 AG  =   18     AU  =    2     B3U =   12     B3G =    5     B1G =    5
 B1U =   12     B2U =   12     B2G =    5

 ..... DONE SETTING UP THE RUN .....
 STEP CPU TIME =     0.02 TOTAL CPU TIME =        0.0 (    0.0 MIN)
 TOTAL WALL CLOCK TIME=        0.2 SECONDS, CPU UTILIZATION IS  12.50%

          ********************
          1 ELECTRON INTEGRALS
          ********************
 TIME TO DO ORDINARY INTEGRALS=      0.00
 TIME TO DO      ECP INTEGRALS=      0.00
 ...... END OF ONE-ELECTRON INTEGRALS ......
 STEP CPU TIME =     0.00 TOTAL CPU TIME =        0.0 (    0.0 MIN)
 TOTAL WALL CLOCK TIME=        0.4 SECONDS, CPU UTILIZATION IS   5.41%

          -------------
          GUESS OPTIONS
          -------------
          GUESS =HUCKEL            NORB  =       0          NORDER=       0
          MIX   =       F          PRTMO =       F          PUNMO =       F
          TOLZ  = 1.0E-08          TOLE  = 1.0E-05
          SYMDEN=       F          PURIFY=       F

 INITIAL GUESS ORBITALS GENERATED BY HUCKEL   ROUTINE.
 HUCKEL GUESS REQUIRES     50072 WORDS.

 STATISTICS FOR GENERATION OF SYMMETRY ORBITAL -Q- MATRIX
 NUMBER OF CARTESIAN ATOMIC ORBITALS=         82
 NUMBER OF SPHERICAL CONTAMINANTS DROPPED=    11
 NUMBER OF LINEARLY DEPENDENT MOS DROPPED=     0
 TOTAL NUMBER OF MOS IN VARIATION SPACE=      71

 SYMMETRIES FOR INITIAL GUESS ORBITALS FOLLOW.  ALPHA SET(S).
     5 ORBITALS ARE OCCUPIED (    4 CORE ORBITALS).
     5=AG       6=AG       7=AG       8=AG       9=AG      10=AG      11=AG  
    12=AG      13=AG      14=AG      15=AG  

 SYMMETRIES FOR INITIAL GUESS ORBITALS FOLLOW.   BETA SET(S).
     4 ORBITALS ARE OCCUPIED (    4 CORE ORBITALS).
     5=AG       6=AG       7=AG       8=AG       9=AG      10=AG      11=AG  
    12=AG      13=AG      14=AG  
 ...... END OF INITIAL ORBITAL SELECTION ......
 STEP CPU TIME =     0.01 TOTAL CPU TIME =        0.0 (    0.0 MIN)
 TOTAL WALL CLOCK TIME=        0.4 SECONDS, CPU UTILIZATION IS   7.32%

                    ----------------------
                    AO INTEGRAL TECHNOLOGY
                    ----------------------
     S,P,L SHELL ROTATED AXIS INTEGRALS, REPROGRAMMED BY
        KAZUYA ISHIMURA (IMS) AND JOSE SIERRA (SYNSTAR).
     S,P,D,L SHELL ROTATED AXIS INTEGRALS PROGRAMMED BY
        KAZUYA ISHIMURA (INSTITUTE FOR MOLECULAR SCIENCE).
     S,P,D,F,G SHELL TO TOTAL QUARTET ANGULAR MOMENTUM SUM 5,
        ERIC PROGRAM BY GRAHAM FLETCHER (ELORET AND NASA ADVANCED
        SUPERCOMPUTING DIVISION, AMES RESEARCH CENTER).
     S,P,D,F,G,L SHELL GENERAL RYS QUADRATURE PROGRAMMED BY
        MICHEL DUPUIS (PACIFIC NORTHWEST NATIONAL LABORATORY).

          --------------------
          2 ELECTRON INTEGRALS
          --------------------

 THE -PK- OPTION IS OFF, THE INTEGRALS ARE NOT IN SUPERMATRIX FORM.
 STORING   15000 INTEGRALS/RECORD ON DISK, USING 12 BYTES/INTEGRAL.
 TWO ELECTRON INTEGRAL EVALUATION REQUIRES   99376 WORDS OF MEMORY.
 II,JST,KST,LST =  1  1  1  1 NREC =         1 INTLOC =    1
 II,JST,KST,LST =  2  1  1  1 NREC =         1 INTLOC =    2
 II,JST,KST,LST =  3  1  1  1 NREC =         1 INTLOC =    7
 II,JST,KST,LST =  4  1  1  1 NREC =         1 INTLOC =   34
 II,JST,KST,LST =  5  1  1  1 NREC =         1 INTLOC =  139
 II,JST,KST,LST =  6  1  1  1 NREC =         1 INTLOC =  880
 II,JST,KST,LST =  7  1  1  1 NREC =         1 INTLOC = 1189
 II,JST,KST,LST =  8  1  1  1 NREC =         1 INTLOC = 1589
 II,JST,KST,LST =  9  1  1  1 NREC =         1 INTLOC = 2101
 II,JST,KST,LST = 10  1  1  1 NREC =         1 INTLOC = 3607
 II,JST,KST,LST = 11  1  1  1 NREC =         1 INTLOC = 5929
 II,JST,KST,LST = 12  1  1  1 NREC =         1 INTLOC = 9301
 II,JST,KST,LST = 13  1  1  1 NREC =         2 INTLOC = 5254
 II,JST,KST,LST = 14  1  1  1 NREC =         3 INTLOC = 9160
 II,JST,KST,LST = 15  1  1  1 NREC =         7 INTLOC = 3746
 II,JST,KST,LST = 16  1  1  1 NREC =         7 INTLOC =12578
 II,JST,KST,LST = 17  1  1  1 NREC =         8 INTLOC = 7118
 II,JST,KST,LST = 18  1  1  1 NREC =         9 INTLOC = 2414
 II,JST,KST,LST = 19  1  1  1 NREC =        11 INTLOC = 2570
 II,JST,KST,LST = 20  1  1  1 NREC =        13 INTLOC = 8120
 II,JST,KST,LST = 21  1  1  1 NREC =        16 INTLOC = 4694
 II,JST,KST,LST = 22  1  1  1 NREC =        23 INTLOC = 3011
 II,JST,KST,LST = 23  1  1  1 NREC =        32 INTLOC = 3299
 TOTAL NUMBER OF NONZERO TWO-ELECTRON INTEGRALS =              771550
         52 INTEGRAL RECORDS WERE STORED ON DISK FILE  8.
  ...... END OF TWO-ELECTRON INTEGRALS .....
 STEP CPU TIME =     1.07 TOTAL CPU TIME =        1.1 (    0.0 MIN)
 TOTAL WALL CLOCK TIME=        1.5 SECONDS, CPU UTILIZATION IS  72.37%

          ---------------------------
                 ROHF SCF CALCULATION
          ---------------------------

     NUCLEAR ENERGY =         0.0000000000
     MAXIT =150     NPUNCH=  2     MULT=  2
     EXTRAP=T  DAMP=F  SHIFT=F  RSTRCT=F  DIIS=F  SOSCF=T
     DENSITY MATRIX CONV=  1.00E-05
     ROHF CANONICALIZATION PARAMETERS
             C-C     O-O     V-V
     ALPHA -0.5000  0.5000  1.5000
     BETA   1.5000  0.5000 -0.5000
     SOSCF WILL OPTIMIZE     334 ORBITAL ROTATION ANGLES. SOGTOL= 2.500E-01
     MEMORY REQUIRED FOR UHF/ROHF ITERS=     93680 WORDS.

 ITER EX      TOTAL ENERGY        E CHANGE  DENSITY CHANGE    ORB. GRAD 
   1  0      -27.0914462748   -27.0914462748   1.919219916   0.000000000
          ---------------START SECOND ORDER SCF---------------
   2  1      -27.9275291116    -0.8360828367   0.673269713   0.061306898
   3  2      -27.9343000139    -0.0067709024   0.188797406   0.007511777
   4  3      -27.9346203726    -0.0003203587   0.011760903   0.000597289
   5  4      -27.9346222882    -0.0000019156   0.004283124   0.000079913
   6  5      -27.9346223251    -0.0000000368   0.000271296   0.000007213
   7  6      -27.9346223253    -0.0000000002   0.000022460   0.000000541
   8  7      -27.9346223253    -0.0000000000   0.000002659   0.000000025
   9  8      -27.9346223253     0.0000000000   0.000000000   0.000000000

          -----------------
          DENSITY CONVERGED
          -----------------
     TIME TO FORM FOCK OPERATORS=       0.1 SECONDS (       0.0 SEC/ITER)
     TIME TO SOLVE SCF EQUATIONS=       0.0 SECONDS (       0.0 SEC/ITER)

 FINAL ROHF ENERGY IS      -27.9346223253 AFTER   9 ITERATIONS

          --------------------
          SPIN SZ   =    0.500
          S-SQUARED =    0.750
          --------------------

 LZ VALUE ANALYSIS FOR THE MOS
 ----------------------------------------
 MO     1 (    1) HAS LZ(WEIGHT)= 0.00(100.0%) 
 MO     2 (    2) HAS LZ(WEIGHT)= 0.00(100.0%) 
 MO     3 (    2) HAS LZ(WEIGHT)=-1.00( 50.0%)  1.00( 50.0%) 
 MO     4 (    2) HAS LZ(WEIGHT)=-1.00( 50.0%)  1.00( 50.0%) 
 MO     5 (    3) HAS LZ(WEIGHT)= 0.00(100.0%) 
 MO     6 (    4) HAS LZ(WEIGHT)=-1.00( 50.0%)  1.00( 50.0%) 
 MO     7 (    4) HAS LZ(WEIGHT)= 0.00(100.0%) 
 MO     8 (    4) HAS LZ(WEIGHT)=-1.00( 50.0%)  1.00( 50.0%) 
 MO     9 (    5) HAS LZ(WEIGHT)=-1.00( 50.0%)  1.00( 50.0%) 
 MO    10 (    5) HAS LZ(WEIGHT)=-1.00( 50.0%)  1.00( 50.0%) 
 MO    11 (    5) HAS LZ(WEIGHT)=-2.00( 50.0%)  2.00( 50.0%) 
 MO    12 (    5) HAS LZ(WEIGHT)=-2.00( 50.0%)  2.00( 50.0%) 
 MO    13 (    5) HAS LZ(WEIGHT)= 0.00(100.0%) 
 MO    14 (    6) HAS LZ(WEIGHT)= 0.00(100.0%) 
 MO    15 (    7) HAS LZ(WEIGHT)=-1.00( 50.0%)  1.00( 50.0%) 
 MO    16 (    7) HAS LZ(WEIGHT)=-1.00( 50.0%)  1.00( 50.0%) 
 MO    17 (    7) HAS LZ(WEIGHT)= 0.00(100.0%) 
 MO    18 (    8) HAS LZ(WEIGHT)=-1.00( 50.0%)  1.00( 50.0%) 
 MO    19 (    8) HAS LZ(WEIGHT)=-1.00( 50.0%)  1.00( 50.0%) 
 MO    20 (    8) HAS LZ(WEIGHT)=-2.00( 50.0%)  2.00( 50.0%) 
 MO    21 (    8) HAS LZ(WEIGHT)=-2.00( 50.0%)  2.00( 50.0%) 
 MO    22 (    8) HAS LZ(WEIGHT)= 0.00(100.0%) 
 MO    23 (    9) HAS LZ(WEIGHT)=-1.00( 50.0%)  1.00( 50.0%) 
 MO    24 (    9) HAS LZ(WEIGHT)=-2.00( 50.0%)  2.00( 50.0%) 
 MO    25 (    9) HAS LZ(WEIGHT)=-2.00( 50.0%)  2.00( 50.0%) 
 MO    26 (    9) HAS LZ(WEIGHT)=-1.00( 50.0%)  1.00( 50.0%) 
 MO    27 (    9) HAS LZ(WEIGHT)= 0.00(100.0%) 
 MO    28 (   10) HAS LZ(WEIGHT)= 0.00(100.0%) 
 MO    29 (   11) HAS LZ(WEIGHT)=-1.00( 50.0%)  1.00( 50.0%) 
 MO    30 (   11) HAS LZ(WEIGHT)=-1.00( 50.0%)  1.00( 50.0%) 
 MO    31 (   11) HAS LZ(WEIGHT)= 0.00(100.0%) 
 MO    32 (   12) HAS LZ(WEIGHT)=-1.00( 50.0%)  1.00( 50.0%) 
 MO    33 (   12) HAS LZ(WEIGHT)=-1.00( 50.0%)  1.00( 50.0%) 
 MO    34 (   12) HAS LZ(WEIGHT)= 0.00(100.0%) 
 MO    35 (   13) HAS LZ(WEIGHT)=-2.00( 50.0%)  2.00( 50.0%) 
 MO    36 (   13) HAS LZ(WEIGHT)=-2.00( 50.0%)  2.00( 50.0%) 
 MO    37 (   13) HAS LZ(WEIGHT)=-1.00( 50.0%)  1.00( 50.0%) 
 MO    38 (   13) HAS LZ(WEIGHT)=-1.00( 50.0%)  1.00( 50.0%) 
 MO    39 (   13) HAS LZ(WEIGHT)=-3.00( 50.0%)  3.00( 50.0%) 
 MO    40 (   13) HAS LZ(WEIGHT)=-3.00( 50.0%)  3.00( 50.0%) 
 MO    41 (   13) HAS LZ(WEIGHT)= 0.00(100.0%) 
 MO    42 (   14) HAS LZ(WEIGHT)=-2.00( 50.0%)  2.00( 50.0%) 
 MO    43 (   14) HAS LZ(WEIGHT)= 0.00(100.0%) 
 MO    44 (   14) HAS LZ(WEIGHT)=-2.00( 50.0%)  2.00( 50.0%) 
 MO    45 (   14) HAS LZ(WEIGHT)=-1.00( 50.0%)  1.00( 50.0%) 
 MO    46 (   14) HAS LZ(WEIGHT)=-1.00( 50.0%)  1.00( 50.0%) 
 MO    47 (   15) HAS LZ(WEIGHT)= 0.00(100.0%) 
 MO    48 (   16) HAS LZ(WEIGHT)=-1.00( 50.0%)  1.00( 50.0%) 
 MO    49 (   16) HAS LZ(WEIGHT)=-1.00( 50.0%)  1.00( 50.0%) 
 MO    50 (   16) HAS LZ(WEIGHT)= 0.00(100.0%) 
 MO    51 (   17) HAS LZ(WEIGHT)= 0.00(100.0%) 
 MO    52 (   18) HAS LZ(WEIGHT)= 0.00(100.0%) 
 MO    53 (   18) HAS LZ(WEIGHT)=-2.00( 50.0%)  2.00( 50.0%) 
 MO    54 (   18) HAS LZ(WEIGHT)=-2.00( 50.0%)  2.00( 50.0%) 
 MO    55 (   18) HAS LZ(WEIGHT)=-1.00( 50.0%)  1.00( 50.0%) 
 MO    56 (   18) HAS LZ(WEIGHT)=-1.00( 50.0%)  1.00( 50.0%) 
 MO    57 (   19) HAS LZ(WEIGHT)= 0.00(100.0%) 
 MO    58 (   19) HAS LZ(WEIGHT)=-2.00( 50.0%)  2.00( 50.0%) 
 MO    59 (   19) HAS LZ(WEIGHT)=-2.00( 50.0%)  2.00( 50.0%) 
 MO    60 (   19) HAS LZ(WEIGHT)=-1.00( 50.0%)  1.00( 50.0%) 
 MO    61 (   19) HAS LZ(WEIGHT)=-1.00( 50.0%)  1.00( 50.0%) 
 MO    62 (   19) HAS LZ(WEIGHT)=-3.00( 50.0%)  3.00( 50.0%) 
 MO    63 (   19) HAS LZ(WEIGHT)=-3.00( 50.0%)  3.00( 50.0%) 
 MO    64 (   20) HAS LZ(WEIGHT)=-1.00( 50.0%)  1.00( 50.0%) 
 MO    65 (   20) HAS LZ(WEIGHT)=-1.00( 50.0%)  1.00( 50.0%) 
 MO    66 (   20) HAS LZ(WEIGHT)= 0.00(100.0%) 
 MO    67 (   21) HAS LZ(WEIGHT)= 0.00(100.0%) 
 MO    68 (   22) HAS LZ(WEIGHT)=-1.00( 50.0%)  1.00( 50.0%) 
 MO    69 (   22) HAS LZ(WEIGHT)=-1.00( 50.0%)  1.00( 50.0%) 
 MO    70 (   22) HAS LZ(WEIGHT)= 0.00(100.0%) 
 MO    71 (   23) HAS LZ(WEIGHT)= 0.00(100.0%) 

          ------------
          EIGENVECTORS
          ------------

                      1          2          3          4          5
                   -1.7789    -0.9517    -0.9517    -0.9517    -0.0614
                     AG         B1U        B2U        B3U        AG  
    1  K  1  S    1.000168   0.000000   0.000000   0.000000   0.000129
    2  K  1  S    0.000541   0.000000   0.000000   0.000000   1.000409
    3  K  1  X    0.000000   0.000000   0.000000   0.999299   0.000000
    4  K  1  Y    0.000000   0.000000   0.999299   0.000000   0.000000
    5  K  1  Z    0.000000   0.999299   0.000000   0.000000   0.000000
    6  K  1  X    0.000000   0.000000   0.000000  -0.004167   0.000000
    7  K  1  Y    0.000000   0.000000  -0.004167   0.000000   0.000000
    8  K  1  Z    0.000000  -0.004167   0.000000   0.000000   0.000000
    9  K  1 XX    0.000000   0.000000   0.000000   0.000000   0.000000
   10  K  1 YY    0.000000   0.000000   0.000000   0.000000   0.000000
   11  K  1 ZZ    0.000000   0.000000   0.000000   0.000000   0.000000
   12  K  1 XY    0.000000   0.000000   0.000000   0.000000   0.000000
   13  K  1 XZ    0.000000   0.000000   0.000000   0.000000   0.000000
   14  K  1 YZ    0.000000   0.000000   0.000000   0.000000   0.000000
   15  K  1  S   -0.000112   0.000000   0.000000   0.000000  -0.000209
   16  K  1  S   -0.000353   0.000000   0.000000   0.000000  -0.000032
   17  K  1  S   -0.000139   0.000000   0.000000   0.000000  -0.000235
   18  K  1  X    0.000000   0.000000   0.000000   0.000806   0.000000
   19  K  1  Y    0.000000   0.000000   0.000806   0.000000   0.000000
   20  K  1  Z    0.000000   0.000806   0.000000   0.000000   0.000000
   21  K  1  X    0.000000   0.000000   0.000000   0.002455   0.000000
   22  K  1  Y    0.000000   0.000000   0.002455   0.000000   0.000000
   23  K  1  Z    0.000000   0.002455   0.000000   0.000000   0.000000
   24  K  1  X    0.000000   0.000000   0.000000   0.001347   0.000000
   25  K  1  Y    0.000000   0.000000   0.001347   0.000000   0.000000
   26  K  1  Z    0.000000   0.001347   0.000000   0.000000   0.000000
   27  K  1 XX    0.000000   0.000000   0.000000   0.000000   0.000000
   28  K  1 YY    0.000000   0.000000   0.000000   0.000000   0.000000
   29  K  1 ZZ    0.000000   0.000000   0.000000   0.000000   0.000000
   30  K  1 XY    0.000000   0.000000   0.000000   0.000000   0.000000
   31  K  1 XZ    0.000000   0.000000   0.000000   0.000000   0.000000
   32  K  1 YZ    0.000000   0.000000   0.000000   0.000000   0.000000
   33  K  1 XX    0.000000   0.000000   0.000000   0.000000   0.000000
   34  K  1 YY    0.000000   0.000000   0.000000   0.000000   0.000000
   35  K  1 ZZ    0.000000   0.000000   0.000000   0.000000   0.000000
   36  K  1 XY    0.000000   0.000000   0.000000   0.000000   0.000000
   37  K  1 XZ    0.000000   0.000000   0.000000   0.000000   0.000000
   38  K  1 YZ    0.000000   0.000000   0.000000   0.000000   0.000000
   39  K  1 XXX   0.000000   0.000000   0.000000   0.000000   0.000000
   40  K  1 YYY   0.000000   0.000000   0.000000   0.000000   0.000000
   41  K  1 ZZZ   0.000000   0.000000   0.000000   0.000000   0.000000
   42  K  1 XXY   0.000000   0.000000   0.000000   0.000000   0.000000
   43  K  1 XXZ   0.000000   0.000000   0.000000   0.000000   0.000000
   44  K  1 YYX   0.000000   0.000000   0.000000   0.000000   0.000000
   45  K  1 YYZ   0.000000   0.000000   0.000000   0.000000   0.000000
   46  K  1 ZZX   0.000000   0.000000   0.000000   0.000000   0.000000
   47  K  1 ZZY   0.000000   0.000000   0.000000   0.000000   0.000000
   48  K  1 XYZ   0.000000   0.000000   0.000000   0.000000   0.000000
   49  K  1  S    0.000254   0.000000   0.000000   0.000000   0.000202
   50  K  1  S   -0.000366   0.000000   0.000000   0.000000  -0.000280
   51  K  1  S    0.000168   0.000000   0.000000   0.000000   0.000126
   52  K  1  X    0.000000   0.000000   0.000000  -0.000128   0.000000
   53  K  1  Y    0.000000   0.000000  -0.000128   0.000000   0.000000
   54  K  1  Z    0.000000  -0.000128   0.000000   0.000000   0.000000
   55  K  1  X    0.000000   0.000000   0.000000   0.000078   0.000000
   56  K  1  Y    0.000000   0.000000   0.000078   0.000000   0.000000
   57  K  1  Z    0.000000   0.000078   0.000000   0.000000   0.000000
   58  K  1  X    0.000000   0.000000   0.000000  -0.000012   0.000000
   59  K  1  Y    0.000000   0.000000  -0.000012   0.000000   0.000000
   60  K  1  Z    0.000000  -0.000012   0.000000   0.000000   0.000000
   61  K  1 XX    0.000000   0.000000   0.000000   0.000000   0.000000
   62  K  1 YY    0.000000   0.000000   0.000000   0.000000   0.000000
   63  K  1 ZZ    0.000000   0.000000   0.000000   0.000000   0.000000
   64  K  1 XY    0.000000   0.000000   0.000000   0.000000   0.000000
   65  K  1 XZ    0.000000   0.000000   0.000000   0.000000   0.000000
   66  K  1 YZ    0.000000   0.000000   0.000000   0.000000   0.000000
   67  K  1 XX    0.000000   0.000000   0.000000   0.000000   0.000000
   68  K  1 YY    0.000000   0.000000   0.000000   0.000000   0.000000
   69  K  1 ZZ    0.000000   0.000000   0.000000   0.000000   0.000000
   70  K  1 XY    0.000000   0.000000   0.000000   0.000000   0.000000
   71  K  1 XZ    0.000000   0.000000   0.000000   0.000000   0.000000
   72  K  1 YZ    0.000000   0.000000   0.000000   0.000000   0.000000
   73  K  1 XXX   0.000000   0.000000   0.000000   0.000000   0.000000
   74  K  1 YYY   0.000000   0.000000   0.000000   0.000000   0.000000
   75  K  1 ZZZ   0.000000   0.000000   0.000000   0.000000   0.000000
   76  K  1 XXY   0.000000   0.000000   0.000000   0.000000   0.000000
   77  K  1 XXZ   0.000000   0.000000   0.000000   0.000000   0.000000
   78  K  1 YYX   0.000000   0.000000   0.000000   0.000000   0.000000
   79  K  1 YYZ   0.000000   0.000000   0.000000   0.000000   0.000000
   80  K  1 ZZX   0.000000   0.000000   0.000000   0.000000   0.000000
   81  K  1 ZZY   0.000000   0.000000   0.000000   0.000000   0.000000
   82  K  1 XYZ   0.000000   0.000000   0.000000   0.000000   0.000000

                      6          7          8          9         10
                    0.0013     0.0013     0.0013     0.0321     0.0321
                     B2U        B1U        B3U        B2G        B3G 
    1  K  1  S    0.000000   0.000000   0.000000   0.000000   0.000000
    2  K  1  S    0.000000   0.000000   0.000000   0.000000   0.000000
    3  K  1  X    0.000000   0.000000   0.286318   0.000000   0.000000
    4  K  1  Y    0.286318   0.000000   0.000000   0.000000   0.000000
    5  K  1  Z    0.000000   0.286318   0.000000   0.000000   0.000000
    6  K  1  X    0.000000   0.000000   1.098841   0.000000   0.000000
    7  K  1  Y    1.098841   0.000000   0.000000   0.000000   0.000000
    8  K  1  Z    0.000000   1.098841   0.000000   0.000000   0.000000
    9  K  1 XX    0.000000   0.000000   0.000000   0.000000   0.000000
   10  K  1 YY    0.000000   0.000000   0.000000   0.000000   0.000000
   11  K  1 ZZ    0.000000   0.000000   0.000000   0.000000   0.000000
   12  K  1 XY    0.000000   0.000000   0.000000   0.000000   0.000000
   13  K  1 XZ    0.000000   0.000000   0.000000   2.880376   0.000000
   14  K  1 YZ    0.000000   0.000000   0.000000   0.000000   2.880376
   15  K  1  S    0.000000   0.000000   0.000000   0.000000   0.000000
   16  K  1  S    0.000000   0.000000   0.000000   0.000000   0.000000
   17  K  1  S    0.000000   0.000000   0.000000   0.000000   0.000000
   18  K  1  X    0.000000   0.000000  -0.401252   0.000000   0.000000
   19  K  1  Y   -0.401252   0.000000   0.000000   0.000000   0.000000
   20  K  1  Z    0.000000  -0.401252   0.000000   0.000000   0.000000
   21  K  1  X    0.000000   0.000000  -0.847516   0.000000   0.000000
   22  K  1  Y   -0.847516   0.000000   0.000000   0.000000   0.000000
   23  K  1  Z    0.000000  -0.847516   0.000000   0.000000   0.000000
   24  K  1  X    0.000000   0.000000  -1.079179   0.000000   0.000000
   25  K  1  Y   -1.079179   0.000000   0.000000   0.000000   0.000000
   26  K  1  Z    0.000000  -1.079179   0.000000   0.000000   0.000000
   27  K  1 XX    0.000000   0.000000   0.000000   0.000000   0.000000
   28  K  1 YY    0.000000   0.000000   0.000000   0.000000   0.000000
   29  K  1 ZZ    0.000000   0.000000   0.000000   0.000000   0.000000
   30  K  1 XY    0.000000   0.000000   0.000000   0.000000   0.000000
   31  K  1 XZ    0.000000   0.000000   0.000000  -0.693445   0.000000
   32  K  1 YZ    0.000000   0.000000   0.000000   0.000000  -0.693445
   33  K  1 XX    0.000000   0.000000   0.000000   0.000000   0.000000
   34  K  1 YY    0.000000   0.000000   0.000000   0.000000   0.000000
   35  K  1 ZZ    0.000000   0.000000   0.000000   0.000000   0.000000
   36  K  1 XY    0.000000   0.000000   0.000000   0.000000   0.000000
   37  K  1 XZ    0.000000   0.000000   0.000000  -1.626518   0.000000
   38  K  1 YZ    0.000000   0.000000   0.000000   0.000000  -1.626518
   39  K  1 XXX   0.000000   0.000000   0.000000   0.000000   0.000000
   40  K  1 YYY   0.000000   0.000000   0.000000   0.000000   0.000000
   41  K  1 ZZZ   0.000000   0.000000   0.000000   0.000000   0.000000
   42  K  1 XXY   0.000000   0.000000   0.000000   0.000000   0.000000
   43  K  1 XXZ   0.000000   0.000000   0.000000   0.000000   0.000000
   44  K  1 YYX   0.000000   0.000000   0.000000   0.000000   0.000000
   45  K  1 YYZ   0.000000   0.000000   0.000000   0.000000   0.000000
   46  K  1 ZZX   0.000000   0.000000   0.000000   0.000000   0.000000
   47  K  1 ZZY   0.000000   0.000000   0.000000   0.000000   0.000000
   48  K  1 XYZ   0.000000   0.000000   0.000000   0.000000   0.000000
   49  K  1  S    0.000000   0.000000   0.000000   0.000000   0.000000
   50  K  1  S    0.000000   0.000000   0.000000   0.000000   0.000000
   51  K  1  S    0.000000   0.000000   0.000000   0.000000   0.000000
   52  K  1  X    0.000000   0.000000   0.067231   0.000000   0.000000
   53  K  1  Y    0.067231   0.000000   0.000000   0.000000   0.000000
   54  K  1  Z    0.000000   0.067231   0.000000   0.000000   0.000000
   55  K  1  X    0.000000   0.000000  -0.007737   0.000000   0.000000
   56  K  1  Y   -0.007737   0.000000   0.000000   0.000000   0.000000
   57  K  1  Z    0.000000  -0.007737   0.000000   0.000000   0.000000
   58  K  1  X    0.000000   0.000000   0.006155   0.000000   0.000000
   59  K  1  Y    0.006155   0.000000   0.000000   0.000000   0.000000
   60  K  1  Z    0.000000   0.006155   0.000000   0.000000   0.000000
   61  K  1 XX    0.000000   0.000000   0.000000   0.000000   0.000000
   62  K  1 YY    0.000000   0.000000   0.000000   0.000000   0.000000
   63  K  1 ZZ    0.000000   0.000000   0.000000   0.000000   0.000000
   64  K  1 XY    0.000000   0.000000   0.000000   0.000000   0.000000
   65  K  1 XZ    0.000000   0.000000   0.000000  -0.138629   0.000000
   66  K  1 YZ    0.000000   0.000000   0.000000   0.000000  -0.138629
   67  K  1 XX    0.000000   0.000000   0.000000   0.000000   0.000000
   68  K  1 YY    0.000000   0.000000   0.000000   0.000000   0.000000
   69  K  1 ZZ    0.000000   0.000000   0.000000   0.000000   0.000000
   70  K  1 XY    0.000000   0.000000   0.000000   0.000000   0.000000
   71  K  1 XZ    0.000000   0.000000   0.000000  -0.046100   0.000000
   72  K  1 YZ    0.000000   0.000000   0.000000   0.000000  -0.046100
   73  K  1 XXX   0.000000   0.000000   0.000000   0.000000   0.000000
   74  K  1 YYY   0.000000   0.000000   0.000000   0.000000   0.000000
   75  K  1 ZZZ   0.000000   0.000000   0.000000   0.000000   0.000000
   76  K  1 XXY   0.000000   0.000000   0.000000   0.000000   0.000000
   77  K  1 XXZ   0.000000   0.000000   0.000000   0.000000   0.000000
   78  K  1 YYX   0.000000   0.000000   0.000000   0.000000   0.000000
   79  K  1 YYZ   0.000000   0.000000   0.000000   0.000000   0.000000
   80  K  1 ZZX   0.000000   0.000000   0.000000   0.000000   0.000000
   81  K  1 ZZY   0.000000   0.000000   0.000000   0.000000   0.000000
   82  K  1 XYZ   0.000000   0.000000   0.000000   0.000000   0.000000

                     11         12         13         14         15
                    0.0321     0.0321     0.0321     0.0373     0.0494
                     AG         B1G        AG         AG         B2U 
    1  K  1  S    0.000000   0.000000   0.000000  -0.427288   0.000000
    2  K  1  S    0.000000   0.000000   0.000000  -1.260325   0.000000
    3  K  1  X    0.000000   0.000000   0.000000   0.000000   0.000000
    4  K  1  Y    0.000000   0.000000   0.000000   0.000000   1.248659
    5  K  1  Z    0.000000   0.000000   0.000000   0.000000   0.000000
    6  K  1  X    0.000000   0.000000   0.000000   0.000000   0.000000
    7  K  1  Y    0.000000   0.000000   0.000000   0.000000   9.068314
    8  K  1  Z    0.000000   0.000000   0.000000   0.000000   0.000000
    9  K  1 XX    2.494478   0.000000  -1.440188   0.000000   0.000000
   10  K  1 YY   -2.494478   0.000000  -1.440188   0.000000   0.000000
   11  K  1 ZZ    0.000000   0.000000   2.880376   0.000000   0.000000
   12  K  1 XY    0.000000   2.880376   0.000000   0.000000   0.000000
   13  K  1 XZ    0.000000   0.000000   0.000000   0.000000   0.000000
   14  K  1 YZ    0.000000   0.000000   0.000000   0.000000   0.000000
   15  K  1  S    0.000000   0.000000   0.000000  -1.236472   0.000000
   16  K  1  S    0.000000   0.000000   0.000000   5.478936   0.000000
   17  K  1  S    0.000000   0.000000   0.000000  -3.112952   0.000000
   18  K  1  X    0.000000   0.000000   0.000000   0.000000   0.000000
   19  K  1  Y    0.000000   0.000000   0.000000   0.000000  -1.948541
   20  K  1  Z    0.000000   0.000000   0.000000   0.000000   0.000000
   21  K  1  X    0.000000   0.000000   0.000000   0.000000   0.000000
   22  K  1  Y    0.000000   0.000000   0.000000   0.000000  -3.399712
   23  K  1  Z    0.000000   0.000000   0.000000   0.000000   0.000000
   24  K  1  X    0.000000   0.000000   0.000000   0.000000   0.000000
   25  K  1  Y    0.000000   0.000000   0.000000   0.000000  -4.642938
   26  K  1  Z    0.000000   0.000000   0.000000   0.000000   0.000000
   27  K  1 XX   -0.600541   0.000000   0.346722   0.000000   0.000000
   28  K  1 YY    0.600541   0.000000   0.346722   0.000000   0.000000
   29  K  1 ZZ    0.000000   0.000000  -0.693445   0.000000   0.000000
   30  K  1 XY    0.000000  -0.693445   0.000000   0.000000   0.000000
   31  K  1 XZ    0.000000   0.000000   0.000000   0.000000   0.000000
   32  K  1 YZ    0.000000   0.000000   0.000000   0.000000   0.000000
   33  K  1 XX   -1.408606   0.000000   0.813259   0.000000   0.000000
   34  K  1 YY    1.408606   0.000000   0.813259   0.000000   0.000000
   35  K  1 ZZ    0.000000   0.000000  -1.626518   0.000000   0.000000
   36  K  1 XY    0.000000  -1.626518   0.000000   0.000000   0.000000
   37  K  1 XZ    0.000000   0.000000   0.000000   0.000000   0.000000
   38  K  1 YZ    0.000000   0.000000   0.000000   0.000000   0.000000
   39  K  1 XXX   0.000000   0.000000   0.000000   0.000000   0.000000
   40  K  1 YYY   0.000000   0.000000   0.000000   0.000000   0.000000
   41  K  1 ZZZ   0.000000   0.000000   0.000000   0.000000   0.000000
   42  K  1 XXY   0.000000   0.000000   0.000000   0.000000   0.000000
   43  K  1 XXZ   0.000000   0.000000   0.000000   0.000000   0.000000
   44  K  1 YYX   0.000000   0.000000   0.000000   0.000000   0.000000
   45  K  1 YYZ   0.000000   0.000000   0.000000   0.000000   0.000000
   46  K  1 ZZX   0.000000   0.000000   0.000000   0.000000   0.000000
   47  K  1 ZZY   0.000000   0.000000   0.000000   0.000000   0.000000
   48  K  1 XYZ   0.000000   0.000000   0.000000   0.000000   0.000000
   49  K  1  S    0.000000   0.000000   0.000000  -0.437466   0.000000
   50  K  1  S    0.000000   0.000000   0.000000   0.377598   0.000000
   51  K  1  S    0.000000   0.000000   0.000000  -0.147668   0.000000
   52  K  1  X    0.000000   0.000000   0.000000   0.000000   0.000000
   53  K  1  Y    0.000000   0.000000   0.000000   0.000000   0.296239
   54  K  1  Z    0.000000   0.000000   0.000000   0.000000   0.000000
   55  K  1  X    0.000000   0.000000   0.000000   0.000000   0.000000
   56  K  1  Y    0.000000   0.000000   0.000000   0.000000  -0.039625
   57  K  1  Z    0.000000   0.000000   0.000000   0.000000   0.000000
   58  K  1  X    0.000000   0.000000   0.000000   0.000000   0.000000
   59  K  1  Y    0.000000   0.000000   0.000000   0.000000   0.028821
   60  K  1  Z    0.000000   0.000000   0.000000   0.000000   0.000000
   61  K  1 XX   -0.120056   0.000000   0.069314   0.000000   0.000000
   62  K  1 YY    0.120056   0.000000   0.069314   0.000000   0.000000
   63  K  1 ZZ    0.000000   0.000000  -0.138629   0.000000   0.000000
   64  K  1 XY    0.000000  -0.138629   0.000000   0.000000   0.000000
   65  K  1 XZ    0.000000   0.000000   0.000000   0.000000   0.000000
   66  K  1 YZ    0.000000   0.000000   0.000000   0.000000   0.000000
   67  K  1 XX   -0.039924   0.000000   0.023050   0.000000   0.000000
   68  K  1 YY    0.039924   0.000000   0.023050   0.000000   0.000000
   69  K  1 ZZ    0.000000   0.000000  -0.046100   0.000000   0.000000
   70  K  1 XY    0.000000  -0.046100   0.000000   0.000000   0.000000
   71  K  1 XZ    0.000000   0.000000   0.000000   0.000000   0.000000
   72  K  1 YZ    0.000000   0.000000   0.000000   0.000000   0.000000
   73  K  1 XXX   0.000000   0.000000   0.000000   0.000000   0.000000
   74  K  1 YYY   0.000000   0.000000   0.000000   0.000000   0.000000
   75  K  1 ZZZ   0.000000   0.000000   0.000000   0.000000   0.000000
   76  K  1 XXY   0.000000   0.000000   0.000000   0.000000   0.000000
   77  K  1 XXZ   0.000000   0.000000   0.000000   0.000000   0.000000
   78  K  1 YYX   0.000000   0.000000   0.000000   0.000000   0.000000
   79  K  1 YYZ   0.000000   0.000000   0.000000   0.000000   0.000000
   80  K  1 ZZX   0.000000   0.000000   0.000000   0.000000   0.000000
   81  K  1 ZZY   0.000000   0.000000   0.000000   0.000000   0.000000
   82  K  1 XYZ   0.000000   0.000000   0.000000   0.000000   0.000000

                     16         17         18         19         20
                    0.0494     0.0494     0.0757     0.0757     0.0757
                     B3U        B1U        B2G        B3G        B1G 
    1  K  1  S    0.000000   0.000000   0.000000   0.000000   0.000000
    2  K  1  S    0.000000   0.000000   0.000000   0.000000   0.000000
    3  K  1  X    1.248659   0.000000   0.000000   0.000000   0.000000
    4  K  1  Y    0.000000   0.000000   0.000000   0.000000   0.000000
    5  K  1  Z    0.000000   1.248659   0.000000   0.000000   0.000000
    6  K  1  X    9.068314   0.000000   0.000000   0.000000   0.000000
    7  K  1  Y    0.000000   0.000000   0.000000   0.000000   0.000000
    8  K  1  Z    0.000000   9.068314   0.000000   0.000000   0.000000
    9  K  1 XX    0.000000   0.000000   0.000000   0.000000   0.000000
   10  K  1 YY    0.000000   0.000000   0.000000   0.000000   0.000000
   11  K  1 ZZ    0.000000   0.000000   0.000000   0.000000   0.000000
   12  K  1 XY    0.000000   0.000000   0.000000   0.000000  -3.368701
   13  K  1 XZ    0.000000   0.000000  -3.368701   0.000000   0.000000
   14  K  1 YZ    0.000000   0.000000   0.000000  -3.368701   0.000000
   15  K  1  S    0.000000   0.000000   0.000000   0.000000   0.000000
   16  K  1  S    0.000000   0.000000   0.000000   0.000000   0.000000
   17  K  1  S    0.000000   0.000000   0.000000   0.000000   0.000000
   18  K  1  X   -1.948541   0.000000   0.000000   0.000000   0.000000
   19  K  1  Y    0.000000   0.000000   0.000000   0.000000   0.000000
   20  K  1  Z    0.000000  -1.948541   0.000000   0.000000   0.000000
   21  K  1  X   -3.399712   0.000000   0.000000   0.000000   0.000000
   22  K  1  Y    0.000000   0.000000   0.000000   0.000000   0.000000
   23  K  1  Z    0.000000  -3.399712   0.000000   0.000000   0.000000
   24  K  1  X   -4.642938   0.000000   0.000000   0.000000   0.000000
   25  K  1  Y    0.000000   0.000000   0.000000   0.000000   0.000000
   26  K  1  Z    0.000000  -4.642938   0.000000   0.000000   0.000000
   27  K  1 XX    0.000000   0.000000   0.000000   0.000000   0.000000
   28  K  1 YY    0.000000   0.000000   0.000000   0.000000   0.000000
   29  K  1 ZZ    0.000000   0.000000   0.000000   0.000000   0.000000
   30  K  1 XY    0.000000   0.000000   0.000000   0.000000   0.909233
   31  K  1 XZ    0.000000   0.000000   0.909233   0.000000   0.000000
   32  K  1 YZ    0.000000   0.000000   0.000000   0.909233   0.000000
   33  K  1 XX    0.000000   0.000000   0.000000   0.000000   0.000000
   34  K  1 YY    0.000000   0.000000   0.000000   0.000000   0.000000
   35  K  1 ZZ    0.000000   0.000000   0.000000   0.000000   0.000000
   36  K  1 XY    0.000000   0.000000   0.000000   0.000000   3.386157
   37  K  1 XZ    0.000000   0.000000   3.386157   0.000000   0.000000
   38  K  1 YZ    0.000000   0.000000   0.000000   3.386157   0.000000
   39  K  1 XXX   0.000000   0.000000   0.000000   0.000000   0.000000
   40  K  1 YYY   0.000000   0.000000   0.000000   0.000000   0.000000
   41  K  1 ZZZ   0.000000   0.000000   0.000000   0.000000   0.000000
   42  K  1 XXY   0.000000   0.000000   0.000000   0.000000   0.000000
   43  K  1 XXZ   0.000000   0.000000   0.000000   0.000000   0.000000
   44  K  1 YYX   0.000000   0.000000   0.000000   0.000000   0.000000
   45  K  1 YYZ   0.000000   0.000000   0.000000   0.000000   0.000000
   46  K  1 ZZX   0.000000   0.000000   0.000000   0.000000   0.000000
   47  K  1 ZZY   0.000000   0.000000   0.000000   0.000000   0.000000
   48  K  1 XYZ   0.000000   0.000000   0.000000   0.000000   0.000000
   49  K  1  S    0.000000   0.000000   0.000000   0.000000   0.000000
   50  K  1  S    0.000000   0.000000   0.000000   0.000000   0.000000
   51  K  1  S    0.000000   0.000000   0.000000   0.000000   0.000000
   52  K  1  X    0.296239   0.000000   0.000000   0.000000   0.000000
   53  K  1  Y    0.000000   0.000000   0.000000   0.000000   0.000000
   54  K  1  Z    0.000000   0.296239   0.000000   0.000000   0.000000
   55  K  1  X   -0.039625   0.000000   0.000000   0.000000   0.000000
   56  K  1  Y    0.000000   0.000000   0.000000   0.000000   0.000000
   57  K  1  Z    0.000000  -0.039625   0.000000   0.000000   0.000000
   58  K  1  X    0.028821   0.000000   0.000000   0.000000   0.000000
   59  K  1  Y    0.000000   0.000000   0.000000   0.000000   0.000000
   60  K  1  Z    0.000000   0.028821   0.000000   0.000000   0.000000
   61  K  1 XX    0.000000   0.000000   0.000000   0.000000   0.000000
   62  K  1 YY    0.000000   0.000000   0.000000   0.000000   0.000000
   63  K  1 ZZ    0.000000   0.000000   0.000000   0.000000   0.000000
   64  K  1 XY    0.000000   0.000000   0.000000   0.000000   0.192363
   65  K  1 XZ    0.000000   0.000000   0.192363   0.000000   0.000000
   66  K  1 YZ    0.000000   0.000000   0.000000   0.192363   0.000000
   67  K  1 XX    0.000000   0.000000   0.000000   0.000000   0.000000
   68  K  1 YY    0.000000   0.000000   0.000000   0.000000   0.000000
   69  K  1 ZZ    0.000000   0.000000   0.000000   0.000000   0.000000
   70  K  1 XY    0.000000   0.000000   0.000000   0.000000   0.064071
   71  K  1 XZ    0.000000   0.000000   0.064071   0.000000   0.000000
   72  K  1 YZ    0.000000   0.000000   0.000000   0.064071   0.000000
   73  K  1 XXX   0.000000   0.000000   0.000000   0.000000   0.000000
   74  K  1 YYY   0.000000   0.000000   0.000000   0.000000   0.000000
   75  K  1 ZZZ   0.000000   0.000000   0.000000   0.000000   0.000000
   76  K  1 XXY   0.000000   0.000000   0.000000   0.000000   0.000000
   77  K  1 XXZ   0.000000   0.000000   0.000000   0.000000   0.000000
   78  K  1 YYX   0.000000   0.000000   0.000000   0.000000   0.000000
   79  K  1 YYZ   0.000000   0.000000   0.000000   0.000000   0.000000
   80  K  1 ZZX   0.000000   0.000000   0.000000   0.000000   0.000000
   81  K  1 ZZY   0.000000   0.000000   0.000000   0.000000   0.000000
   82  K  1 XYZ   0.000000   0.000000   0.000000   0.000000   0.000000

                     21         22         23         24         25
                    0.0757     0.0757     0.1733     0.1733     0.1733
                     AG         AG         B3G        AG         B1G 
    1  K  1  S    0.000000   0.000000   0.000000   0.000000   0.000000
    2  K  1  S    0.000000   0.000000   0.000000   0.000000   0.000000
    3  K  1  X    0.000000   0.000000   0.000000   0.000000   0.000000
    4  K  1  Y    0.000000   0.000000   0.000000   0.000000   0.000000
    5  K  1  Z    0.000000   0.000000   0.000000   0.000000   0.000000
    6  K  1  X    0.000000   0.000000   0.000000   0.000000   0.000000
    7  K  1  Y    0.000000   0.000000   0.000000   0.000000   0.000000
    8  K  1  Z    0.000000   0.000000   0.000000   0.000000   0.000000
    9  K  1 XX   -2.917381   1.684351   0.000000  -0.977429   0.000000
   10  K  1 YY    2.917381   1.684351   0.000000   0.977429   0.000000
   11  K  1 ZZ    0.000000  -3.368701   0.000000   0.000000   0.000000
   12  K  1 XY    0.000000   0.000000   0.000000   0.000000  -1.128638
   13  K  1 XZ    0.000000   0.000000   0.000000   0.000000   0.000000
   14  K  1 YZ    0.000000   0.000000  -1.128638   0.000000   0.000000
   15  K  1  S    0.000000   0.000000   0.000000   0.000000   0.000000
   16  K  1  S    0.000000   0.000000   0.000000   0.000000   0.000000
   17  K  1  S    0.000000   0.000000   0.000000   0.000000   0.000000
   18  K  1  X    0.000000   0.000000   0.000000   0.000000   0.000000
   19  K  1  Y    0.000000   0.000000   0.000000   0.000000   0.000000
   20  K  1  Z    0.000000   0.000000   0.000000   0.000000   0.000000
   21  K  1  X    0.000000   0.000000   0.000000   0.000000   0.000000
   22  K  1  Y    0.000000   0.000000   0.000000   0.000000   0.000000
   23  K  1  Z    0.000000   0.000000   0.000000   0.000000   0.000000
   24  K  1  X    0.000000   0.000000   0.000000   0.000000   0.000000
   25  K  1  Y    0.000000   0.000000   0.000000   0.000000   0.000000
   26  K  1  Z    0.000000   0.000000   0.000000   0.000000   0.000000
   27  K  1 XX    0.787419  -0.454617   0.000000  -0.754973   0.000000
   28  K  1 YY   -0.787419  -0.454617   0.000000   0.754973   0.000000
   29  K  1 ZZ    0.000000   0.909233   0.000000   0.000000   0.000000
   30  K  1 XY    0.000000   0.000000   0.000000   0.000000  -0.871768
   31  K  1 XZ    0.000000   0.000000   0.000000   0.000000   0.000000
   32  K  1 YZ    0.000000   0.000000  -0.871768   0.000000   0.000000
   33  K  1 XX    2.932498  -1.693079   0.000000   1.382222   0.000000
   34  K  1 YY   -2.932498  -1.693079   0.000000  -1.382222   0.000000
   35  K  1 ZZ    0.000000   3.386157   0.000000   0.000000   0.000000
   36  K  1 XY    0.000000   0.000000   0.000000   0.000000   1.596053
   37  K  1 XZ    0.000000   0.000000   0.000000   0.000000   0.000000
   38  K  1 YZ    0.000000   0.000000   1.596053   0.000000   0.000000
   39  K  1 XXX   0.000000   0.000000   0.000000   0.000000   0.000000
   40  K  1 YYY   0.000000   0.000000   0.000000   0.000000   0.000000
   41  K  1 ZZZ   0.000000   0.000000   0.000000   0.000000   0.000000
   42  K  1 XXY   0.000000   0.000000   0.000000   0.000000   0.000000
   43  K  1 XXZ   0.000000   0.000000   0.000000   0.000000   0.000000
   44  K  1 YYX   0.000000   0.000000   0.000000   0.000000   0.000000
   45  K  1 YYZ   0.000000   0.000000   0.000000   0.000000   0.000000
   46  K  1 ZZX   0.000000   0.000000   0.000000   0.000000   0.000000
   47  K  1 ZZY   0.000000   0.000000   0.000000   0.000000   0.000000
   48  K  1 XYZ   0.000000   0.000000   0.000000   0.000000   0.000000
   49  K  1  S    0.000000   0.000000   0.000000   0.000000   0.000000
   50  K  1  S    0.000000   0.000000   0.000000   0.000000   0.000000
   51  K  1  S    0.000000   0.000000   0.000000   0.000000   0.000000
   52  K  1  X    0.000000   0.000000   0.000000   0.000000   0.000000
   53  K  1  Y    0.000000   0.000000   0.000000   0.000000   0.000000
   54  K  1  Z    0.000000   0.000000   0.000000   0.000000   0.000000
   55  K  1  X    0.000000   0.000000   0.000000   0.000000   0.000000
   56  K  1  Y    0.000000   0.000000   0.000000   0.000000   0.000000
   57  K  1  Z    0.000000   0.000000   0.000000   0.000000   0.000000
   58  K  1  X    0.000000   0.000000   0.000000   0.000000   0.000000
   59  K  1  Y    0.000000   0.000000   0.000000   0.000000   0.000000
   60  K  1  Z    0.000000   0.000000   0.000000   0.000000   0.000000
   61  K  1 XX    0.166591  -0.096182   0.000000  -0.062967   0.000000
   62  K  1 YY   -0.166591  -0.096182   0.000000   0.062967   0.000000
   63  K  1 ZZ    0.000000   0.192363   0.000000   0.000000   0.000000
   64  K  1 XY    0.000000   0.000000   0.000000   0.000000  -0.072708
   65  K  1 XZ    0.000000   0.000000   0.000000   0.000000   0.000000
   66  K  1 YZ    0.000000   0.000000  -0.072708   0.000000   0.000000
   67  K  1 XX    0.055487  -0.032036   0.000000  -0.026273   0.000000
   68  K  1 YY   -0.055487  -0.032036   0.000000   0.026273   0.000000
   69  K  1 ZZ    0.000000   0.064071   0.000000   0.000000   0.000000
   70  K  1 XY    0.000000   0.000000   0.000000   0.000000  -0.030337
   71  K  1 XZ    0.000000   0.000000   0.000000   0.000000   0.000000
   72  K  1 YZ    0.000000   0.000000  -0.030337   0.000000   0.000000
   73  K  1 XXX   0.000000   0.000000   0.000000   0.000000   0.000000
   74  K  1 YYY   0.000000   0.000000   0.000000   0.000000   0.000000
   75  K  1 ZZZ   0.000000   0.000000   0.000000   0.000000   0.000000
   76  K  1 XXY   0.000000   0.000000   0.000000   0.000000   0.000000
   77  K  1 XXZ   0.000000   0.000000   0.000000   0.000000   0.000000
   78  K  1 YYX   0.000000   0.000000   0.000000   0.000000   0.000000
   79  K  1 YYZ   0.000000   0.000000   0.000000   0.000000   0.000000
   80  K  1 ZZX   0.000000   0.000000   0.000000   0.000000   0.000000
   81  K  1 ZZY   0.000000   0.000000   0.000000   0.000000   0.000000
   82  K  1 XYZ   0.000000   0.000000   0.000000   0.000000   0.000000

                     26         27         28         29         30
                    0.1733     0.1733     0.1872     0.2083     0.2083
                     B2G        AG         AG         B2U        B3U 
    1  K  1  S    0.000000   0.000000  -1.703769   0.000000   0.000000
    2  K  1  S    0.000000   0.000000  -8.413179   0.000000   0.000000
    3  K  1  X    0.000000   0.000000   0.000000   0.000000   1.618573
    4  K  1  Y    0.000000   0.000000   0.000000   1.618573   0.000000
    5  K  1  Z    0.000000   0.000000   0.000000   0.000000   0.000000
    6  K  1  X    0.000000   0.000000   0.000000   0.000000  13.534397
    7  K  1  Y    0.000000   0.000000   0.000000  13.534397   0.000000
    8  K  1  Z    0.000000   0.000000   0.000000   0.000000   0.000000
    9  K  1 XX    0.000000   0.564319   0.000000   0.000000   0.000000
   10  K  1 YY    0.000000   0.564319   0.000000   0.000000   0.000000
   11  K  1 ZZ    0.000000  -1.128638   0.000000   0.000000   0.000000
   12  K  1 XY    0.000000   0.000000   0.000000   0.000000   0.000000
   13  K  1 XZ   -1.128638   0.000000   0.000000   0.000000   0.000000
   14  K  1 YZ    0.000000   0.000000   0.000000   0.000000   0.000000
   15  K  1  S    0.000000   0.000000  -4.641204   0.000000   0.000000
   16  K  1  S    0.000000   0.000000  13.887280   0.000000   0.000000
   17  K  1  S    0.000000   0.000000  -0.883070   0.000000   0.000000
   18  K  1  X    0.000000   0.000000   0.000000   0.000000  -0.112155
   19  K  1  Y    0.000000   0.000000   0.000000  -0.112155   0.000000
   20  K  1  Z    0.000000   0.000000   0.000000   0.000000   0.000000
   21  K  1  X    0.000000   0.000000   0.000000   0.000000 -10.817658
   22  K  1  Y    0.000000   0.000000   0.000000 -10.817658   0.000000
   23  K  1  Z    0.000000   0.000000   0.000000   0.000000   0.000000
   24  K  1  X    0.000000   0.000000   0.000000   0.000000  -3.270542
   25  K  1  Y    0.000000   0.000000   0.000000  -3.270542   0.000000
   26  K  1  Z    0.000000   0.000000   0.000000   0.000000   0.000000
   27  K  1 XX    0.000000   0.435884   0.000000   0.000000   0.000000
   28  K  1 YY    0.000000   0.435884   0.000000   0.000000   0.000000
   29  K  1 ZZ    0.000000  -0.871768   0.000000   0.000000   0.000000
   30  K  1 XY    0.000000   0.000000   0.000000   0.000000   0.000000
   31  K  1 XZ   -0.871768   0.000000   0.000000   0.000000   0.000000
   32  K  1 YZ    0.000000   0.000000   0.000000   0.000000   0.000000
   33  K  1 XX    0.000000  -0.798026   0.000000   0.000000   0.000000
   34  K  1 YY    0.000000  -0.798026   0.000000   0.000000   0.000000
   35  K  1 ZZ    0.000000   1.596053   0.000000   0.000000   0.000000
   36  K  1 XY    0.000000   0.000000   0.000000   0.000000   0.000000
   37  K  1 XZ    1.596053   0.000000   0.000000   0.000000   0.000000
   38  K  1 YZ    0.000000   0.000000   0.000000   0.000000   0.000000
   39  K  1 XXX   0.000000   0.000000   0.000000   0.000000   0.000000
   40  K  1 YYY   0.000000   0.000000   0.000000   0.000000   0.000000
   41  K  1 ZZZ   0.000000   0.000000   0.000000   0.000000   0.000000
   42  K  1 XXY   0.000000   0.000000   0.000000   0.000000   0.000000
   43  K  1 XXZ   0.000000   0.000000   0.000000   0.000000   0.000000
   44  K  1 YYX   0.000000   0.000000   0.000000   0.000000   0.000000
   45  K  1 YYZ   0.000000   0.000000   0.000000   0.000000   0.000000
   46  K  1 ZZX   0.000000   0.000000   0.000000   0.000000   0.000000
   47  K  1 ZZY   0.000000   0.000000   0.000000   0.000000   0.000000
   48  K  1 XYZ   0.000000   0.000000   0.000000   0.000000   0.000000
   49  K  1  S    0.000000   0.000000  -1.508712   0.000000   0.000000
   50  K  1  S    0.000000   0.000000   1.243831   0.000000   0.000000
   51  K  1  S    0.000000   0.000000  -0.488334   0.000000   0.000000
   52  K  1  X    0.000000   0.000000   0.000000   0.000000   0.178369
   53  K  1  Y    0.000000   0.000000   0.000000   0.178369   0.000000
   54  K  1  Z    0.000000   0.000000   0.000000   0.000000   0.000000
   55  K  1  X    0.000000   0.000000   0.000000   0.000000   0.146870
   56  K  1  Y    0.000000   0.000000   0.000000   0.146870   0.000000
   57  K  1  Z    0.000000   0.000000   0.000000   0.000000   0.000000
   58  K  1  X    0.000000   0.000000   0.000000   0.000000   0.020001
   59  K  1  Y    0.000000   0.000000   0.000000   0.020001   0.000000
   60  K  1  Z    0.000000   0.000000   0.000000   0.000000   0.000000
   61  K  1 XX    0.000000   0.036354   0.000000   0.000000   0.000000
   62  K  1 YY    0.000000   0.036354   0.000000   0.000000   0.000000
   63  K  1 ZZ    0.000000  -0.072708   0.000000   0.000000   0.000000
   64  K  1 XY    0.000000   0.000000   0.000000   0.000000   0.000000
   65  K  1 XZ   -0.072708   0.000000   0.000000   0.000000   0.000000
   66  K  1 YZ    0.000000   0.000000   0.000000   0.000000   0.000000
   67  K  1 XX    0.000000   0.015169   0.000000   0.000000   0.000000
   68  K  1 YY    0.000000   0.015169   0.000000   0.000000   0.000000
   69  K  1 ZZ    0.000000  -0.030337   0.000000   0.000000   0.000000
   70  K  1 XY    0.000000   0.000000   0.000000   0.000000   0.000000
   71  K  1 XZ   -0.030337   0.000000   0.000000   0.000000   0.000000
   72  K  1 YZ    0.000000   0.000000   0.000000   0.000000   0.000000
   73  K  1 XXX   0.000000   0.000000   0.000000   0.000000   0.000000
   74  K  1 YYY   0.000000   0.000000   0.000000   0.000000   0.000000
   75  K  1 ZZZ   0.000000   0.000000   0.000000   0.000000   0.000000
   76  K  1 XXY   0.000000   0.000000   0.000000   0.000000   0.000000
   77  K  1 XXZ   0.000000   0.000000   0.000000   0.000000   0.000000
   78  K  1 YYX   0.000000   0.000000   0.000000   0.000000   0.000000
   79  K  1 YYZ   0.000000   0.000000   0.000000   0.000000   0.000000
   80  K  1 ZZX   0.000000   0.000000   0.000000   0.000000   0.000000
   81  K  1 ZZY   0.000000   0.000000   0.000000   0.000000   0.000000
   82  K  1 XYZ   0.000000   0.000000   0.000000   0.000000   0.000000

                     31         32         33         34         35
                    0.2083     0.2837     0.2837     0.2837     0.3476
                     B1U        B2U        B3U        B1U        AU  
    1  K  1  S    0.000000   0.000000   0.000000   0.000000   0.000000
    2  K  1  S    0.000000   0.000000   0.000000   0.000000   0.000000
    3  K  1  X    0.000000   0.000000  30.616215   0.000000   0.000000
    4  K  1  Y    0.000000  30.616215   0.000000   0.000000   0.000000
    5  K  1  Z    1.618573   0.000000   0.000000  30.616215   0.000000
    6  K  1  X    0.000000   0.000000 207.012778   0.000000   0.000000
    7  K  1  Y    0.000000 207.012778   0.000000   0.000000   0.000000
    8  K  1  Z   13.534397   0.000000   0.000000 207.012778   0.000000
    9  K  1 XX    0.000000   0.000000   0.000000   0.000000   0.000000
   10  K  1 YY    0.000000   0.000000   0.000000   0.000000   0.000000
   11  K  1 ZZ    0.000000   0.000000   0.000000   0.000000   0.000000
   12  K  1 XY    0.000000   0.000000   0.000000   0.000000   0.000000
   13  K  1 XZ    0.000000   0.000000   0.000000   0.000000   0.000000
   14  K  1 YZ    0.000000   0.000000   0.000000   0.000000   0.000000
   15  K  1  S    0.000000   0.000000   0.000000   0.000000   0.000000
   16  K  1  S    0.000000   0.000000   0.000000   0.000000   0.000000
   17  K  1  S    0.000000   0.000000   0.000000   0.000000   0.000000
   18  K  1  X    0.000000   0.000000 -38.909533   0.000000   0.000000
   19  K  1  Y    0.000000 -38.909533   0.000000   0.000000   0.000000
   20  K  1  Z   -0.112155   0.000000   0.000000 -38.909533   0.000000
   21  K  1  X    0.000000   0.000000-122.821866   0.000000   0.000000
   22  K  1  Y    0.000000-122.821866   0.000000   0.000000   0.000000
   23  K  1  Z  -10.817658   0.000000   0.000000-122.821866   0.000000
   24  K  1  X    0.000000   0.000000 -66.549920   0.000000   0.000000
   25  K  1  Y    0.000000 -66.549920   0.000000   0.000000   0.000000
   26  K  1  Z   -3.270542   0.000000   0.000000 -66.549920   0.000000
   27  K  1 XX    0.000000   0.000000   0.000000   0.000000   0.000000
   28  K  1 YY    0.000000   0.000000   0.000000   0.000000   0.000000
   29  K  1 ZZ    0.000000   0.000000   0.000000   0.000000   0.000000
   30  K  1 XY    0.000000   0.000000   0.000000   0.000000   0.000000
   31  K  1 XZ    0.000000   0.000000   0.000000   0.000000   0.000000
   32  K  1 YZ    0.000000   0.000000   0.000000   0.000000   0.000000
   33  K  1 XX    0.000000   0.000000   0.000000   0.000000   0.000000
   34  K  1 YY    0.000000   0.000000   0.000000   0.000000   0.000000
   35  K  1 ZZ    0.000000   0.000000   0.000000   0.000000   0.000000
   36  K  1 XY    0.000000   0.000000   0.000000   0.000000   0.000000
   37  K  1 XZ    0.000000   0.000000   0.000000   0.000000   0.000000
   38  K  1 YZ    0.000000   0.000000   0.000000   0.000000   0.000000
   39  K  1 XXX   0.000000   0.000000   0.000000   0.000000   0.000000
   40  K  1 YYY   0.000000   0.000000   0.000000   0.000000   0.000000
   41  K  1 ZZZ   0.000000   0.000000   0.000000   0.000000   0.000000
   42  K  1 XXY   0.000000   0.000000   0.000000   0.000000   0.000000
   43  K  1 XXZ   0.000000   0.000000   0.000000   0.000000   0.000000
   44  K  1 YYX   0.000000   0.000000   0.000000   0.000000   0.000000
   45  K  1 YYZ   0.000000   0.000000   0.000000   0.000000   0.000000
   46  K  1 ZZX   0.000000   0.000000   0.000000   0.000000   0.000000
   47  K  1 ZZY   0.000000   0.000000   0.000000   0.000000   0.000000
   48  K  1 XYZ   0.000000   0.000000   0.000000   0.000000   0.999558
   49  K  1  S    0.000000   0.000000   0.000000   0.000000   0.000000
   50  K  1  S    0.000000   0.000000   0.000000   0.000000   0.000000
   51  K  1  S    0.000000   0.000000   0.000000   0.000000   0.000000
   52  K  1  X    0.000000   0.000000   6.413316   0.000000   0.000000
   53  K  1  Y    0.000000   6.413316   0.000000   0.000000   0.000000
   54  K  1  Z    0.178369   0.000000   0.000000   6.413316   0.000000
   55  K  1  X    0.000000   0.000000   0.100043   0.000000   0.000000
   56  K  1  Y    0.000000   0.100043   0.000000   0.000000   0.000000
   57  K  1  Z    0.146870   0.000000   0.000000   0.100043   0.000000
   58  K  1  X    0.000000   0.000000   0.616636   0.000000   0.000000
   59  K  1  Y    0.000000   0.616636   0.000000   0.000000   0.000000
   60  K  1  Z    0.020001   0.000000   0.000000   0.616636   0.000000
   61  K  1 XX    0.000000   0.000000   0.000000   0.000000   0.000000
   62  K  1 YY    0.000000   0.000000   0.000000   0.000000   0.000000
   63  K  1 ZZ    0.000000   0.000000   0.000000   0.000000   0.000000
   64  K  1 XY    0.000000   0.000000   0.000000   0.000000   0.000000
   65  K  1 XZ    0.000000   0.000000   0.000000   0.000000   0.000000
   66  K  1 YZ    0.000000   0.000000   0.000000   0.000000   0.000000
   67  K  1 XX    0.000000   0.000000   0.000000   0.000000   0.000000
   68  K  1 YY    0.000000   0.000000   0.000000   0.000000   0.000000
   69  K  1 ZZ    0.000000   0.000000   0.000000   0.000000   0.000000
   70  K  1 XY    0.000000   0.000000   0.000000   0.000000   0.000000
   71  K  1 XZ    0.000000   0.000000   0.000000   0.000000   0.000000
   72  K  1 YZ    0.000000   0.000000   0.000000   0.000000   0.000000
   73  K  1 XXX   0.000000   0.000000   0.000000   0.000000   0.000000
   74  K  1 YYY   0.000000   0.000000   0.000000   0.000000   0.000000
   75  K  1 ZZZ   0.000000   0.000000   0.000000   0.000000   0.000000
   76  K  1 XXY   0.000000   0.000000   0.000000   0.000000   0.000000
   77  K  1 XXZ   0.000000   0.000000   0.000000   0.000000   0.000000
   78  K  1 YYX   0.000000   0.000000   0.000000   0.000000   0.000000
   79  K  1 YYZ   0.000000   0.000000   0.000000   0.000000   0.000000
   80  K  1 ZZX   0.000000   0.000000   0.000000   0.000000   0.000000
   81  K  1 ZZY   0.000000   0.000000   0.000000   0.000000   0.000000
   82  K  1 XYZ   0.000000   0.000000   0.000000   0.000000   0.008032

                     36         37         38         39         40
                    0.3476     0.3476     0.3476     0.3476     0.3476
                     B1U        B3U        B2U        B2U        B3U 
    1  K  1  S    0.000000   0.000000   0.000000   0.000000   0.000000
    2  K  1  S    0.000000   0.000000   0.000000   0.000000   0.000000
    3  K  1  X    0.000000   0.000000   0.000000   0.000000   0.000000
    4  K  1  Y    0.000000   0.000000   0.000000   0.000000   0.000000
    5  K  1  Z    0.000000   0.000000   0.000000   0.000000   0.000000
    6  K  1  X    0.000000   0.000000   0.000000   0.000000   0.000000
    7  K  1  Y    0.000000   0.000000   0.000000   0.000000   0.000000
    8  K  1  Z    0.000000   0.000000   0.000000   0.000000   0.000000
    9  K  1 XX    0.000000   0.000000   0.000000   0.000000   0.000000
   10  K  1 YY    0.000000   0.000000   0.000000   0.000000   0.000000
   11  K  1 ZZ    0.000000   0.000000   0.000000   0.000000   0.000000
   12  K  1 XY    0.000000   0.000000   0.000000   0.000000   0.000000
   13  K  1 XZ    0.000000   0.000000   0.000000   0.000000   0.000000
   14  K  1 YZ    0.000000   0.000000   0.000000   0.000000   0.000000
   15  K  1  S    0.000000   0.000000   0.000000   0.000000   0.000000
   16  K  1  S    0.000000   0.000000   0.000000   0.000000   0.000000
   17  K  1  S    0.000000   0.000000   0.000000   0.000000   0.000000
   18  K  1  X    0.000000   0.000000   0.000000   0.000000   0.000000
   19  K  1  Y    0.000000   0.000000   0.000000   0.000000   0.000000
   20  K  1  Z    0.000000   0.000000   0.000000   0.000000   0.000000
   21  K  1  X    0.000000   0.000000   0.000000   0.000000   0.000000
   22  K  1  Y    0.000000   0.000000   0.000000   0.000000   0.000000
   23  K  1  Z    0.000000   0.000000   0.000000   0.000000   0.000000
   24  K  1  X    0.000000   0.000000   0.000000   0.000000   0.000000
   25  K  1  Y    0.000000   0.000000   0.000000   0.000000   0.000000
   26  K  1  Z    0.000000   0.000000   0.000000   0.000000   0.000000
   27  K  1 XX    0.000000   0.000000   0.000000   0.000000   0.000000
   28  K  1 YY    0.000000   0.000000   0.000000   0.000000   0.000000
   29  K  1 ZZ    0.000000   0.000000   0.000000   0.000000   0.000000
   30  K  1 XY    0.000000   0.000000   0.000000   0.000000   0.000000
   31  K  1 XZ    0.000000   0.000000   0.000000   0.000000   0.000000
   32  K  1 YZ    0.000000   0.000000   0.000000   0.000000   0.000000
   33  K  1 XX    0.000000   0.000000   0.000000   0.000000   0.000000
   34  K  1 YY    0.000000   0.000000   0.000000   0.000000   0.000000
   35  K  1 ZZ    0.000000   0.000000   0.000000   0.000000   0.000000
   36  K  1 XY    0.000000   0.000000   0.000000   0.000000   0.000000
   37  K  1 XZ    0.000000   0.000000   0.000000   0.000000   0.000000
   38  K  1 YZ    0.000000   0.000000   0.000000   0.000000   0.000000
   39  K  1 XXX   0.000000  -0.612102   0.000000   0.000000  -0.790220
   40  K  1 YYY   0.000000   0.000000  -0.612102  -0.790220   0.000000
   41  K  1 ZZZ   0.000000   0.000000   0.000000   0.000000   0.000000
   42  K  1 XXY   0.000000   0.000000  -0.273740   1.060192   0.000000
   43  K  1 XXZ   0.865643   0.000000   0.000000   0.000000   0.000000
   44  K  1 YYX   0.000000  -0.273740   0.000000   0.000000   1.060192
   45  K  1 YYZ  -0.865643   0.000000   0.000000   0.000000   0.000000
   46  K  1 ZZX   0.000000   1.094961   0.000000   0.000000   0.000000
   47  K  1 ZZY   0.000000   0.000000   1.094961   0.000000   0.000000
   48  K  1 XYZ   0.000000   0.000000   0.000000   0.000000   0.000000
   49  K  1  S    0.000000   0.000000   0.000000   0.000000   0.000000
   50  K  1  S    0.000000   0.000000   0.000000   0.000000   0.000000
   51  K  1  S    0.000000   0.000000   0.000000   0.000000   0.000000
   52  K  1  X    0.000000   0.000000   0.000000   0.000000   0.000000
   53  K  1  Y    0.000000   0.000000   0.000000   0.000000   0.000000
   54  K  1  Z    0.000000   0.000000   0.000000   0.000000   0.000000
   55  K  1  X    0.000000   0.000000   0.000000   0.000000   0.000000
   56  K  1  Y    0.000000   0.000000   0.000000   0.000000   0.000000
   57  K  1  Z    0.000000   0.000000   0.000000   0.000000   0.000000
   58  K  1  X    0.000000   0.000000   0.000000   0.000000   0.000000
   59  K  1  Y    0.000000   0.000000   0.000000   0.000000   0.000000
   60  K  1  Z    0.000000   0.000000   0.000000   0.000000   0.000000
   61  K  1 XX    0.000000   0.000000   0.000000   0.000000   0.000000
   62  K  1 YY    0.000000   0.000000   0.000000   0.000000   0.000000
   63  K  1 ZZ    0.000000   0.000000   0.000000   0.000000   0.000000
   64  K  1 XY    0.000000   0.000000   0.000000   0.000000   0.000000
   65  K  1 XZ    0.000000   0.000000   0.000000   0.000000   0.000000
   66  K  1 YZ    0.000000   0.000000   0.000000   0.000000   0.000000
   67  K  1 XX    0.000000   0.000000   0.000000   0.000000   0.000000
   68  K  1 YY    0.000000   0.000000   0.000000   0.000000   0.000000
   69  K  1 ZZ    0.000000   0.000000   0.000000   0.000000   0.000000
   70  K  1 XY    0.000000   0.000000   0.000000   0.000000   0.000000
   71  K  1 XZ    0.000000   0.000000   0.000000   0.000000   0.000000
   72  K  1 YZ    0.000000   0.000000   0.000000   0.000000   0.000000
   73  K  1 XXX   0.000000  -0.004918   0.000000   0.000000  -0.006349
   74  K  1 YYY   0.000000   0.000000  -0.004918  -0.006349   0.000000
   75  K  1 ZZZ   0.000000   0.000000   0.000000   0.000000   0.000000
   76  K  1 XXY   0.000000   0.000000  -0.002200   0.008519   0.000000
   77  K  1 XXZ   0.006955   0.000000   0.000000   0.000000   0.000000
   78  K  1 YYX   0.000000  -0.002200   0.000000   0.000000   0.008519
   79  K  1 YYZ  -0.006955   0.000000   0.000000   0.000000   0.000000
   80  K  1 ZZX   0.000000   0.008798   0.000000   0.000000   0.000000
   81  K  1 ZZY   0.000000   0.000000   0.008798   0.000000   0.000000
   82  K  1 XYZ   0.000000   0.000000   0.000000   0.000000   0.000000

                     41         42         43         44         45
                    0.3476     0.7147     0.7147     0.7147     0.7147
                     B1U        AG         AG         B1G        B2G 
    1  K  1  S    0.000000   0.000000   0.000000   0.000000   0.000000
    2  K  1  S    0.000000   0.000000   0.000000   0.000000   0.000000
    3  K  1  X    0.000000   0.000000   0.000000   0.000000   0.000000
    4  K  1  Y    0.000000   0.000000   0.000000   0.000000   0.000000
    5  K  1  Z    0.000000   0.000000   0.000000   0.000000   0.000000
    6  K  1  X    0.000000   0.000000   0.000000   0.000000   0.000000
    7  K  1  Y    0.000000   0.000000   0.000000   0.000000   0.000000
    8  K  1  Z    0.000000   0.000000   0.000000   0.000000   0.000000
    9  K  1 XX    0.000000  -0.660229   0.381183   0.000000   0.000000
   10  K  1 YY    0.000000   0.660229   0.381183   0.000000   0.000000
   11  K  1 ZZ    0.000000   0.000000  -0.762366   0.000000   0.000000
   12  K  1 XY    0.000000   0.000000   0.000000  -0.762366   0.000000
   13  K  1 XZ    0.000000   0.000000   0.000000   0.000000  -0.762366
   14  K  1 YZ    0.000000   0.000000   0.000000   0.000000   0.000000
   15  K  1  S    0.000000   0.000000   0.000000   0.000000   0.000000
   16  K  1  S    0.000000   0.000000   0.000000   0.000000   0.000000
   17  K  1  S    0.000000   0.000000   0.000000   0.000000   0.000000
   18  K  1  X    0.000000   0.000000   0.000000   0.000000   0.000000
   19  K  1  Y    0.000000   0.000000   0.000000   0.000000   0.000000
   20  K  1  Z    0.000000   0.000000   0.000000   0.000000   0.000000
   21  K  1  X    0.000000   0.000000   0.000000   0.000000   0.000000
   22  K  1  Y    0.000000   0.000000   0.000000   0.000000   0.000000
   23  K  1  Z    0.000000   0.000000   0.000000   0.000000   0.000000
   24  K  1  X    0.000000   0.000000   0.000000   0.000000   0.000000
   25  K  1  Y    0.000000   0.000000   0.000000   0.000000   0.000000
[...]
   46  K  1 ZZX  -0.064705   0.000000   0.000000   0.000000   0.000000
   47  K  1 ZZY   0.000000   0.000000   0.000000   0.000000   0.000000
   48  K  1 XYZ   0.000000   0.000000   0.000000   0.000000   0.000000
   49  K  1  S    0.000000   0.000000   0.000000   0.000000   0.000000
   50  K  1  S    0.000000   0.000000   0.000000   0.000000   0.000000
   51  K  1  S    0.000000   0.000000   0.000000   0.000000   0.000000
   52  K  1  X    0.000000   0.000000   0.000000   0.082722   0.000000
   53  K  1  Y    0.000000   0.000000   0.000000   0.000000   0.082722
   54  K  1  Z    0.000000   0.000000   0.000000   0.000000   0.000000
   55  K  1  X    0.000000   0.000000   0.000000  -5.959915   0.000000
   56  K  1  Y    0.000000   0.000000   0.000000   0.000000  -5.959915
   57  K  1  Z    0.000000   0.000000   0.000000   0.000000   0.000000
   58  K  1  X    0.000000   0.000000   0.000000   1.423713   0.000000
   59  K  1  Y    0.000000   0.000000   0.000000   0.000000   1.423713
   60  K  1  Z    0.000000   0.000000   0.000000   0.000000   0.000000
   61  K  1 XX    0.000000   0.000000   0.000000   0.000000   0.000000
   62  K  1 YY    0.000000   0.000000   0.000000   0.000000   0.000000
   63  K  1 ZZ    0.000000   0.000000   0.000000   0.000000   0.000000
   64  K  1 XY    0.000000   0.000000   0.000000   0.000000   0.000000
   65  K  1 XZ    0.000000   0.000000   0.000000   0.000000   0.000000
   66  K  1 YZ    0.000000   0.000000   0.000000   0.000000   0.000000
   67  K  1 XX    0.000000   0.000000   0.000000   0.000000   0.000000
   68  K  1 YY    0.000000   0.000000   0.000000   0.000000   0.000000
   69  K  1 ZZ    0.000000   0.000000   0.000000   0.000000   0.000000
   70  K  1 XY    0.000000   0.000000   0.000000   0.000000   0.000000
   71  K  1 XZ    0.000000   0.000000   0.000000   0.000000   0.000000
   72  K  1 YZ    0.000000   0.000000   0.000000   0.000000   0.000000
   73  K  1 XXX  -0.613150  -0.791573   0.000000   0.000000   0.000000
   74  K  1 YYY   0.000000   0.000000  -0.791573   0.000000   0.000000
   75  K  1 ZZZ   0.000000   0.000000   0.000000   0.000000   0.000000
   76  K  1 XXY   0.000000   0.000000   1.062007   0.000000   0.000000
   77  K  1 XXZ   0.000000   0.000000   0.000000   0.000000   0.000000
   78  K  1 YYX  -0.274209   1.062007   0.000000   0.000000   0.000000
   79  K  1 YYZ   0.000000   0.000000   0.000000   0.000000   0.000000
   80  K  1 ZZX   1.096836   0.000000   0.000000   0.000000   0.000000
   81  K  1 ZZY   0.000000   0.000000   0.000000   0.000000   0.000000
   82  K  1 XYZ   0.000000   0.000000   0.000000   0.000000   0.000000

                     66         67         68         69         70
                    4.4491     7.5244    18.8410    18.8410    18.8410
                     B1U        AG         B3U        B2U        B1U 
    1  K  1  S    0.000000 -17.273159   0.000000   0.000000   0.000000
    2  K  1  S    0.000000 -36.465003   0.000000   0.000000   0.000000
    3  K  1  X    0.000000   0.000000  24.036796   0.000000   0.000000
    4  K  1  Y    0.000000   0.000000   0.000000  24.036796   0.000000
    5  K  1  Z    9.604196   0.000000   0.000000   0.000000  24.036796
    6  K  1  X    0.000000   0.000000  19.182355   0.000000   0.000000
    7  K  1  Y    0.000000   0.000000   0.000000  19.182355   0.000000
    8  K  1  Z   26.253455   0.000000   0.000000   0.000000  19.182355
    9  K  1 XX    0.000000   0.000000   0.000000   0.000000   0.000000
   10  K  1 YY    0.000000   0.000000   0.000000   0.000000   0.000000
   11  K  1 ZZ    0.000000   0.000000   0.000000   0.000000   0.000000
   12  K  1 XY    0.000000   0.000000   0.000000   0.000000   0.000000
   13  K  1 XZ    0.000000   0.000000   0.000000   0.000000   0.000000
   14  K  1 YZ    0.000000   0.000000   0.000000   0.000000   0.000000
   15  K  1  S    0.000000   9.079777   0.000000   0.000000   0.000000
   16  K  1  S    0.000000  22.564928   0.000000   0.000000   0.000000
   17  K  1  S    0.000000   9.634920   0.000000   0.000000   0.000000
   18  K  1  X    0.000000   0.000000  -4.963588   0.000000   0.000000
   19  K  1  Y    0.000000   0.000000   0.000000  -4.963588   0.000000
   20  K  1  Z   -5.835291   0.000000   0.000000   0.000000  -4.963588
   21  K  1  X    0.000000   0.000000 -10.625986   0.000000   0.000000
   22  K  1  Y    0.000000   0.000000   0.000000 -10.625986   0.000000
   23  K  1  Z  -14.962688   0.000000   0.000000   0.000000 -10.625986
   24  K  1  X    0.000000   0.000000  -6.424230   0.000000   0.000000
   25  K  1  Y    0.000000   0.000000   0.000000  -6.424230   0.000000
   26  K  1  Z   -8.659336   0.000000   0.000000   0.000000  -6.424230
   27  K  1 XX    0.000000   0.000000   0.000000   0.000000   0.000000
   28  K  1 YY    0.000000   0.000000   0.000000   0.000000   0.000000
   29  K  1 ZZ    0.000000   0.000000   0.000000   0.000000   0.000000
   30  K  1 XY    0.000000   0.000000   0.000000   0.000000   0.000000
   31  K  1 XZ    0.000000   0.000000   0.000000   0.000000   0.000000
   32  K  1 YZ    0.000000   0.000000   0.000000   0.000000   0.000000
   33  K  1 XX    0.000000   0.000000   0.000000   0.000000   0.000000
   34  K  1 YY    0.000000   0.000000   0.000000   0.000000   0.000000
   35  K  1 ZZ    0.000000   0.000000   0.000000   0.000000   0.000000
   36  K  1 XY    0.000000   0.000000   0.000000   0.000000   0.000000
   37  K  1 XZ    0.000000   0.000000   0.000000   0.000000   0.000000
   38  K  1 YZ    0.000000   0.000000   0.000000   0.000000   0.000000
   39  K  1 XXX   0.000000   0.000000   0.000000   0.000000   0.000000
   40  K  1 YYY   0.000000   0.000000   0.000000   0.000000   0.000000
   41  K  1 ZZZ   0.000000   0.000000   0.000000   0.000000   0.000000
   42  K  1 XXY   0.000000   0.000000   0.000000   0.000000   0.000000
   43  K  1 XXZ   0.000000   0.000000   0.000000   0.000000   0.000000
   44  K  1 YYX   0.000000   0.000000   0.000000   0.000000   0.000000
   45  K  1 YYZ   0.000000   0.000000   0.000000   0.000000   0.000000
   46  K  1 ZZX   0.000000   0.000000   0.000000   0.000000   0.000000
   47  K  1 ZZY   0.000000   0.000000   0.000000   0.000000   0.000000
   48  K  1 XYZ   0.000000   0.000000   0.000000   0.000000   0.000000
   49  K  1  S    0.000000 -16.094010   0.000000   0.000000   0.000000
   50  K  1  S    0.000000  38.758703   0.000000   0.000000   0.000000
   51  K  1  S    0.000000 -22.172840   0.000000   0.000000   0.000000
   52  K  1  X    0.000000   0.000000  -7.299356   0.000000   0.000000
   53  K  1  Y    0.000000   0.000000   0.000000  -7.299356   0.000000
   54  K  1  Z    0.082722   0.000000   0.000000   0.000000  -7.299356
   55  K  1  X    0.000000   0.000000 -12.056897   0.000000   0.000000
   56  K  1  Y    0.000000   0.000000   0.000000 -12.056897   0.000000
   57  K  1  Z   -5.959915   0.000000   0.000000   0.000000 -12.056897
   58  K  1  X    0.000000   0.000000  -2.664838   0.000000   0.000000
   59  K  1  Y    0.000000   0.000000   0.000000  -2.664838   0.000000
   60  K  1  Z    1.423713   0.000000   0.000000   0.000000  -2.664838
   61  K  1 XX    0.000000   0.000000   0.000000   0.000000   0.000000
   62  K  1 YY    0.000000   0.000000   0.000000   0.000000   0.000000
   63  K  1 ZZ    0.000000   0.000000   0.000000   0.000000   0.000000
   64  K  1 XY    0.000000   0.000000   0.000000   0.000000   0.000000
   65  K  1 XZ    0.000000   0.000000   0.000000   0.000000   0.000000
   66  K  1 YZ    0.000000   0.000000   0.000000   0.000000   0.000000
   67  K  1 XX    0.000000   0.000000   0.000000   0.000000   0.000000
   68  K  1 YY    0.000000   0.000000   0.000000   0.000000   0.000000
   69  K  1 ZZ    0.000000   0.000000   0.000000   0.000000   0.000000
   70  K  1 XY    0.000000   0.000000   0.000000   0.000000   0.000000
   71  K  1 XZ    0.000000   0.000000   0.000000   0.000000   0.000000
   72  K  1 YZ    0.000000   0.000000   0.000000   0.000000   0.000000
   73  K  1 XXX   0.000000   0.000000   0.000000   0.000000   0.000000
   74  K  1 YYY   0.000000   0.000000   0.000000   0.000000   0.000000
   75  K  1 ZZZ   0.000000   0.000000   0.000000   0.000000   0.000000
   76  K  1 XXY   0.000000   0.000000   0.000000   0.000000   0.000000
   77  K  1 XXZ   0.000000   0.000000   0.000000   0.000000   0.000000
   78  K  1 YYX   0.000000   0.000000   0.000000   0.000000   0.000000
   79  K  1 YYZ   0.000000   0.000000   0.000000   0.000000   0.000000
   80  K  1 ZZX   0.000000   0.000000   0.000000   0.000000   0.000000
   81  K  1 ZZY   0.000000   0.000000   0.000000   0.000000   0.000000
   82  K  1 XYZ   0.000000   0.000000   0.000000   0.000000   0.000000

                     71
                   35.6461
                     AG  
    1  K  1  S   11.806107
    2  K  1  S   16.467849
    3  K  1  X    0.000000
    4  K  1  Y    0.000000
    5  K  1  Z    0.000000
    6  K  1  X    0.000000
    7  K  1  Y    0.000000
    8  K  1  Z    0.000000
    9  K  1 XX    0.000000
   10  K  1 YY    0.000000
   11  K  1 ZZ    0.000000
   12  K  1 XY    0.000000
   13  K  1 XZ    0.000000
   14  K  1 YZ    0.000000
   15  K  1  S   -4.576100
   16  K  1  S   -9.780807
   17  K  1  S   -4.471172
   18  K  1  X    0.000000
   19  K  1  Y    0.000000
   20  K  1  Z    0.000000
   21  K  1  X    0.000000
   22  K  1  Y    0.000000
   23  K  1  Z    0.000000
   24  K  1  X    0.000000
   25  K  1  Y    0.000000
   26  K  1  Z    0.000000
   27  K  1 XX    0.000000
   28  K  1 YY    0.000000
   29  K  1 ZZ    0.000000
   30  K  1 XY    0.000000
   31  K  1 XZ    0.000000
   32  K  1 YZ    0.000000
   33  K  1 XX    0.000000
   34  K  1 YY    0.000000
   35  K  1 ZZ    0.000000
   36  K  1 XY    0.000000
   37  K  1 XZ    0.000000
   38  K  1 YZ    0.000000
   39  K  1 XXX   0.000000
   40  K  1 YYY   0.000000
   41  K  1 ZZZ   0.000000
   42  K  1 XXY   0.000000
   43  K  1 XXZ   0.000000
   44  K  1 YYX   0.000000
   45  K  1 YYZ   0.000000
   46  K  1 ZZX   0.000000
   47  K  1 ZZY   0.000000
   48  K  1 XYZ   0.000000
   49  K  1  S    0.266627
   50  K  1  S  -12.520755
   51  K  1  S    7.913292
   52  K  1  X    0.000000
   53  K  1  Y    0.000000
   54  K  1  Z    0.000000
   55  K  1  X    0.000000
   56  K  1  Y    0.000000
   57  K  1  Z    0.000000
   58  K  1  X    0.000000
   59  K  1  Y    0.000000
   60  K  1  Z    0.000000
   61  K  1 XX    0.000000
   62  K  1 YY    0.000000
   63  K  1 ZZ    0.000000
   64  K  1 XY    0.000000
   65  K  1 XZ    0.000000
   66  K  1 YZ    0.000000
   67  K  1 XX    0.000000
   68  K  1 YY    0.000000
   69  K  1 ZZ    0.000000
   70  K  1 XY    0.000000
   71  K  1 XZ    0.000000
   72  K  1 YZ    0.000000
   73  K  1 XXX   0.000000
   74  K  1 YYY   0.000000
   75  K  1 ZZZ   0.000000
   76  K  1 XXY   0.000000
   77  K  1 XXZ   0.000000
   78  K  1 YYX   0.000000
   79  K  1 YYZ   0.000000
   80  K  1 ZZX   0.000000
   81  K  1 ZZY   0.000000
   82  K  1 XYZ   0.000000
 ...... END OF ROHF CALCULATION ......
 STEP CPU TIME =     0.18 TOTAL CPU TIME =        1.3 (    0.0 MIN)
 TOTAL WALL CLOCK TIME=        1.9 SECONDS, CPU UTILIZATION IS  67.37%

     ----------------------------------------------------------------
     PROPERTY VALUES FOR THE ROHF  SELF-CONSISTENT FIELD WAVEFUNCTION
     ----------------------------------------------------------------

          -----------------
          ENERGY COMPONENTS
          -----------------

         WAVEFUNCTION NORMALIZATION =       1.0000000000

                ONE ELECTRON ENERGY =     -46.4236381390
                TWO ELECTRON ENERGY =      18.4890158138
           NUCLEAR REPULSION ENERGY =       0.0000000000
                                      ------------------
                       TOTAL ENERGY =     -27.9346223253

 ELECTRON-ELECTRON POTENTIAL ENERGY =      18.4890158138
  NUCLEUS-ELECTRON POTENTIAL ENERGY =     -56.8952152713
   NUCLEUS-NUCLEUS POTENTIAL ENERGY =       0.0000000000
                                      ------------------
             TOTAL POTENTIAL ENERGY =     -38.4061994575
               TOTAL KINETIC ENERGY =      10.4715771322
                 VIRIAL RATIO (V/T) =       3.6676614203

          ---------------------------------------
          MULLIKEN AND LOWDIN POPULATION ANALYSES
          ---------------------------------------

     ATOMIC MULLIKEN POPULATION IN EACH MOLECULAR ORBITAL

                      1          2          3          4          5

                  2.000000   2.000000   2.000000   2.000000   1.000000

    1             2.000000   2.000000   2.000000   2.000000   1.000000

          MULLIKEN SPHERICAL HARMONIC POPULATIONS
       ATOM           S       P       D      F      G      H      I    TOTAL
    1 K             2.00    3.00    0.00   0.00   0.00   0.00   0.00    5.00

          MULLIKEN SPHERICAL HARMONIC POPULATIONS
       ATOM           S       P       D      F      G      H      I    TOTAL
    1 K             1.00    3.00    0.00   0.00   0.00   0.00   0.00    4.00

     ATOMIC SPIN POPULATION (ALPHA MINUS BETA)
       ATOM         MULL.POP.                    LOW.POP.
    1 K             1.000000                     1.000000

               ----- POPULATIONS IN EACH AO -----
                             MULLIKEN      LOWDIN
              1  K  1  S      2.00034     0.42550
              2  K  1  S      1.00041     0.18868
              3  K  1  X      1.99860     0.46988
              4  K  1  Y      1.99860     0.46988
              5  K  1  Z      1.99860     0.46988
              6  K  1  X     -0.00004     0.00159
              7  K  1  Y     -0.00004     0.00159
              8  K  1  Z     -0.00004     0.00159
              9  K  1 XX      0.00000     0.02686
             10  K  1 YY      0.00000     0.02686
             11  K  1 ZZ      0.00000     0.02686
             12  K  1 XY      0.00000     0.00000
             13  K  1 XZ      0.00000     0.00000
             14  K  1 YZ      0.00000     0.00000
             15  K  1  S     -0.00028     0.18721
             16  K  1  S     -0.00028     0.17771
             17  K  1  S     -0.00028     0.12918
             18  K  1  X      0.00057     0.04283
             19  K  1  Y      0.00057     0.04283
             20  K  1  Z      0.00057     0.04283
             21  K  1  X      0.00079     0.00367
             22  K  1  Y      0.00079     0.00367
             23  K  1  Z      0.00079     0.00367
             24  K  1  X      0.00018     0.00052
             25  K  1  Y      0.00018     0.00052
             26  K  1  Z      0.00018     0.00052
             27  K  1 XX      0.00000     0.08779
             28  K  1 YY      0.00000     0.08779
             29  K  1 ZZ      0.00000     0.08779
             30  K  1 XY      0.00000     0.00000
             31  K  1 XZ      0.00000     0.00000
             32  K  1 YZ      0.00000     0.00000
             33  K  1 XX      0.00000     0.01993
             34  K  1 YY      0.00000     0.01993
             35  K  1 ZZ      0.00000     0.01993
             36  K  1 XY      0.00000     0.00000
             37  K  1 XZ      0.00000     0.00000
             38  K  1 YZ      0.00000     0.00000
             39  K  1 XXX     0.00000     0.00378
             40  K  1 YYY     0.00000     0.00378
             41  K  1 ZZZ     0.00000     0.00378
             42  K  1 XXY     0.00000     0.00194
             43  K  1 XXZ     0.00000     0.00194
             44  K  1 YYX     0.00000     0.00194
             45  K  1 YYZ     0.00000     0.00194
             46  K  1 ZZX     0.00000     0.00194
             47  K  1 ZZY     0.00000     0.00194
             48  K  1 XYZ     0.00000     0.00000
             49  K  1  S      0.00048     0.26515
             50  K  1  S     -0.00060     0.16968
             51  K  1  S      0.00022     0.05498
             52  K  1  X     -0.00023     0.40230
             53  K  1  Y     -0.00023     0.40230
             54  K  1  Z     -0.00023     0.40230
             55  K  1  X      0.00015     0.34971
             56  K  1  Y      0.00015     0.34971
             57  K  1  Z      0.00015     0.34971
             58  K  1  X     -0.00002     0.19869
             59  K  1  Y     -0.00002     0.19869
             60  K  1  Z     -0.00002     0.19869
             61  K  1 XX      0.00000     0.18495
             62  K  1 YY      0.00000     0.18495
             63  K  1 ZZ      0.00000     0.18495
             64  K  1 XY      0.00000     0.00000
             65  K  1 XZ      0.00000     0.00000
             66  K  1 YZ      0.00000     0.00000
             67  K  1 XX      0.00000     0.14778
             68  K  1 YY      0.00000     0.14778
             69  K  1 ZZ      0.00000     0.14778
             70  K  1 XY      0.00000     0.00000
             71  K  1 XZ      0.00000     0.00000
             72  K  1 YZ      0.00000     0.00000
             73  K  1 XXX     0.00000     0.27462
             74  K  1 YYY     0.00000     0.27462
             75  K  1 ZZZ     0.00000     0.27462
             76  K  1 XXY     0.00000     0.12427
             77  K  1 XXZ     0.00000     0.12427
             78  K  1 YYX     0.00000     0.12427
             79  K  1 YYZ     0.00000     0.12427
             80  K  1 ZZX     0.00000     0.12427
             81  K  1 ZZY     0.00000     0.12427
             82  K  1 XYZ     0.00000     0.00000

          ----- MULLIKEN ATOMIC OVERLAP POPULATIONS -----
          (OFF-DIAGONAL ELEMENTS NEED TO BE MULTIPLIED BY 2)

             1

    1    9.0000000

          TOTAL MULLIKEN AND LOWDIN ATOMIC POPULATIONS
       ATOM         MULL.POP.    CHARGE          LOW.POP.     CHARGE
    1 K             9.000000   -0.000000         9.000000   -0.000000

          MULLIKEN SPHERICAL HARMONIC POPULATIONS
       ATOM           S       P       D      F      G      H      I    TOTAL
    1 K             3.00    6.00    0.00   0.00   0.00   0.00   0.00    9.00

          -------------------------------
          BOND ORDER AND VALENCE ANALYSIS     BOND ORDER THRESHOLD=0.050
          -------------------------------

                   BOND                       BOND                       BOND
  ATOM PAIR DIST  ORDER      ATOM PAIR DIST  ORDER      ATOM PAIR DIST  ORDER

                       TOTAL       BONDED        FREE
      ATOM            VALENCE     VALENCE     VALENCE
    1 K                 1.000       0.000       1.000

          -----------------------------------------
          ATOMIC SPIN DENSITY AT THE NUCLEUS (A.U.)
          -----------------------------------------
                            SPIN DENS    ALPHA DENS     BETA DENS
    1  K            9.0     0.0000071       0.00017       0.00016

          ---------------------
          ELECTROSTATIC MOMENTS
          ---------------------

 POINT   1           X           Y           Z (BOHR)    CHARGE
                 0.000000    0.000000    0.000000       -0.00 (A.U.)
         DX          DY          DZ         /D/  (DEBYE)
     0.000000    0.000000    0.000000    0.000000
 ...... END OF PROPERTY EVALUATION ......
 STEP CPU TIME =     0.01 TOTAL CPU TIME =        1.3 (    0.0 MIN)
 TOTAL WALL CLOCK TIME=        2.0 SECONDS, CPU UTILIZATION IS  65.48%
                580000  WORDS OF DYNAMIC MEMORY USED
 EXECUTION OF GAMESS TERMINATED NORMALLY Thu Feb 21 12:10:51 2019
 DDI: 263624 bytes (0.3 MB / 0 MWords) used by master data server.

 ----------------------------------------
 CPU timing information for all processes
 ========================================
 0: 1.176 + 0.126 = 1.303
 ----------------------------------------
 ddikick.x: exited gracefully.
----- accounting info -----
Files used on the master node login4.stampede2.tacc.utexas.edu were:
-rw------- 1 aannabe G-801537    3168 Feb 21 12:10 /tmp/K.F05
-rw------- 1 aannabe G-801537 9360832 Feb 21 12:10 /tmp/K.F08
-rw------- 1 aannabe G-801537 2748480 Feb 21 12:10 /tmp/K.F10
Thu Feb 21 12:10:54 CST 2019
0.240u 0.157s 0:05.56 7.0%	0+0k 8+40io 0pf+0w
