
 Primary working directories    : /global/cscratch1/sd/aannabe
 Secondary working directories  : /global/cscratch1/sd/aannabe
 Wavefunction directory         : /global/homes/a/aannabe/wfu/
 Main file repository           : /global/cscratch1/sd/aannabe/

 SHA1      : 19cd028119e0e09f93f0674bd8af7968d9b3eff6
 NAME      : 2015.1.36
 ARCHNAME  : linux/x86_64
 FC        : /opt/cray/pe/craype/2.5.14/bin/ftn
 BLASLIB   : -L/opt/intel/compilers_and_libraries_2018.1.163/linux/mkl/lib/intel64 -Wl,-_start-group -lmkl_intel_ilp64 -lmkl_intel_thread -lmkl_core -Wl,-_end-group -liomp5
 id        : lbl

 Nodes     nprocs
 nid00463     1

 Using customized tuning parameters: mindgm=7; mindgv=16; mindgc=1; mindgr=1; noblas=0; minvec=7
 default implementation of scratch files=df  

 ***,K
 memory,8,g
 gthresh,twoint=1.e-12
 
 gprint,basis,orbitals
 gexpec,ekin,pot
 
 angstrom
 geometry={
 1                                                                               ! Number of atoms
 K 0.0 0.0 0.0
 }
 
 basis={
 
 Including file /global/homes/a/aannabe/repos/pseudopotentiallibrary/recipes/K/ccECP/K.ccECP.molpro
 
                                     !include,/global/homes/a/aannabe/repos/pseudopotentiallibrary/recipes/K/ccECP/K.cc-pVTZ.molpro
 Including file /global/homes/a/aannabe/repos/pseudopotentiallibrary/recipes/K/ccECP/K.cc-pCVTZ.molpro
                                 !include,/global/homes/a/aannabe/repos/pseudopotentiallibrary/recipes/K/ccECP/K.aug-cc-pVTZ.molpro
 
 
 }
 
 {hf
 wf,9,1,1
 occ,2,1,1,0,1,0,0,0
 closed,1,1,1,0,1,0,0,0
 }
 scf(i)=energy
 
 _CC_NORM_MAX=2.0
  !NOTE: Perturbative MRCC works only with UHF reference. So, here we will trick MRCC by doing zero UHF iteration right after ROHF.
 
 {uhf
 wf,9,1,1
 occ,2,1,1,0,1,0,0,0
 closed,1,1,1,0,1,0,0,0
 maxit,0
 }
 scf(i)=energy
 
 {mrcc,method=CCSDT(Q),dir=mrccdir                                               !,restart=1
 orbital,ignore_error=1                                                          !Ignore the fact that UHF WF is not converged
 maxit,100
 core
 }
 posthf(i)=energy
 
 table,scf,posthf,ekin,pot
 save,3.csv,new
 
 

 Variables initialized (889), CPU time= 0.01 sec
 Commands  initialized (702), CPU time= 0.00 sec, 572 directives.
 Default parameters read. Elapsed time= 0.12 sec

 Checking input...
 Passed
1


                                         ***  PROGRAM SYSTEM MOLPRO  ***
                                       Copyright, TTI GmbH Stuttgart, 2015
                                    Version 2015.1 linked Dec 29 2018 15:55:43


 **********************************************************************************************************************************
 LABEL *   K                                                                             
  64 bit serial version                                                                  DATE: 25-Jun-19          TIME: 11:56:32  
 **********************************************************************************************************************************

 SHA1:             19cd028119e0e09f93f0674bd8af7968d9b3eff6
 **********************************************************************************************************************************

 THRESHOLDS:

 ZERO    =  1.00D-12  ONEINT  =  1.00D-12  TWOINT  =  1.00D-12  PREFAC  =  1.00D-14  LOCALI  =  1.00D-09  EORDER  =  1.00D-04
 ENERGY  =  0.00D+00  ETEST   =  0.00D+00  EDENS   =  0.00D+00  THRDEDEF=  1.00D-06  GRADIENT=  1.00D-02  STEP    =  1.00D-03
 ORBITAL =  1.00D-05  CIVEC   =  1.00D-05  COEFF   =  1.00D-04  PRINTCI =  5.00D-02  PUNCHCI =  9.90D+01  OPTGRAD =  3.00D-04
 OPTENERG=  1.00D-06  OPTSTEP =  3.00D-04  THRGRAD =  1.00D-10  COMPRESS=  1.00D-11  VARMIN  =  1.00D-07  VARMAX  =  1.00D-03
 THRDOUB =  0.00D+00  THRDIV  =  1.00D-05  THRRED  =  1.00D-07  THRPSP  =  1.00D+00  THRDC   =  1.00D-10  THRCS   =  1.00D-10
 THRNRM  =  1.00D-08  THREQ   =  0.00D+00  THRDE   =  1.00D+00  THRREF  =  1.00D-05  SPARFAC =  1.00D+00  THRDLP  =  1.00D-07
 THRDIA  =  1.00D-10  THRDLS  =  1.00D-07  THRGPS  =  0.00D+00  THRKEX  =  0.00D+00  THRDIS  =  2.00D-01  THRVAR  =  1.00D-10
 THRLOC  =  1.00D-06  THRGAP  =  1.00D-06  THRLOCT = -1.00D+00  THRGAPT = -1.00D+00  THRORB  =  1.00D-06  THRMLTP =  0.00D+00
 THRCPQCI=  1.00D-10  KEXTA   =  0.00D+00  THRCOARS=  0.00D+00  SYMTOL  =  1.00D-06  GRADTOL =  1.00D-06  THROVL  =  1.00D-08
 THRORTH =  1.00D-08  GRID    =  1.00D-06  GRIDMAX =  1.00D-03  DTMAX   =  0.00D+00  THROCCDE=  1.00D-01  THROCCDE=  1.00D-01



 ZUNIT=ANG
 

Geometry recognized as XYZ


 Variable memory set to 8000000000 words,  buffer space   230000 words

 SETTING BASIS          =    USERDEF


 Recomputing integrals since basis changed


 Using spherical harmonics



 PROGRAM * SEWARD (Integral evaluation for generally contracted gaussian basis sets)     Author: Roland Lindh, 1990

 Geometry written to block  1 of record 700

 Orientation using atomic masses  
 Molecule type: Atom
 Symmetry elements: X,Y,Z
 Rotational constants:       0.0000000      0.0000000      0.0000000 GHz  (calculated with average atomic masses)

 Point group  D2h 



 ATOMIC COORDINATES

 NR  ATOM    CHARGE       X              Y              Z

   1  K       9.00    0.000000000    0.000000000    0.000000000


          K   CORE POTENTIAL

          d POTENTIAL

 POWERS             1              3              2              2
 EXPONENTIALS   7.273863       11.17298       7.706175       5.624917    
 COEFFICIENTS   9.000000       65.46477      -10.84434      -15.96316    

          s - d POTENTIAL

 POWERS             2              2
 EXPONENTIALS   11.44251       6.537124    
 COEFFICIENTS   11.86687       90.07677    

          p - d POTENTIAL

 POWERS             2              2
 EXPONENTIALS   9.631219       4.508811    
 COEFFICIENTS   11.53420       27.72024    


 BASIS DATA

   Nr Sym  Nuc  Type         Exponents   Contraction coefficients

    1.1 Ag    1  1s          33.190598     0.000935   -0.000135
    2.1 Ag                   17.266513    -0.017461    0.003276
                              8.982438     0.152998   -0.031275
                              4.672871    -0.340507    0.073045
                              2.430935    -0.228634    0.049052
                              1.264628     0.226730   -0.053203
                              0.657889     0.549104   -0.136782
                              0.342249     0.423104   -0.166300
                              0.178046     0.091041   -0.154697
                              0.092623     0.003455    0.001790
                              0.048185    -0.000284    0.408870
                              0.025067     0.000555    0.567152
                              0.013040     0.000003    0.184208
    3.1 Ag    1  1s           1.308177     1.000000
    4.1 Ag    1  1s           0.824788     1.000000
    5.1 Ag    1  1s           0.520018     1.000000
    6.1 Ag    1  1s           0.065911     1.000000
    7.1 Ag    1  1s           0.031297     1.000000
    8.1 Ag    1  1s           0.014861     1.000000
    9.1 Ag    1  3d0         25.002828     0.000029
                             10.959775    -0.000302
                              4.804124     0.004830
                              2.105846     0.014022
                              0.923080     0.025891
                              0.404624     0.036054
                              0.177364     0.048627
                              0.077746     0.102430
                              0.034079     0.281140
                              0.014938     0.512389
                              0.006548     0.252656
   10.1 Ag    1  3d2+        25.002828     0.000029
                             10.959775    -0.000302
                              4.804124     0.004830
                              2.105846     0.014022
                              0.923080     0.025891
                              0.404624     0.036054
                              0.177364     0.048627
                              0.077746     0.102430
                              0.034079     0.281140
                              0.014938     0.512389
                              0.006548     0.252656
   11.1 Ag    1  3d0          1.794937     1.000000
   12.1 Ag    1  3d2+         1.794937     1.000000
   13.1 Ag    1  3d0          0.589584     1.000000
   14.1 Ag    1  3d2+         0.589584     1.000000
   15.1 Ag    1  3d0          0.067129     1.000000
   16.1 Ag    1  3d2+         0.067129     1.000000
   17.1 Ag    1  3d0          0.011669     1.000000
   18.1 Ag    1  3d2+         0.011669     1.000000
    1.2 B3u   1  2px         25.955983     0.000053   -0.000011
    2.2 B3u                  12.863527     0.003597   -0.000501
                              6.375036    -0.040586    0.006011
                              3.159405    -0.042208    0.005705
                              1.565770     0.209658   -0.032890
                              0.775980     0.395095   -0.059125
                              0.384568     0.375044   -0.067980
                              0.190588     0.156825   -0.048525
                              0.094453     0.019669    0.021828
                              0.046810     0.001254    0.278276
                              0.023199     0.000291    0.486404
                              0.011497    -0.000010    0.318327
    3.2 B3u   1  2px          1.784995     1.000000
    4.2 B3u   1  2px          0.787254     1.000000
    5.2 B3u   1  2px          0.347210     1.000000
    6.2 B3u   1  2px          0.065260     1.000000
    7.2 B3u   1  2px          0.028736     1.000000
    8.2 B3u   1  2px          0.012653     1.000000
    9.2 B3u   1  4f1+         1.176422     1.000000
   10.2 B3u   1  4f3+         1.176422     1.000000
   11.2 B3u   1  4f1+         0.070437     1.000000
   12.2 B3u   1  4f3+         0.070437     1.000000
    1.3 B2u   1  2py         25.955983     0.000053   -0.000011
    2.3 B2u                  12.863527     0.003597   -0.000501
                              6.375036    -0.040586    0.006011
                              3.159405    -0.042208    0.005705
                              1.565770     0.209658   -0.032890
                              0.775980     0.395095   -0.059125
                              0.384568     0.375044   -0.067980
                              0.190588     0.156825   -0.048525
                              0.094453     0.019669    0.021828
                              0.046810     0.001254    0.278276
                              0.023199     0.000291    0.486404
                              0.011497    -0.000010    0.318327
    3.3 B2u   1  2py          1.784995     1.000000
    4.3 B2u   1  2py          0.787254     1.000000
    5.3 B2u   1  2py          0.347210     1.000000
    6.3 B2u   1  2py          0.065260     1.000000
    7.3 B2u   1  2py          0.028736     1.000000
    8.3 B2u   1  2py          0.012653     1.000000
    9.3 B2u   1  4f1-         1.176422     1.000000
   10.3 B2u   1  4f3-         1.176422     1.000000
   11.3 B2u   1  4f1-         0.070437     1.000000
   12.3 B2u   1  4f3-         0.070437     1.000000
    1.4 B1g   1  3d2-        25.002828     0.000029
                             10.959775    -0.000302
                              4.804124     0.004830
                              2.105846     0.014022
                              0.923080     0.025891
                              0.404624     0.036054
                              0.177364     0.048627
                              0.077746     0.102430
                              0.034079     0.281140
                              0.014938     0.512389
                              0.006548     0.252656
    2.4 B1g   1  3d2-         1.794937     1.000000
    3.4 B1g   1  3d2-         0.589584     1.000000
    4.4 B1g   1  3d2-         0.067129     1.000000
    5.4 B1g   1  3d2-         0.011669     1.000000
    1.5 B1u   1  2pz         25.955983     0.000053   -0.000011
    2.5 B1u                  12.863527     0.003597   -0.000501
                              6.375036    -0.040586    0.006011
                              3.159405    -0.042208    0.005705
                              1.565770     0.209658   -0.032890
                              0.775980     0.395095   -0.059125
                              0.384568     0.375044   -0.067980
                              0.190588     0.156825   -0.048525
                              0.094453     0.019669    0.021828
                              0.046810     0.001254    0.278276
                              0.023199     0.000291    0.486404
                              0.011497    -0.000010    0.318327
    3.5 B1u   1  2pz          1.784995     1.000000
    4.5 B1u   1  2pz          0.787254     1.000000
    5.5 B1u   1  2pz          0.347210     1.000000
    6.5 B1u   1  2pz          0.065260     1.000000
    7.5 B1u   1  2pz          0.028736     1.000000
    8.5 B1u   1  2pz          0.012653     1.000000
    9.5 B1u   1  4f0          1.176422     1.000000
   10.5 B1u   1  4f2+         1.176422     1.000000
   11.5 B1u   1  4f0          0.070437     1.000000
   12.5 B1u   1  4f2+         0.070437     1.000000
    1.6 B2g   1  3d1+        25.002828     0.000029
                             10.959775    -0.000302
                              4.804124     0.004830
                              2.105846     0.014022
                              0.923080     0.025891
                              0.404624     0.036054
                              0.177364     0.048627
                              0.077746     0.102430
                              0.034079     0.281140
                              0.014938     0.512389
                              0.006548     0.252656
    2.6 B2g   1  3d1+         1.794937     1.000000
    3.6 B2g   1  3d1+         0.589584     1.000000
    4.6 B2g   1  3d1+         0.067129     1.000000
    5.6 B2g   1  3d1+         0.011669     1.000000
    1.7 B3g   1  3d1-        25.002828     0.000029
                             10.959775    -0.000302
                              4.804124     0.004830
                              2.105846     0.014022
                              0.923080     0.025891
                              0.404624     0.036054
                              0.177364     0.048627
                              0.077746     0.102430
                              0.034079     0.281140
                              0.014938     0.512389
                              0.006548     0.252656
    2.7 B3g   1  3d1-         1.794937     1.000000
    3.7 B3g   1  3d1-         0.589584     1.000000
    4.7 B3g   1  3d1-         0.067129     1.000000
    5.7 B3g   1  3d1-         0.011669     1.000000
    1.8 Au    1  4f2-         1.176422     1.000000
    2.8 Au    1  4f2-         0.070437     1.000000

 NUCLEAR CHARGE:                    9
 NUMBER OF PRIMITIVE AOS:         183
 NUMBER OF SYMMETRY AOS:          162
 NUMBER OF CONTRACTIONS:           71   (  18Ag  +  12B3u +  12B2u +   5B1g +  12B1u +   5B2g +   5B3g +   2Au  )
 NUMBER OF CORE ORBITALS:           4   (   1Ag  +   1B3u +   1B2u +   0B1g +   1B1u +   0B2g +   0B3g +   0Au  )
 NUMBER OF VALENCE ORBITALS:        1   (   1Ag  +   0B3u +   0B2u +   0B1g +   0B1u +   0B2g +   0B3g +   0Au  )


 NUCLEAR REPULSION ENERGY    0.00000000

 EXTRA SYMMETRY OF AOS IN SYMMETRY 1:   1 1 1 1 1 1 1 1 2 3   2 3 2 3 2 3 2 3
 EXTRA SYMMETRY OF AOS IN SYMMETRY 2:   1 1 1 1 1 1 1 1 2 3   2 3
 EXTRA SYMMETRY OF AOS IN SYMMETRY 3:   1 1 1 1 1 1 1 1 2 3   2 3
 EXTRA SYMMETRY OF AOS IN SYMMETRY 5:   1 1 1 1 1 1 1 1 2 3   2 3

 Eigenvalues of metric

         1 0.971E-04 0.147E-02 0.659E-02 0.925E-02 0.925E-02 0.181E-01 0.185E+00 0.383E+00
         2 0.174E-04 0.154E-02 0.338E-01 0.654E-01 0.368E+00 0.693E+00 0.969E+00 0.969E+00
         3 0.174E-04 0.154E-02 0.338E-01 0.654E-01 0.368E+00 0.693E+00 0.969E+00 0.969E+00
         4 0.925E-02 0.383E+00 0.729E+00 0.157E+01 0.231E+01
         5 0.174E-04 0.154E-02 0.338E-01 0.654E-01 0.368E+00 0.693E+00 0.969E+00 0.969E+00
         6 0.925E-02 0.383E+00 0.729E+00 0.157E+01 0.231E+01
         7 0.925E-02 0.383E+00 0.729E+00 0.157E+01 0.231E+01
         8 0.969E+00 0.103E+01


 Contracted 2-electron integrals neglected if value below      1.0D-12
 AO integral compression algorithm  1   Integral accuracy      1.0D-12

     4.719 MB (compressed) written to integral file ( 60.4%)


 NUMBER OF SORTED TWO-ELECTRON INTEGRALS:     450861.     BUFFER LENGTH:  32768
 NUMBER OF SEGMENTS:   1  SEGMENT LENGTH:     450861      RECORD LENGTH: 524288

 Memory used in sort:       1.01 MW

 SORT1 READ      946933. AND WROTE      373936. INTEGRALS IN      2 RECORDS. CPU TIME:     0.02 SEC, REAL TIME:     0.04 SEC
 SORT2 READ      373936. AND WROTE      450861. INTEGRALS IN     18 RECORDS. CPU TIME:     0.03 SEC, REAL TIME:     0.07 SEC

 FILE SIZES:   FILE 1:    24.7 MBYTE,  FILE 4:     8.4 MBYTE,   TOTAL:     33.2 MBYTE

 OPERATOR DM      FOR CENTER  0  COORDINATES:    0.000000    0.000000    0.000000
 OPERATOR EKIN    FOR CENTER  0  COORDINATES:    0.000000    0.000000    0.000000
 OPERATOR POT     FOR CENTER  0  COORDINATES:    0.000000    0.000000    0.000000


 **********************************************************************************************************************************
 DATASETS  * FILE   NREC   LENGTH (MB)   RECORD NAMES
              1      20       22.17       500      610      700      900      950      970     1000      129      960     1100   
                                          VAR    BASINP    GEOM    SYMINP    ZMAT    AOBASIS   BASIS     P2S    ABASIS      S 
                                         1400     1410     1420     1200     1210     1080     1600     1650     1300     1700   
                                         EKIN       V       ECP      H0       H01     AOSYM     SMH    MOLCAS    ERIS     OPER   

 PROGRAMS   *        TOTAL       INT
 CPU TIMES  *         3.13      3.04
 REAL TIME  *        25.67 SEC
 DISK USED  *        33.45 MB      
 **********************************************************************************************************************************


 PROGRAM * RHF-SCF (OPEN SHELL)       Authors: W. Meyer, H.-J. Werner


 NUMBER OF ELECTRONS:       5+    4-    SPACE SYMMETRY=1    SPIN SYMMETRY: Doublet 
 CONVERGENCE THRESHOLDS:    1.00E-05 (Density)    1.00E-07 (Energy)
 MAX. NUMBER OF ITERATIONS:       60
 INTERPOLATION TYPE:            DIIS
 INTERPOLATION STEPS:              2 (START)      1 (STEP)
 LEVEL SHIFTS:                 -0.60 (CLOSED) -0.30 (OPEN) 

 Number of closed-shell orbitals:    4 (   1   1   1   0   1   0   0   0 )
 Number of open-shell orbitals:      1 (   1   0   0   0   0   0   0   0 )



   Atom=K  basis=ECP10MDF_GUESS    lmin=0  lmax=1

 Orbital guess generated from atomic densities. Full valence occupancy:    2   1   1   0   1   0   0   0


 Molecular orbital dump at record        2100.2

 ITERATION    DDIFF          GRAD             ENERGY        2-EL.EN.            DIPOLE MOMENTS         DIIS   ORB.
    1      0.000D+00      0.000D+00       -27.93308482     36.664180    0.00000    0.00000    0.00000    0    start
    2      0.000D+00      0.414D-02       -27.93378800     36.783958    0.00000    0.00000    0.00000    1    diag,B
    3      0.234D-01      0.675D-03       -27.93410266     36.836106    0.00000    0.00000    0.00000    2    diag,B
    4      0.558D-02      0.444D-03       -27.93442473     36.897378    0.00000    0.00000    0.00000    3    diag,B
    5      0.529D-02      0.276D-03       -27.93461534     36.967010    0.00000    0.00000    0.00000    4    diag,B
    6      0.679D-02      0.670D-04       -27.93462205     36.977762    0.00000    0.00000    0.00000    5    diag,B
    7      0.234D-02      0.148D-04       -27.93462228     36.978017    0.00000    0.00000    0.00000    6    fixocc
    8      0.803D-03      0.620D-05       -27.93462232     36.978001    0.00000    0.00000    0.00000    7    diag,B
    9      0.433D-03      0.135D-05       -27.93462232     36.977998    0.00000    0.00000    0.00000    8    diag,B
   10      0.775D-04      0.145D-06       -27.93462232     36.977994    0.00000    0.00000    0.00000    9    orth
   11      0.672D-05      0.218D-07       -27.93462232     36.977994    0.00000    0.00000    0.00000    0    orth

 Final alpha occupancy:   2   1   1   0   1   0   0   0
 Final beta  occupancy:   1   1   1   0   1   0   0   0

 !RHF STATE 1.1 Energy                -27.934622321547
 Nuclear energy                         0.00000000
 One-electron energy                  -46.42361940
 Two-electron energy                   18.48899708
 Virial quotient                       -2.66765828
 !RHF STATE 1.1 Dipole moment           0.00000000     0.00000000     0.00000000
 Dipole moment /Debye                   0.00000000     0.00000000     0.00000000
 

 !RHF expec          <1.1|EKIN|1.1>    10.471589475119
 
 !RHF expec           <1.1|POT|1.1>    -6.839130465609

 ELECTRON ORBITALS
 =================


   Orb  Occ    Energy  Couls-En    Coefficients

                                   1 1s      1 1s      1 1s      1 1s      1 1s      1 1s      1 1s      1 1s      1 3d0     1 3d2+ 
                                   1 3d0     1 3d2+    1 3d0     1 3d2+    1 3d0     1 3d2+    1 3d0     1 3d2+ 

   1.1   2    -1.7842   -7.9979  1.000156  0.000491  0.000155 -0.000335  0.000229 -0.000044 -0.000362 -0.000143 -0.000000  0.000000
                                 0.000000 -0.000000  0.000000  0.000000  0.000000  0.000000  0.000000 -0.000000

   2.1   +    -0.1476   -2.0608  0.000077  1.000205  0.000101 -0.000220  0.000143 -0.000120  0.000037 -0.000172 -0.000000 -0.000000
                                 0.000000  0.000000  0.000000  0.000000  0.000000 -0.000000  0.000000  0.000000

                                   1 2px     1 2px     1 2px     1 2px     1 2px     1 2px     1 2px     1 2px     1 4f1+    1 4f3+ 
                                   1 4f1+    1 4f3+ 

   1.2   2    -0.9549   -6.3021  1.000104  0.000358  0.000012 -0.000049  0.000001 -0.000061 -0.000184 -0.000155  0.000000  0.000000
                                 0.000000 -0.000000

                                   1 2py     1 2py     1 2py     1 2py     1 2py     1 2py     1 2py     1 2py     1 4f1-    1 4f3- 
                                   1 4f1-    1 4f3- 

   1.3   2    -0.9549   -6.3021  1.000104  0.000358  0.000012 -0.000049  0.000001 -0.000061 -0.000184 -0.000155  0.000000 -0.000000
                                 0.000000  0.000000

                                   1 2pz     1 2pz     1 2pz     1 2pz     1 2pz     1 2pz     1 2pz     1 2pz     1 4f0     1 4f2+ 
                                   1 4f0     1 4f2+ 

   1.5   2    -0.9549   -6.3021  1.000104  0.000358  0.000012 -0.000049  0.000001 -0.000061 -0.000184 -0.000155  0.000000  0.000000
                                -0.000000  0.000000

 HOMO      2.1    -0.147629 =      -4.0172eV
 LUMO      2.2     0.011575 =       0.3150eV
 LUMO-HOMO         0.159204 =       4.3322eV


 **********************************************************************************************************************************
 DATASETS  * FILE   NREC   LENGTH (MB)   RECORD NAMES
              1      20       22.17       500      610      700      900      950      970     1000      129      960     1100   
                                          VAR    BASINP    GEOM    SYMINP    ZMAT    AOBASIS   BASIS     P2S    ABASIS      S 
                                         1400     1410     1420     1200     1210     1080     1600     1650     1300     1700   
                                         EKIN       V       ECP      H0       H01     AOSYM     SMH    MOLCAS    ERIS     OPER   

              2       4        2.78       700     1000      520     2100   
                                         GEOM     BASIS   MCVARS     RHF  

 PROGRAMS   *        TOTAL        HF       INT
 CPU TIMES  *         3.20      0.07      3.04
 REAL TIME  *        26.01 SEC
 DISK USED  *        33.45 MB      
 **********************************************************************************************************************************
 SETTING SCF(I)         =       -27.93462232  AU                              
 SETTING _CC_NORM_MAX   =         2.00000000                                  


 PROGRAM * UHF-SCF       Authors: W. Meyer, H.-J. Werner


 NUMBER OF ELECTRONS:       5+    4-    SPACE SYMMETRY=1    SPIN SYMMETRY: Doublet 
 CONVERGENCE THRESHOLDS:    1.00E-05 (Density)    1.00E-07 (Energy)
 MAX. NUMBER OF ITERATIONS:        0
 INTERPOLATION TYPE:            DIIS
 INTERPOLATION STEPS:              2 (START)      1 (STEP)
 LEVEL SHIFTS:                  0.20 (ALPHA)   0.20 (BETA) 

 Number of closed-shell orbitals:    4 (   1   1   1   0   1   0   0   0 )
 Number of open-shell orbitals:      1 (   1   0   0   0   0   0   0   0 )


 Molecular orbitals read from record     2100.2  Type=RHF/CANONICAL (state 1.1)

 Molecular orbital dump at record        2200.2

 Initial alpha occupation   2   1   1   0   1   0   0   0
 Initial beta  occupation   1   1   1   0   1   0   0   0

 ITERATION    DDIFF          GRAD             ENERGY        2-EL.EN.            DIPOLE MOMENTS         DIIS
    1      0.000D+00      0.000D+00       -27.93462232     36.977994    0.00000    0.00000    0.00000    0
 
 Final alpha occupancy:   2   1   1   0   1   0   0   0
 Final beta  occupancy:   1   1   1   0   1   0   0   0

 !UHF STATE 1.1 Energy                -27.934622321547
 Nuclear energy                         0.00000000
 One-electron energy                  -46.42361940
 Two-electron energy                   18.48899708
 Virial quotient                       -2.66765828
 !UHF STATE 1.1 Dipole moment           0.00000000     0.00000000     0.00000000
 Dipole moment /Debye                   0.00000000     0.00000000     0.00000000
 

 !UHF expec          <1.1|EKIN|1.1>    10.471589475119
 
 !UHF expec           <1.1|POT|1.1>    -6.839130465609

 ELECTRON ORBITALS FOR POSITIVE SPIN
 ===================================


   Orb  Occ    Energy  Couls-En    Coefficients

                                   1 1s      1 1s      1 1s      1 1s      1 1s      1 1s      1 1s      1 1s      1 3d0     1 3d2+ 
                                   1 3d0     1 3d2+    1 3d0     1 3d2+    1 3d0     1 3d2+    1 3d0     1 3d2+ 

   1.1   +    -1.7842   -7.9979  1.000156  0.000491  0.000155 -0.000335  0.000229 -0.000044 -0.000362 -0.000143 -0.000000  0.000000
                                 0.000000 -0.000000  0.000000  0.000000  0.000000  0.000000  0.000000 -0.000000

   2.1   +    -0.1476   -2.0608  0.000077  1.000205  0.000101 -0.000220  0.000143 -0.000120  0.000037 -0.000172 -0.000000 -0.000000
                                 0.000000  0.000000  0.000000  0.000000  0.000000 -0.000000  0.000000  0.000000

                                   1 2px     1 2px     1 2px     1 2px     1 2px     1 2px     1 2px     1 2px     1 4f1+    1 4f3+ 
                                   1 4f1+    1 4f3+ 

   1.2   +    -0.9549   -6.3021  1.000104  0.000358  0.000012 -0.000049  0.000001 -0.000061 -0.000184 -0.000155  0.000000  0.000000
                                 0.000000 -0.000000

                                   1 2py     1 2py     1 2py     1 2py     1 2py     1 2py     1 2py     1 2py     1 4f1-    1 4f3- 
                                   1 4f1-    1 4f3- 

   1.3   +    -0.9549   -6.3021  1.000104  0.000358  0.000012 -0.000049  0.000001 -0.000061 -0.000184 -0.000155  0.000000 -0.000000
                                 0.000000  0.000000

                                   1 2pz     1 2pz     1 2pz     1 2pz     1 2pz     1 2pz     1 2pz     1 2pz     1 4f0     1 4f2+ 
                                   1 4f0     1 4f2+ 

   1.5   +    -0.9549   -6.3021  1.000104  0.000358  0.000012 -0.000049  0.000001 -0.000061 -0.000184 -0.000155  0.000000  0.000000
                                -0.000000  0.000000

 ELECTRON ORBITALS FOR NEGATIVE SPIN
 ===================================


   Orb  Occ    Energy  Couls-En    Coefficients

                                   1 1s      1 1s      1 1s      1 1s      1 1s      1 1s      1 1s      1 1s      1 3d0     1 3d2+ 
                                   1 3d0     1 3d2+    1 3d0     1 3d2+    1 3d0     1 3d2+    1 3d0     1 3d2+ 

   1.1   -    -1.7842   -7.9979  1.000156  0.000491  0.000155 -0.000335  0.000229 -0.000044 -0.000362 -0.000143 -0.000000  0.000000
                                 0.000000 -0.000000  0.000000  0.000000  0.000000  0.000000  0.000000 -0.000000

                                   1 2px     1 2px     1 2px     1 2px     1 2px     1 2px     1 2px     1 2px     1 4f1+    1 4f3+ 
                                   1 4f1+    1 4f3+ 

   1.2   -    -0.9549   -6.3021  1.000104  0.000358  0.000012 -0.000049  0.000001 -0.000061 -0.000184 -0.000155  0.000000  0.000000
                                 0.000000 -0.000000

                                   1 2py     1 2py     1 2py     1 2py     1 2py     1 2py     1 2py     1 2py     1 4f1-    1 4f3- 
                                   1 4f1-    1 4f3- 

   1.3   -    -0.9549   -6.3021  1.000104  0.000358  0.000012 -0.000049  0.000001 -0.000061 -0.000184 -0.000155  0.000000 -0.000000
                                 0.000000  0.000000

                                   1 2pz     1 2pz     1 2pz     1 2pz     1 2pz     1 2pz     1 2pz     1 2pz     1 4f0     1 4f2+ 
                                   1 4f0     1 4f2+ 

   1.5   -    -0.9549   -6.3021  1.000104  0.000358  0.000012 -0.000049  0.000001 -0.000061 -0.000184 -0.000155  0.000000  0.000000
                                -0.000000  0.000000

 HOMO      2.1    -0.147629 =      -4.0172eV
 LUMO     -2.1    -0.147629 =      -4.0172eV
 LUMO-HOMO         0.000000 =       0.0000eV

 EXPECTATION VALUE OF S**2:             0.75000000

 Occupation number threshold for canonical orbitals:  1.999000 (occupied),  0.001000 (virtual)

 Number of pseudo-canonical orbitals per symmetry:    1   1   1   0   1   0   0   0
 Number of active natural orbitals per symmetry:      1   0   0   0   0   0   0   0

 NATURAL CHARGE ORBITALS
 =======================


   Orb     Occ        Energy       Coefficients

                                   1 1s      1 1s      1 1s      1 1s      1 1s      1 1s      1 1s      1 1s      1 3d0     1 3d2+ 
                                   1 3d0     1 3d2+    1 3d0     1 3d2+    1 3d0     1 3d2+    1 3d0     1 3d2+ 

   1.1  2.00000    -1.784221     1.000156  0.000491  0.000155 -0.000335  0.000229 -0.000044 -0.000362 -0.000143 -0.000000  0.000000
                                 0.000000 -0.000000  0.000000  0.000000  0.000000  0.000000  0.000000 -0.000000

   2.1  1.00000    -0.061363     0.000077  1.000205  0.000101 -0.000220  0.000143 -0.000120  0.000037 -0.000172 -0.000000 -0.000000
                                 0.000000  0.000000  0.000000  0.000000  0.000000 -0.000000  0.000000  0.000000

                                   1 2px     1 2px     1 2px     1 2px     1 2px     1 2px     1 2px     1 2px     1 4f1+    1 4f3+ 
                                   1 4f1+    1 4f3+ 

   1.2  2.00000    -0.954926     1.000104  0.000358  0.000012 -0.000049  0.000001 -0.000061 -0.000184 -0.000155  0.000000  0.000000
                                 0.000000 -0.000000

                                   1 2py     1 2py     1 2py     1 2py     1 2py     1 2py     1 2py     1 2py     1 4f1-    1 4f3- 
                                   1 4f1-    1 4f3- 

   1.3  2.00000    -0.954926     1.000104  0.000358  0.000012 -0.000049  0.000001 -0.000061 -0.000184 -0.000155  0.000000 -0.000000
                                 0.000000  0.000000

                                   1 2pz     1 2pz     1 2pz     1 2pz     1 2pz     1 2pz     1 2pz     1 2pz     1 4f0     1 4f2+ 
                                   1 4f0     1 4f2+ 

   1.5  2.00000    -0.954926     1.000104  0.000358  0.000012 -0.000049  0.000001 -0.000061 -0.000184 -0.000155  0.000000  0.000000
                                -0.000000  0.000000

 Natural orbitals saved to record    2200.2 (Orbital set 3)

 Orbital spaces for UNO-CAS (Min. occupation: 0.020  Max. occupation: 1.980):

 Closed:        1   1   1   0   1   0   0   0
 Active:        1   0   0   0   0   0   0   0

 No convergence



 **********************************************************************************************************************************
 DATASETS  * FILE   NREC   LENGTH (MB)   RECORD NAMES
              1      20       22.17       500      610      700      900      950      970     1000      129      960     1100   
                                          VAR    BASINP    GEOM    SYMINP    ZMAT    AOBASIS   BASIS     P2S    ABASIS      S 
                                         1400     1410     1420     1200     1210     1080     1600     1650     1300     1700   
                                         EKIN       V       ECP      H0       H01     AOSYM     SMH    MOLCAS    ERIS     OPER   

              2       5        5.32       700     1000      520     2100     2200   
                                         GEOM     BASIS   MCVARS     RHF      UHF  

 PROGRAMS   *        TOTAL       UHF        HF       INT
 CPU TIMES  *         3.22      0.02      0.07      3.04
 REAL TIME  *        26.17 SEC
 DISK USED  *        33.45 MB      
 **********************************************************************************************************************************
 SETTING SCF(I)         =       -27.93462232  AU                              


 PROGRAM * MRCC (General Multireference Coupled Cluster)    Author: M. Kallay, 2000-2005

 ***  Initialisation ***

   0 Spin projections
 
 Molecular orbitals read from record     2200.2  Type=UHF/ALPHA (state 1.1)

 ?Warning: UHF not converged
 Molecular orbitals read from record     2200.2  Type=UHF/BETA (state 1.1)

 ?Warning: UHF not converged
 
 Frozen orbitals:              0 (  0  0  0  0  0  0  0  0)
 Active orbitals:             71 ( 18 12 12  5 12  5  5  2)
 Active electrons:             9
 Spin quantum number:          0.5

 Transformed integrals will be written to file mrccdir/mrcc_56078/fort.55

 Load integrals                3.3 sec
 Transform integrals           3.5 sec
 Storage for integrals:        2580022
 Remaining memory:           *********

 Core energy:               0.00000000
 
 MRCC Input:
     4     0     0     0     3     0     0     1     0     0     0     1     1     0     0     7     0     0   0.000     0   64000
  ex.lev,nsing,ntrip, rest,method,dens,conver,symm, diag, CS ,spatial, HF, ndoub,nacto,nactv, tol, maxex, sacc, freq,  dboc,   mem
  2  1  0  0  0  0  0  0  0  0  0  0  0  0  0  0  0  0  2  0  0  0  0  0  0  0  0  0  0  0  2  0  0  0  0  0  0  0  0  0  0  0  0  0  0  0  0  2  0  0  0  0  0  0  0  0  0  0  0  0  0  0  0  0  0  0  0  0  0  0  0
 MRCC Input end
 Variable memory released
 MRCC now being run, temporary output in /global/cscratch1/sd/aannabe/mrccdir/mrcc_56078/mrcc.out
 **********************************************************************
                          MRCC program system
 **********************************************************************

                              Written by
  Mihaly Kallay, Zoltan Rolik, Jozsef Csontos, Peter Nagy, Gyula Samu,
      David Mester, Jozsef Csoka, Bernat Szabo, Istvan Ladjanszki,
       Lorant Szegedy, Bence Ladoczki, Klara Petrov, Mate Farkas,
                    Pal D. Mezei, and Bence Hegely

        Department of Physical Chemistry and Materials Science
            Budapest University of Technology and Economics
                  Budapest P.O.Box 91, H-1521 Hungary

                              www.mrcc.hu

                       Release date: May 23, 2018

 ************************ 2019-06-25 11:57:30 *************************
 Executing goldstone...

 Generation of CC equations in terms of H and T...
 Generation of antisymmetrized Goldstone diagrams...
 Number of diagrams in T^1 equations:    15
 Number of diagrams in T^2 equations:    38
 Number of diagrams in T^3 equations:    49
 Number of diagrams in T^4 equations:     5
 Translation of diagrams to factorized equations...
 Optimizing intermediate calculation...
 Number of floating-point operations per iteration step:   1.6549E+11
 Probable CPU time per iteration step (hours):      1.65
 Required memory (Mbytes):    2581.3
 Number of intermediates:                                  79
 Number of intermediates to be stored:                     32
 Length of intermediate file (Mbytes):      60.9

 ************************ 2019-06-25 11:57:31 *************************
 Executing xmrcc...

 **********************************************************************
 CC(3)(4) calculation


 Allocation of2581.3 Mbytes of memory...
 Number of spinorbitals:                   142
 Number of alpha electrons:                        5
 Number of beta electrons:                         4
 Spin multiplicity:                     2
 z-component of spin:  0.5
 Spatial symmetry:                      1
 Convergence criterion:  1.0E-07
 Construction of occupation graphs...
 Number of                     0 -fold excitations:                      1
 Number of                     1 -fold excitations:                    115
 Number of                     2 -fold excitations:                  16519
 Number of                     3 -fold excitations:                1351248
 Total number of configurations:                1367883
 Calculation of coupling coefficients...
 Length of intermediate file (Mbytes):      47.0

 ======================================================================

 Spin case  1   Alpha:  0   Beta:  4
 Number of excitations:                  95382
 Spin case  2   Alpha:  1   Beta:  3
 Number of excitations:                7866305
 Spin case  3   Alpha:  2   Beta:  2
 Number of excitations:               35570811
 Spin case  4   Alpha:  3   Beta:  1
 Number of excitations:               15308360
 Spin case  5   Alpha:  4   Beta:  0
 Number of excitations:                 449840
 Number of                     4 -fold excitations:               59290698

 Memory requirements /Mbyte/:
               Minimal        Optimal
 Real*8:         92.0702       193.9566
 Integer:        27.7867
 Total:         119.8569       221.7432


 ************************ 2019-06-25 11:57:34 *************************
 Executing mrcc...

 **********************************************************************
 CCSDT(Q) calculation


 Allocation of  194.0 Mbytes of memory...
 Number of spinorbitals: 142
 Number of alpha electrons:  5
 Number of beta  electrons:  4
 Spin multiplicity: 2
 z-component of spin:  0.5
 Spatial symmetry: 1
 Convergence criterion:  1.0E-07
 Construction of occupation graphs...
 Number of 0-fold excitations: 1
 Number of 1-fold excitations: 115
 Number of 2-fold excitations: 16519
 Number of 3-fold excitations: 1351248
 Total number of determinants: 1367883
 Calculation of coupling coefficients...
 Initial cluster amplitudes are generated.
 Length of intermediate file (Mbytes):      47.0
 Reading integral list from unit 55...
 Sorting integrals...
 Sorting integrals...
 Sorting integrals...
 Sorting integrals...
 Energy of reference determinant [au]:     -27.934622321547
 Calculation of MP denominators...

 Starting CC iteration...
 ======================================================================
 Norm of residual vector:     1.08650052
 CPU time [min]:     0.327                   Wall time [min]:     0.331

 Iteration  1  CC energy:   -28.17739896  Energy decrease:   0.24277663
 ======================================================================
 Norm of residual vector:     0.26145369
 CPU time [min]:     0.566                   Wall time [min]:     0.774

 Iteration  2  CC energy:   -28.19148510  Energy decrease:   0.01408615
 ======================================================================
 Norm of residual vector:     0.05800162
 CPU time [min]:     0.825                   Wall time [min]:     1.049

 Iteration  3  CC energy:   -28.20393192  Energy decrease:   0.01244681
 ======================================================================
 Norm of residual vector:     0.01100171
 CPU time [min]:     1.074                   Wall time [min]:     1.306

 Iteration  4  CC energy:   -28.20427253  Energy decrease:   0.00034061
 ======================================================================
 Norm of residual vector:     0.00440326
 CPU time [min]:     1.337                   Wall time [min]:     1.579

 Iteration  5  CC energy:   -28.20360514  Energy decrease:   0.00066738
 ======================================================================
 Norm of residual vector:     0.00130993
 CPU time [min]:     1.590                   Wall time [min]:     1.843

 Iteration  6  CC energy:   -28.20360165  Energy decrease:   0.00000349
 ======================================================================
 Norm of residual vector:     0.00042241
 CPU time [min]:     1.851                   Wall time [min]:     2.115

 Iteration  7  CC energy:   -28.20359124  Energy decrease:   0.00001041
 ======================================================================
 Norm of residual vector:     0.00011333
 CPU time [min]:     2.113                   Wall time [min]:     2.387

 Iteration  8  CC energy:   -28.20358944  Energy decrease:   0.00000181
 ======================================================================
 Norm of residual vector:     0.00002646
 CPU time [min]:     2.374                   Wall time [min]:     2.658

 Iteration  9  CC energy:   -28.20359029  Energy decrease:   0.00000085
 ======================================================================
 Norm of residual vector:     0.00000543
 CPU time [min]:     2.644                   Wall time [min]:     2.936

 Iteration 10  CC energy:   -28.20359024  Energy decrease:   0.00000006
 ======================================================================
 Norm of residual vector:     0.00000117
 CPU time [min]:     2.898                   Wall time [min]:     3.201

 Iteration 11  CC energy:   -28.20359020  Energy decrease:   0.00000004
 ======================================================================
 Norm of residual vector:     0.00000029
 CPU time [min]:     3.174                   Wall time [min]:     3.487

 Iteration 12  CC energy:   -28.20359020  Energy decrease:   9.0057E-10
 ======================================================================
 Norm of residual vector:     0.00000007
 CPU time [min]:     3.414                   Wall time [min]:     3.732

 Iteration 13  CC energy:   -28.20359020  Energy decrease:   1.9126E-09
 ======================================================================

 Iteration has converged in 13 steps.

 Final results:
 Total CCSDT energy [au]:            -28.203590201414
 Total MP2 energy [au]:              -28.177398955953

 Perturbative corrections are calculated...
 ======================================================================
 Spin case  1   Alpha:  0   Beta:  4
 Number of excitations:        95382
 CPU time [min]:     3.991                   Wall time [min]:     4.315
 ======================================================================
 Spin case  2   Alpha:  1   Beta:  3
 Number of excitations:        7866305
 CPU time [min]:    12.987                   Wall time [min]:    13.316
 ======================================================================
 Spin case  3   Alpha:  2   Beta:  2
 Number of excitations:        35570811
 CPU time [min]:    32.058                   Wall time [min]:    32.400
 ======================================================================
 Spin case  4   Alpha:  3   Beta:  1
 Number of excitations:        15308360
 CPU time [min]:    42.853                   Wall time [min]:    43.220
 ======================================================================
 Spin case  5   Alpha:  4   Beta:  0
 Number of excitations:        449840
 CPU time [min]:    43.684                   Wall time [min]:    44.061
 ======================================================================
 Number of 4-fold excitations: 59290698
 CPU time [min]:    43.684                   Wall time [min]:    44.061

 Total CCSDT[Q] energy [au]:         -28.203674618262
 Total CCSDT(Q) energy [au]:         -28.203838267793

 ************************ 2019-06-25 12:41:41 *************************
                      Normal termination of mrcc.
 **********************************************************************
 !CCSDT STATE 1.1 Energy              -28.203590201414
 !MP2 STATE 1.1 Energy                -28.177398955953
 !CCSDT[Q] STATE 1.1 Energy           -28.203674618262
 !CCSDT(Q) STATE 1.1 Energy           -28.203838267793
 
 CPU-time for MRCC:           2621.0 sec
 Elapsed-time for MRCC:       2652.4 sec

 Variable memory set to 8000000000 words,  buffer space   230000 words



 **********************************************************************************************************************************
 DATASETS  * FILE   NREC   LENGTH (MB)   RECORD NAMES
              1      20       22.17       500      610      700      900      950      970     1000      129      960     1100   
                                          VAR    BASINP    GEOM    SYMINP    ZMAT    AOBASIS   BASIS     P2S    ABASIS      S 
                                         1400     1410     1420     1200     1210     1080     1600     1650     1300     1700   
                                         EKIN       V       ECP      H0       H01     AOSYM     SMH    MOLCAS    ERIS     OPER   

              2       5        5.32       700     1000      520     2100     2200   
                                         GEOM     BASIS   MCVARS     RHF      UHF  

 PROGRAMS   *        TOTAL      MRCC       UHF        HF       INT
 CPU TIMES  *      2629.07   2625.85      0.02      0.07      3.04
 REAL TIME  *      2708.84 SEC
 DISK USED  *        33.45 MB      
 **********************************************************************************************************************************
 SETTING POSTHF(I)      =       -28.20383827  AU                              
                                                                                                                                                                                                                                                                

        SCF            POSTHF        EKIN          POT
    -27.93462232   -28.20383827   10.47158948   -6.83913047
                                                  

 CCSDT(Q)/USERDEF energy=    -28.203838267793

        CCSDT(Q)        UHF-SCF         HF-SCF  
    -28.20383827    -27.93462232    -27.93462232
 **********************************************************************************************************************************
 Molpro calculation terminated
 Variable memory released
