TACC:  Starting up job 3912554 
TACC:  Starting parallel tasks... 
  Input file(s): Br.log.qmc.in-wfj.xml 

=====================================================
                    QMCPACK 3.7.9

       (c) Copyright 2003-  QMCPACK developers

                    Please cite:
 J. Kim et al. J. Phys. Cond. Mat. 30 195901 (2018)
      https://doi.org/10.1088/1361-648X/aab9c3

  Git branch: develop
  Last git commit: 9a049a3fb3e0d7110d61a924a52203fd8296522a
  Last git commit date: Mon Jul 1 13:42:43 2019 -0500
  Last git commit subject: Merge pull request #1686 from ye-luo/rename-to-LCAOHDFParser
=====================================================
  Global options 

  Total number of MPI ranks = 1024
  Number of MPI groups      = 1
  MPI group ID              = 0
  Number of ranks in group  = 1024
  MPI ranks per node        = 64
  OMP 1st level threads     = 1
  OMP nested threading disabled or only 1 thread on the 2nd level

  Precision used in this calculation, see definitions in the manual:
  Base precision      = double
  Full precision      = double

  Structure-of-arrays (SoA) optimization enabled

  Input XML = Br.log.qmc.in-wfj.xml

  Project = Br.log
  date    = 2019-07-01 20:14:07 CDT
  host    = c435-003.stampede2.tacc.utexas.edu

 Random Number
 -------------
  Offset for the random number seeds based on time: 991

  Range of prime numbers to use as seeds over processors and threads = 7867-17539


 Particle Set 
 ------------
  Name: ion0
  All the species have the same mass 1
  Particle set size: 1

 Particle Set 
 ------------
  Name: e
  All the species have the same mass 1
  Particle set size: 7

 Wavefunction setup: 
 ------------------- 
  Name: psi0
  LCAO: SoaAtomicBasisSet<MultiQuintic,1>
Reading BasisSet from HDF5 file:Br.log.h5
<input node="atomicBasisSet" name="gaussian" expandYlm="pyscf" angular="spherical" elementType="Br" normalized="no" type="Numerical" expM="0" />
  AO BasisSet for Br
   Spherical Harmonics contain (-1)^m factor
   Angular momentum m expanded as -l, ... ,l, with the exception of L=1 (1,-1,0)
   Grid is created by the input paremters in h5
    Using log grid ri = 1e-06 rf = 100 npts = 1001
   R(n,l,m,s) 0 0 0 0
   R(n,l,m,s) 1 0 0 0
   R(n,l,m,s) 2 1 0 0
   R(n,l,m,s) 3 1 0 0
   R(n,l,m,s) 4 2 0 0
Expanding Ylm as L=1 as (1,-1,0) and L>1 as -l,-l+1,...,l-1,l
   Adding 1 spherical orbitals
   Adding 1 spherical orbitals
   Adding 3 spherical orbitals
   Adding 3 spherical orbitals
   Adding 5 spherical orbitals
  Setting cutoff radius 13.1826

   Maximum Angular Momentum  = 2
   Number of Radial functors = 5
   Basis size                = 13

  Created SPOSet builder named 'LCAOBSet' of type molecularorbital
Reuse SPOSetBuilder "LCAOBSet" type MolecularOrbital
  Building SPOSet '' with '' basis set.
Reuse SPOSetBuilder "LCAOBSet" type MolecularOrbital
  Building SPOSet '' with '' basis set.
  Creating a determinant updet group=0 sposet=updet
  Reusing a SPO set updet
Using DiracDeterminant with DelayedUpdate engine
Using rank-1 Sherman-Morrison Fahy update

  Creating a determinant downdet group=1 sposet=downdet
  Reusing a SPO set downdet
Using DiracDeterminant with DelayedUpdate engine
Using rank-1 Sherman-Morrison Fahy update

  FermionWF = SlaterDet

   Jastrow
   -------
    Name: J2   Type: Two-Body   Function: Bspline

    Radial function for species: u - u
     Number of parameters: 10
     Cusp: -0.25
     Cutoff radius: 10

     Name                        Value Type Recompute Use Index
     ---- ---------------------------- ---- --------- --- -----
     uu_0                 4.154247e-01    1         1  ON     0
     uu_1                 2.221080e-01    1         1  ON     1
     uu_2                 9.317669e-02    1         1  ON     2
     uu_3                 1.658912e-04    1         1  ON     3
     uu_4                -6.763046e-02    1         1  ON     4
     uu_5                -1.147974e-01    1         1  ON     5
     uu_6                -1.437416e-01    1         1  ON     6
     uu_7                -1.556771e-01    1         1  ON     7
     uu_8                -1.433175e-01    1         1  ON     8
     uu_9                -1.072981e-01    1         1  ON     9

    Radial function for species: u - d
     Number of parameters: 10
     Cusp: -0.5
     Cutoff radius: 10

     Name                        Value Type Recompute Use Index
     ---- ---------------------------- ---- --------- --- -----
     ud_0                 6.930068e-01    1         1  ON     0
     ud_1                 3.532980e-01    1         1  ON     1
     ud_2                 1.570049e-01    1         1  ON     2
     ud_3                 4.073902e-02    1         1  ON     3
     ud_4                -4.179479e-02    1         1  ON     4
     ud_5                -1.035104e-01    1         1  ON     5
     ud_6                -1.491579e-01    1         1  ON     6
     ud_7                -1.784526e-01    1         1  ON     7
     ud_8                -1.808121e-01    1         1  ON     8
     ud_9                -1.616115e-01    1         1  ON     9


   Jastrow
   -------
    Name: J1   Type: One-Body   Function: Bspline

    Radial function for element: Br
     Number of parameters: 10
     Cusp: 0
     Cutoff radius: 10

      Name                        Value Type Recompute Use Index
     ----- ---------------------------- ---- --------- --- -----
     eBr_0                -1.070389e+00    1         1  ON     0
     eBr_1                -9.190160e-01    1         1  ON     1
     eBr_2                -5.632688e-01    1         1  ON     2
     eBr_3                -1.498427e-01    1         1  ON     3
     eBr_4                 2.025311e-01    1         1  ON     4
     eBr_5                 4.839430e-01    1         1  ON     5
     eBr_6                 6.776804e-01    1         1  ON     6
     eBr_7                 7.374902e-01    1         1  ON     7
     eBr_8                 5.249542e-01    1         1  ON     8
     eBr_9                 1.026147e-01    1         1  ON     9


   Jastrow
   -------
    Name: J3   Type: eeI   Function: polynomial

     Ion: Br   electron-electron: u - u
      Number of parameters for e-e: 3, for e-I: 3
      Cutoff radius: 10

Expected 26 parameters, but found 0 in PolynomialFunctor3D.
         Name                        Value Type Recompute Use Index
      ------- ---------------------------- ---- --------- --- -----
       uuBr_0                 0.000000e+00    1         1  ON     0
       uuBr_1                 0.000000e+00    1         1  ON     1
       uuBr_2                 0.000000e+00    1         1  ON     2
       uuBr_3                 0.000000e+00    1         1  ON     3
       uuBr_4                 0.000000e+00    1         1  ON     4
       uuBr_5                 0.000000e+00    1         1  ON     5
       uuBr_6                 0.000000e+00    1         1  ON     6
       uuBr_7                 0.000000e+00    1         1  ON     7
       uuBr_8                 0.000000e+00    1         1  ON     8
       uuBr_9                 0.000000e+00    1         1  ON     9
      uuBr_10                 0.000000e+00    1         1  ON    10
      uuBr_11                 0.000000e+00    1         1  ON    11
      uuBr_12                 0.000000e+00    1         1  ON    12
      uuBr_13                 0.000000e+00    1         1  ON    13
      uuBr_14                 0.000000e+00    1         1  ON    14
      uuBr_15                 0.000000e+00    1         1  ON    15
      uuBr_16                 0.000000e+00    1         1  ON    16
      uuBr_17                 0.000000e+00    1         1  ON    17
      uuBr_18                 0.000000e+00    1         1  ON    18
      uuBr_19                 0.000000e+00    1         1  ON    19
      uuBr_20                 0.000000e+00    1         1  ON    20
      uuBr_21                 0.000000e+00    1         1  ON    21
      uuBr_22                 0.000000e+00    1         1  ON    22
      uuBr_23                 0.000000e+00    1         1  ON    23
      uuBr_24                 0.000000e+00    1         1  ON    24
      uuBr_25                 0.000000e+00    1         1  ON    25

     Ion: Br   electron-electron: u - d
      Number of parameters for e-e: 3, for e-I: 3
      Cutoff radius: 10

Expected 26 parameters, but found 0 in PolynomialFunctor3D.
         Name                        Value Type Recompute Use Index
      ------- ---------------------------- ---- --------- --- -----
       udBr_0                 0.000000e+00    1         1  ON     0
       udBr_1                 0.000000e+00    1         1  ON     1
       udBr_2                 0.000000e+00    1         1  ON     2
       udBr_3                 0.000000e+00    1         1  ON     3
       udBr_4                 0.000000e+00    1         1  ON     4
       udBr_5                 0.000000e+00    1         1  ON     5
       udBr_6                 0.000000e+00    1         1  ON     6
       udBr_7                 0.000000e+00    1         1  ON     7
       udBr_8                 0.000000e+00    1         1  ON     8
       udBr_9                 0.000000e+00    1         1  ON     9
      udBr_10                 0.000000e+00    1         1  ON    10
      udBr_11                 0.000000e+00    1         1  ON    11
      udBr_12                 0.000000e+00    1         1  ON    12
      udBr_13                 0.000000e+00    1         1  ON    13
      udBr_14                 0.000000e+00    1         1  ON    14
      udBr_15                 0.000000e+00    1         1  ON    15
      udBr_16                 0.000000e+00    1         1  ON    16
      udBr_17                 0.000000e+00    1         1  ON    17
      udBr_18                 0.000000e+00    1         1  ON    18
      udBr_19                 0.000000e+00    1         1  ON    19
      udBr_20                 0.000000e+00    1         1  ON    20
      udBr_21                 0.000000e+00    1         1  ON    21
      udBr_22                 0.000000e+00    1         1  ON    22
      udBr_23                 0.000000e+00    1         1  ON    23
      udBr_24                 0.000000e+00    1         1  ON    24
      udBr_25                 0.000000e+00    1         1  ON    25

  QMCHamiltonian::addOperator Kinetic to H, physical Hamiltonian 
  QMCHamiltonian::addOperator ElecElec to H, physical Hamiltonian 
QMCHamiltonian::addOperatorType added type coulomb named ElecElec
  CoulombAA for ion0 is not created.  Number of particles == 1 and nonPeriodic

  ECPotential builder for pseudopotential 

  Adding pseudopotential for Br
   Linear grid  ri=0 rf=10 npts = 10001
    ECPComponentBuilder::buildSemiLocalAndLocal 
    Assuming Hartree unit
   Number of angular momentum channels 4
   Maximum angular momentum channel 3
   Creating a Linear Grid Rmax=2.93
  Using global grid with delta = 0.001
   Making L=3 a local potential with a radial cutoff of 9.999
    Non-local pseudopotential parameters
    Maximum angular mementum = 2
    Number of non-local channels = 3
       l(0)=0
       l(1)=1
       l(2)=2
    Cutoff radius = 2.93
    Spherical grids and weights: 
                        1                 0                 0       0.08333333333
                       -1   1.224646799e-16                 0       0.08333333333
             0.4472135955       0.894427191                 0       0.08333333333
            -0.4472135955      0.7236067977      0.5257311121       0.08333333333
             0.4472135955      0.2763932023      0.8506508084       0.08333333333
            -0.4472135955     -0.2763932023      0.8506508084       0.08333333333
             0.4472135955     -0.7236067977      0.5257311121       0.08333333333
            -0.4472135955      -0.894427191   1.095357397e-16       0.08333333333
             0.4472135955     -0.7236067977     -0.5257311121       0.08333333333
            -0.4472135955     -0.2763932023     -0.8506508084       0.08333333333
             0.4472135955      0.2763932023     -0.8506508084       0.08333333333
            -0.4472135955      0.7236067977     -0.5257311121       0.08333333333
    Maximum cutoff radius 2.93
  QMCHamiltonian::addOperator LocalECP to H, physical Hamiltonian 

  Using NonLocalECP potential 
    Maximum grid on a sphere for NonLocalECPotential: 12
  QMCHamiltonian::addOperator NonLocalECP to H, physical Hamiltonian 
QMCHamiltonian::addOperatorType added type pseudo named PseudoPot

  QMCHamiltonian::add2WalkerProperty added
    4 to P::PropertyList 
    0 to P::Collectables 
    starting Index of the observables in P::PropertyList = 9
ParticleSetPool::randomize 
<init source="ion0" target="e">
</init>
  Initialization Execution time = 0.3894 secs
=========================================================
 Summary of QMC systems 
=========================================================
ParticleSetPool has: 

  ParticleSet 'e' contains 7 particles :  u(4) d(3)

    u -1.5159389594e+00  8.2455377990e-01 -5.2209790209e-01
    u -5.3115960653e-01 -4.9801319836e-01  1.1672204451e+00
    u  3.0308251534e-01  6.6430148143e-03  1.2651703414e+00
    u  1.6264371142e+00  1.6285176325e+00  7.9394376449e-01
    d  2.3115406162e-01  7.6511927770e-01 -1.2652548795e-01
    d -1.7065932888e+00  1.9764349353e+00 -8.7011770075e-01
    d  1.2995915946e+00 -6.0433263619e-01 -3.6533220546e-02

  Distance table for dissimilar particles (A-B):
    source: ion0  target: e
    Using structure-of-arrays (SoA) data layout
    Distance computations use open boundary conditions in 3D.

  Distance table for similar particles (A-A):
    source/target: e
    Using structure-of-arrays (SoA) data layout
    Distance computations use open boundary conditions in 3D.


  ParticleSet 'ion0' contains 1 particles :  Br(1)

    Br  0.0000000000e+00  0.0000000000e+00  0.0000000000e+00


  Hamiltonian h0
  Kinetic         Kinetic energy
  ElecElec        CoulombAB source=e

  LocalECP        LocalECPotential: ion0
  NonLocalECP     NonLocalECPotential: ion0


=========================================================
  Start VMC
  File Root Br.log.s000 append = no 
=========================================================
  Adding 1 walkers to 0 existing sets
  Total number of walkers: 1.0240000000e+03
  Total weight: 1.0240000000e+03
  Resetting Properties of the walkers 1 x 13

<vmc function="put">
  qmc_counter=0  my_counter=0
  time step      = 1.5000000000e-01
  blocks         = 200
  steps          = 1
  substeps       = 5
  current        = 0
  target samples = 1.0240000000e+03
  walkers/mpi    = 1

  stepsbetweensamples = 200
<parameter name="blocks" condition="int">200</parameter>
<parameter name="blocks_between_recompute" condition="int">0</parameter>
<parameter name="check_properties" condition="int">100</parameter>
<parameter name="checkproperties" condition="int">100</parameter>
<parameter name="current" condition="int">0</parameter>
<parameter name="dmcwalkersperthread" condition="real">1.0000000000e+00</parameter>
<parameter name="maxcpusecs" condition="real">3.6000000000e+05</parameter>
<parameter name="record_configs" condition="int">0</parameter>
<parameter name="record_walkers" condition="int">200</parameter>
<parameter name="recordconfigs" condition="int">0</parameter>
<parameter name="recordwalkers" condition="int">200</parameter>
<parameter name="rewind" condition="int">0</parameter>
<parameter name="samples" condition="real">1.0240000000e+03</parameter>
<parameter name="samplesperthread" condition="real">1.0000000000e+00</parameter>
<parameter name="steps" condition="int">1</parameter>
<parameter name="stepsbetweensamples" condition="int">200</parameter>
<parameter name="store_configs" condition="int">0</parameter>
<parameter name="storeconfigs" condition="int">0</parameter>
<parameter name="sub_steps" condition="int">5</parameter>
<parameter name="substeps" condition="int">5</parameter>
<parameter name="tau" condition="au">1.5000000000e-01</parameter>
<parameter name="time_step" condition="au">1.5000000000e-01</parameter>
<parameter name="timestep" condition="au">1.5000000000e-01</parameter>
<parameter name="use_drift" condition="string">no</parameter>
<parameter name="usedrift" condition="string">no</parameter>
<parameter name="walkers" condition="int">1</parameter>
<parameter name="warmup_steps" condition="int">100</parameter>
<parameter name="warmupsteps" condition="int">100</parameter>
  DumpConfig==false Nothing (configurations, state) will be saved.
  Walker Samples are dumped every 200 steps.
</vmc>
  Set drift_modifier UNR parameter a = 1.0000000000e+00
  Initial partition of walkers 0 1 

  Using Particle by Particle moves
  Walker moves without drift
  Total Sample Size   =1024
  Walker distribution on root = 0 1 
  Using Locality Approximation
===== Memory Usage after the buffer registration =====
Available memory on node 0, free + buffers : 53389 MB
Memory footprint by rank 0 on node 0       : 571 MB
==================================================
  Anonymous Buffer size per walker : 2688 Bytes.
MEMORY increase 0 MB VMC::resetRun
====================================================
  SimpleFixedNodeBranch::finalize after a VMC block
    QMC counter        = 0
    time step          = 0.15
    reference energy   = -13.3116
    reference variance = 0.0733884
====================================================
  QMC Execution time = 2.2772e+00 secs
Loop execution max-interations = 20

=========================================================
  Start QMCFixedSampleLinearOptimize
  File Root Br.log.s001 append = no 
=========================================================
  Skip QMCDriver::putQMCInfo 
  Resetting Properties of the walkers 1 x 13

=========================================================
  Start VMC
  File Root Br.log.s001 append = no 
=========================================================
  Using the current 1 walkers.
  Total number of walkers: 1.0240e+03
  Total weight: 1.0240e+03
  Resetting Properties of the walkers 1 x 13

<vmc function="put">
  qmc_counter=0  my_counter=0
  time step      = 1.5000e-01
  blocks         = 500
  steps          = 1
  substeps       = 5
  current        = 0
  target samples = 5.1200e+05
  walkers/mpi    = 1

  stepsbetweensamples = 1
<parameter name="blocks" condition="int">500</parameter>
<parameter name="blocks_between_recompute" condition="int">0</parameter>
<parameter name="check_properties" condition="int">100</parameter>
<parameter name="checkproperties" condition="int">100</parameter>
<parameter name="current" condition="int">0</parameter>
<parameter name="dmcwalkersperthread" condition="real">5.0000e+02</parameter>
<parameter name="maxcpusecs" condition="real">3.6000e+05</parameter>
<parameter name="record_configs" condition="int">0</parameter>
<parameter name="record_walkers" condition="int">1</parameter>
<parameter name="recordconfigs" condition="int">0</parameter>
<parameter name="recordwalkers" condition="int">1</parameter>
<parameter name="rewind" condition="int">0</parameter>
<parameter name="samples" condition="real">5.1200e+05</parameter>
<parameter name="samplesperthread" condition="real">5.0000e+02</parameter>
<parameter name="steps" condition="int">1</parameter>
<parameter name="stepsbetweensamples" condition="int">1</parameter>
<parameter name="store_configs" condition="int">0</parameter>
<parameter name="storeconfigs" condition="int">0</parameter>
<parameter name="sub_steps" condition="int">5</parameter>
<parameter name="substeps" condition="int">5</parameter>
<parameter name="tau" condition="au">1.5000e-01</parameter>
<parameter name="time_step" condition="au">1.5000e-01</parameter>
<parameter name="timestep" condition="au">1.5000e-01</parameter>
<parameter name="use_drift" condition="string">no</parameter>
<parameter name="usedrift" condition="string">no</parameter>
<parameter name="walkers" condition="int">1</parameter>
<parameter name="warmup_steps" condition="int">0</parameter>
<parameter name="warmupsteps" condition="int">0</parameter>
  DumpConfig==false Nothing (configurations, state) will be saved.
  Walker Samples are dumped every 1 steps.
</vmc>
    Restarting, cummulative properties:
      energy     = -1.3312e+01
      variance   = 0.0000e+00
      r2accepted = 1.0000e-10
      r2proposed = 1.0000e-10
  Set drift_modifier UNR parameter a = 1.0000e+00
 Using QMCCostFunction::QMCCostFunction
  Set drift_modifier UNR parameter a = 1.0000e+00
  EstimatorManagerBase::add replace LocalEnergy estimator.
<optimization-report>
<vmc stage="main" blocks="500">
  Cannot make clones again. Use existing 1 clones
  Initial partition of walkers 0 1 

  Using Particle by Particle moves
  Walker moves without drift
  Total Sample Size   =512000
  Walker distribution on root = 0 1 
  Using Locality Approximation
===== Memory Usage after the buffer registration =====
Available memory on node 0, free + buffers : 53375 MB
Memory footprint by rank 0 on node 0       : 572 MB
==================================================
  Anonymous Buffer size per walker : 2688 Bytes.
MEMORY increase 0 MB VMC::resetRun
====================================================
  SimpleFixedNodeBranch::finalize after a VMC block
    QMC counter        = 1
    time step          = 0.15
    reference energy   = -13.2972
    reference variance = 0.0814183
====================================================
  Execution time = 4.1988e+00
</vmc>
<opt stage="setup">
  <log>
   Reading configurations from h5FileRoot Br.log.s001
  QMCCostFunction is created with 1 threads.
  Using Nonlocal PP in Opt: NonLocalECP
   Number of samples loaded to each thread : 500 
  VMC Eavg = -1.3302e+01
  VMC Evar = 1.2683e-01
  Total weights = 5.1200e+05
  Execution time = 1.5126e+00
  </log>
</opt>
<opt stage="main" walkers="512000">
  <log>

*****************************************
Building overlap and Hamiltonian matrices
*****************************************

Among totally 82 optimized parameters, largest LM parameter change : 5.1140e-02 at parameter 24

******************************************************************************
Init Cost =  -1.2631e+01    New Cost =  -1.2636e+01  Delta Cost =  -5.2619e-03
******************************************************************************

The new set of parameters is valid. Updating the trial wave function!

*****************************************************************************
Applying the update for shift_i =   1.0000e-02     and shift_s =   2.5000e-01
*****************************************************************************
  Execution time = 7.1155e+00
  </log>
  <optVariables href="Br.log.s001.opt.xml">
   uu_0                 4.046743e-01 1 1  ON 0
   uu_1                 2.123043e-01 1 1  ON 1
   uu_2                 8.861276e-02 1 1  ON 2
   uu_3                 7.246592e-04 1 1  ON 3
   uu_4                -5.955894e-02 1 1  ON 4
   uu_5                -1.071156e-01 1 1  ON 5
   uu_6                -1.386365e-01 1 1  ON 6
   uu_7                -1.536981e-01 1 1  ON 7
   uu_8                -1.445935e-01 1 1  ON 8
   uu_9                -1.054683e-01 1 1  ON 9
   ud_0                 7.205118e-01 1 1  ON 10
   ud_1                 3.668075e-01 1 1  ON 11
   ud_2                 1.577065e-01 1 1  ON 12
   ud_3                 2.823278e-02 1 1  ON 13
   ud_4                -4.710244e-02 1 1  ON 14
   ud_5                -1.019538e-01 1 1  ON 15
   ud_6                -1.425481e-01 1 1  ON 16
   ud_7                -1.758626e-01 1 1  ON 17
   ud_8                -1.832674e-01 1 1  ON 18
   ud_9                -1.624500e-01 1 1  ON 19
  eBr_0                -1.067864e+00 1 1  ON 20
  eBr_1                -9.312909e-01 1 1  ON 21
  eBr_2                -6.067804e-01 1 1  ON 22
  eBr_3                -1.555859e-01 1 1  ON 23
  eBr_4                 2.536710e-01 1 1  ON 24
  eBr_5                 4.709531e-01 1 1  ON 25
  eBr_6                 6.715390e-01 1 1  ON 26
  eBr_7                 7.409505e-01 1 1  ON 27
  eBr_8                 5.412700e-01 1 1  ON 28
  eBr_9                 1.106485e-01 1 1  ON 29
 uuBr_0                -2.967487e-05 1 1  ON 30
 uuBr_1                 1.715268e-05 1 1  ON 31
 uuBr_2                 2.386084e-05 1 1  ON 32
 uuBr_3                 2.924792e-05 1 1  ON 33
 uuBr_4                 8.854644e-07 1 1  ON 34
 uuBr_5                -2.114063e-06 1 1  ON 35
 uuBr_6                 7.146911e-05 1 1  ON 36
 uuBr_7                -3.864811e-09 1 1  ON 37
 uuBr_8                -1.522381e-05 1 1  ON 38
 uuBr_9                -2.284620e-05 1 1  ON 39
uuBr_10                 1.290338e-05 1 1  ON 40
uuBr_11                -4.172960e-07 1 1  ON 41
uuBr_12                 5.811605e-06 1 1  ON 42
uuBr_13                -4.524410e-05 1 1  ON 43
uuBr_14                -9.006459e-06 1 1  ON 44
uuBr_15                 3.034209e-07 1 1  ON 45
uuBr_16                 4.819505e-05 1 1  ON 46
uuBr_17                -5.617624e-05 1 1  ON 47
uuBr_18                 7.327939e-06 1 1  ON 48
uuBr_19                -1.959743e-06 1 1  ON 49
uuBr_20                 1.002065e-05 1 1  ON 50
uuBr_21                 1.282232e-06 1 1  ON 51
uuBr_22                -1.354011e-07 1 1  ON 52
uuBr_23                -2.396830e-06 1 1  ON 53
uuBr_24                -1.550873e-07 1 1  ON 54
uuBr_25                 4.721262e-08 1 1  ON 55
 udBr_0                -4.139083e-05 1 1  ON 56
 udBr_1                 4.608940e-05 1 1  ON 57
 udBr_2                 4.989343e-05 1 1  ON 58
 udBr_3                 5.074882e-05 1 1  ON 59
 udBr_4                 2.527021e-06 1 1  ON 60
 udBr_5                -5.644748e-06 1 1  ON 61
 udBr_6                 1.686019e-04 1 1  ON 62
 udBr_7                -1.862390e-05 1 1  ON 63
 udBr_8                -1.873855e-05 1 1  ON 64
 udBr_9                -9.307022e-05 1 1  ON 65
udBr_10                 2.386482e-05 1 1  ON 66
udBr_11                -2.152222e-06 1 1  ON 67
udBr_12                 1.028828e-05 1 1  ON 68
udBr_13                -5.151881e-05 1 1  ON 69
udBr_14                -1.483924e-05 1 1  ON 70
udBr_15                 3.790549e-07 1 1  ON 71
udBr_16                 1.374486e-04 1 1  ON 72
udBr_17                -8.170759e-05 1 1  ON 73
udBr_18                 5.058581e-06 1 1  ON 74
udBr_19                -3.762841e-06 1 1  ON 75
udBr_20                -4.479457e-06 1 1  ON 76
udBr_21                 4.624712e-06 1 1  ON 77
udBr_22                -3.393358e-07 1 1  ON 78
udBr_23                 1.695192e-06 1 1  ON 79
udBr_24                -1.066452e-06 1 1  ON 80
udBr_25                 1.579740e-07 1 1  ON 81
  </optVariables>
   Restore the number of walkers to 1, removing 0 walkers.
</opt>
</optimization-report>
  QMC Execution time = 7.128 secs
  Reusing QMCFixedSampleLinearOptimize
 Using QMCCostFunction::QMCCostFunction

=========================================================
  Start QMCFixedSampleLinearOptimize
  File Root Br.log.s002 append = no 
=========================================================
  Skip QMCDriver::putQMCInfo 
  Resetting Properties of the walkers 1 x 13

=========================================================
  Start VMC
  File Root Br.log.s002 append = no 
=========================================================
Using existing walkers 
  Resetting Properties of the walkers 1 x 13

<vmc function="put">
  qmc_counter=1  my_counter=1
  time step      = 1.5000e-01
  blocks         = 500
  steps          = 1
  substeps       = 5
  current        = 0
  target samples = 5.1200e+05
  walkers/mpi    = 1

  stepsbetweensamples = 1
<parameter name="blocks" condition="int">500</parameter>
<parameter name="blocks_between_recompute" condition="int">0</parameter>
<parameter name="check_properties" condition="int">100</parameter>
<parameter name="checkproperties" condition="int">100</parameter>
<parameter name="current" condition="int">0</parameter>
<parameter name="dmcwalkersperthread" condition="real">5.0000e+02</parameter>
<parameter name="maxcpusecs" condition="real">3.6000e+05</parameter>
<parameter name="record_configs" condition="int">0</parameter>
<parameter name="record_walkers" condition="int">1</parameter>
<parameter name="recordconfigs" condition="int">0</parameter>
<parameter name="recordwalkers" condition="int">1</parameter>
<parameter name="rewind" condition="int">0</parameter>
<parameter name="samples" condition="real">5.1200e+05</parameter>
<parameter name="samplesperthread" condition="real">5.0000e+02</parameter>
<parameter name="steps" condition="int">1</parameter>
<parameter name="stepsbetweensamples" condition="int">1</parameter>
<parameter name="store_configs" condition="int">0</parameter>
<parameter name="storeconfigs" condition="int">0</parameter>
<parameter name="sub_steps" condition="int">5</parameter>
<parameter name="substeps" condition="int">5</parameter>
<parameter name="tau" condition="au">1.5000e-01</parameter>
<parameter name="time_step" condition="au">1.5000e-01</parameter>
<parameter name="timestep" condition="au">1.5000e-01</parameter>
<parameter name="use_drift" condition="string">no</parameter>
<parameter name="usedrift" condition="string">no</parameter>
<parameter name="walkers" condition="int">1</parameter>
<parameter name="warmup_steps" condition="int">0</parameter>
<parameter name="warmupsteps" condition="int">0</parameter>
  DumpConfig==false Nothing (configurations, state) will be saved.
  Walker Samples are dumped every 1 steps.
</vmc>
  Set drift_modifier UNR parameter a = 1.0000e+00
  EstimatorManagerBase::add replace LocalEnergy estimator.
  Set drift_modifier UNR parameter a = 1.0000e+00
  EstimatorManagerBase::add replace LocalEnergy estimator.
<optimization-report>
<vmc stage="main" blocks="500">
  Cannot make clones again. Use existing 1 clones
  Initial partition of walkers 0 1 
  Using Particle by Particle moves
  Walker moves without drift
  Total Sample Size   =512000
  Walker distribution on root = 0 1 
  Using Locality Approximation
===== Memory Usage after the buffer registration =====
Available memory on node 0, free + buffers : 52660 MB
Memory footprint by rank 0 on node 0       : 584 MB
==================================================
====================================================
  SimpleFixedNodeBranch::finalize after a VMC block
    QMC counter        = 2
    time step          = 0.15
    reference energy   = -13.3136
    reference variance = 0.0450984
====================================================
  Execution time = 4.1677e+00
</vmc>
<opt stage="setup">
  <log>
   Reading configurations from h5FileRoot Br.log.s002
  QMCCostFunction is created with 1 threads.
  Using Nonlocal PP in Opt: NonLocalECP
   Number of samples loaded to each thread : 500 
  VMC Eavg = -1.3305e+01
  VMC Evar = 1.0458e-01
  Total weights = 5.1200e+05
  Execution time = 1.5120e+00
  </log>
</opt>
<opt stage="main" walkers="512000">
  <log>

*****************************************
Building overlap and Hamiltonian matrices
*****************************************

Among totally 82 optimized parameters, largest LM parameter change : 3.6131e-02 at parameter 22

******************************************************************************
Init Cost =  -1.2635e+01    New Cost =  -1.2635e+01  Delta Cost =  -2.2035e-04
******************************************************************************

The new set of parameters is valid. Updating the trial wave function!

*****************************************************************************
Applying the update for shift_i =   1.0000e-02     and shift_s =   6.2500e-02
*****************************************************************************
  Execution time = 7.0505e+00
  </log>
  <optVariables href="Br.log.s002.opt.xml">
   uu_0                 3.952542e-01 1 1  ON 0
   uu_1                 2.068263e-01 1 1  ON 1
   uu_2                 8.661032e-02 1 1  ON 2
   uu_3                 2.610568e-03 1 1  ON 3
   uu_4                -5.441655e-02 1 1  ON 4
   uu_5                -1.015450e-01 1 1  ON 5
   uu_6                -1.335336e-01 1 1  ON 6
   uu_7                -1.505062e-01 1 1  ON 7
   uu_8                -1.448742e-01 1 1  ON 8
   uu_9                -1.065939e-01 1 1  ON 9
   ud_0                 7.328009e-01 1 1  ON 10
   ud_1                 3.733057e-01 1 1  ON 11
   ud_2                 1.575871e-01 1 1  ON 12
   ud_3                 2.371495e-02 1 1  ON 13
   ud_4                -4.994483e-02 1 1  ON 14
   ud_5                -1.012598e-01 1 1  ON 15
   ud_6                -1.387533e-01 1 1  ON 16
   ud_7                -1.731723e-01 1 1  ON 17
   ud_8                -1.830040e-01 1 1  ON 18
   ud_9                -1.593026e-01 1 1  ON 19
  eBr_0                -1.060184e+00 1 1  ON 20
  eBr_1                -9.525951e-01 1 1  ON 21
  eBr_2                -6.429115e-01 1 1  ON 22
  eBr_3                -1.605684e-01 1 1  ON 23
  eBr_4                 2.893402e-01 1 1  ON 24
  eBr_5                 4.676838e-01 1 1  ON 25
  eBr_6                 6.688280e-01 1 1  ON 26
  eBr_7                 7.425380e-01 1 1  ON 27
  eBr_8                 5.568298e-01 1 1  ON 28
  eBr_9                 1.191877e-01 1 1  ON 29
 uuBr_0                -3.479846e-05 1 1  ON 30
 uuBr_1                 1.822445e-05 1 1  ON 31
 uuBr_2                 2.831203e-05 1 1  ON 32
 uuBr_3                 3.491946e-05 1 1  ON 33
 uuBr_4                 9.164949e-07 1 1  ON 34
 uuBr_5                -1.801703e-06 1 1  ON 35
 uuBr_6                 7.906585e-05 1 1  ON 36
 uuBr_7                 3.625583e-06 1 1  ON 37
 uuBr_8                -1.622881e-05 1 1  ON 38
 uuBr_9                -2.454697e-05 1 1  ON 39
uuBr_10                 1.619490e-05 1 1  ON 40
uuBr_11                -3.233369e-06 1 1  ON 41
uuBr_12                 6.295368e-06 1 1  ON 42
uuBr_13                -5.242464e-05 1 1  ON 43
uuBr_14                -9.652777e-06 1 1  ON 44
uuBr_15                 3.180821e-07 1 1  ON 45
uuBr_16                 5.279048e-05 1 1  ON 46
uuBr_17                -6.473748e-05 1 1  ON 47
uuBr_18                 1.030963e-05 1 1  ON 48
uuBr_19                -2.152864e-06 1 1  ON 49
uuBr_20                 1.224702e-05 1 1  ON 50
uuBr_21                 9.434279e-07 1 1  ON 51
uuBr_22                -1.069339e-07 1 1  ON 52
uuBr_23                -2.932590e-06 1 1  ON 53
uuBr_24                -5.951214e-08 1 1  ON 54
uuBr_25                 3.335122e-08 1 1  ON 55
 udBr_0                -4.772151e-05 1 1  ON 56
 udBr_1                 4.257577e-05 1 1  ON 57
 udBr_2                 5.748487e-05 1 1  ON 58
 udBr_3                 6.575599e-05 1 1  ON 59
 udBr_4                 4.350039e-06 1 1  ON 60
 udBr_5                -5.667211e-06 1 1  ON 61
 udBr_6                 1.842280e-04 1 1  ON 62
 udBr_7                -1.467740e-05 1 1  ON 63
 udBr_8                -2.450296e-05 1 1  ON 64
 udBr_9                -1.040637e-04 1 1  ON 65
udBr_10                 3.369527e-05 1 1  ON 66
udBr_11                -9.009899e-06 1 1  ON 67
udBr_12                 1.343413e-05 1 1  ON 68
udBr_13                -6.683949e-05 1 1  ON 69
udBr_14                -1.809082e-05 1 1  ON 70
udBr_15                 3.862226e-07 1 1  ON 71
udBr_16                 1.654067e-04 1 1  ON 72
udBr_17                -1.072166e-04 1 1  ON 73
udBr_18                 1.417331e-05 1 1  ON 74
udBr_19                -5.635799e-06 1 1  ON 75
udBr_20                -4.704882e-06 1 1  ON 76
udBr_21                 4.463610e-06 1 1  ON 77
udBr_22                -2.161618e-07 1 1  ON 78
udBr_23                 1.963010e-06 1 1  ON 79
udBr_24                -1.057110e-06 1 1  ON 80
udBr_25                 1.455346e-07 1 1  ON 81
  </optVariables>
   Restore the number of walkers to 1, removing 0 walkers.
</opt>
</optimization-report>
  QMC Execution time = 7.062 secs
  Reusing QMCFixedSampleLinearOptimize
 Using QMCCostFunction::QMCCostFunction

=========================================================
  Start QMCFixedSampleLinearOptimize
  File Root Br.log.s003 append = no 
=========================================================
  Skip QMCDriver::putQMCInfo 
  Resetting Properties of the walkers 1 x 13

=========================================================
  Start VMC
  File Root Br.log.s003 append = no 
=========================================================
Using existing walkers 
  Resetting Properties of the walkers 1 x 13

<vmc function="put">
  qmc_counter=2  my_counter=2
  time step      = 1.5000e-01
  blocks         = 500
  steps          = 1
  substeps       = 5
  current        = 0
  target samples = 5.1200e+05
  walkers/mpi    = 1

  stepsbetweensamples = 1
<parameter name="blocks" condition="int">500</parameter>
<parameter name="blocks_between_recompute" condition="int">0</parameter>
<parameter name="check_properties" condition="int">100</parameter>
<parameter name="checkproperties" condition="int">100</parameter>
<parameter name="current" condition="int">0</parameter>
<parameter name="dmcwalkersperthread" condition="real">5.0000e+02</parameter>
<parameter name="maxcpusecs" condition="real">3.6000e+05</parameter>
<parameter name="record_configs" condition="int">0</parameter>
<parameter name="record_walkers" condition="int">1</parameter>
<parameter name="recordconfigs" condition="int">0</parameter>
<parameter name="recordwalkers" condition="int">1</parameter>
<parameter name="rewind" condition="int">0</parameter>
<parameter name="samples" condition="real">5.1200e+05</parameter>
<parameter name="samplesperthread" condition="real">5.0000e+02</parameter>
<parameter name="steps" condition="int">1</parameter>
<parameter name="stepsbetweensamples" condition="int">1</parameter>
<parameter name="store_configs" condition="int">0</parameter>
<parameter name="storeconfigs" condition="int">0</parameter>
<parameter name="sub_steps" condition="int">5</parameter>
<parameter name="substeps" condition="int">5</parameter>
<parameter name="tau" condition="au">1.5000e-01</parameter>
<parameter name="time_step" condition="au">1.5000e-01</parameter>
<parameter name="timestep" condition="au">1.5000e-01</parameter>
<parameter name="use_drift" condition="string">no</parameter>
<parameter name="usedrift" condition="string">no</parameter>
<parameter name="walkers" condition="int">1</parameter>
<parameter name="warmup_steps" condition="int">0</parameter>
<parameter name="warmupsteps" condition="int">0</parameter>
  DumpConfig==false Nothing (configurations, state) will be saved.
  Walker Samples are dumped every 1 steps.
</vmc>
  Set drift_modifier UNR parameter a = 1.0000e+00
  EstimatorManagerBase::add replace LocalEnergy estimator.
  Set drift_modifier UNR parameter a = 1.0000e+00
  EstimatorManagerBase::add replace LocalEnergy estimator.
<optimization-report>
<vmc stage="main" blocks="500">
  Cannot make clones again. Use existing 1 clones
  Initial partition of walkers 0 1 
  Using Particle by Particle moves
  Walker moves without drift
  Total Sample Size   =512000
  Walker distribution on root = 0 1 
  Using Locality Approximation
===== Memory Usage after the buffer registration =====
Available memory on node 0, free + buffers : 52657 MB
Memory footprint by rank 0 on node 0       : 587 MB
==================================================
====================================================
  SimpleFixedNodeBranch::finalize after a VMC block
    QMC counter        = 3
    time step          = 0.15
    reference energy   = -13.2997
    reference variance = 0.0385344
====================================================
  Execution time = 4.1902e+00
</vmc>
<opt stage="setup">
  <log>
   Reading configurations from h5FileRoot Br.log.s003
  QMCCostFunction is created with 1 threads.
  Using Nonlocal PP in Opt: NonLocalECP
   Number of samples loaded to each thread : 500 
  VMC Eavg = -1.3306e+01
  VMC Evar = 7.4717e-02
  Total weights = 5.1200e+05
  Execution time = 1.5401e+00
  </log>
</opt>
<opt stage="main" walkers="512000">
  <log>

*****************************************
Building overlap and Hamiltonian matrices
*****************************************

Among totally 82 optimized parameters, largest LM parameter change : 2.3343e-02 at parameter 21

******************************************************************************
Init Cost =  -1.2637e+01    New Cost =  -1.2637e+01  Delta Cost =  -5.2700e-05
******************************************************************************

The new set of parameters is valid. Updating the trial wave function!

*****************************************************************************
Applying the update for shift_i =   1.0000e-02     and shift_s =   1.5625e-02
*****************************************************************************
  Execution time = 7.1132e+00
  </log>
  <optVariables href="Br.log.s003.opt.xml">
   uu_0                 3.860350e-01 1 1  ON 0
   uu_1                 2.004249e-01 1 1  ON 1
   uu_2                 8.466742e-02 1 1  ON 2
   uu_3                 4.976684e-03 1 1  ON 3
   uu_4                -4.903654e-02 1 1  ON 4
   uu_5                -9.633504e-02 1 1  ON 5
   uu_6                -1.297549e-01 1 1  ON 6
   uu_7                -1.484244e-01 1 1  ON 7
   uu_8                -1.440870e-01 1 1  ON 8
   uu_9                -1.079171e-01 1 1  ON 9
   ud_0                 7.376806e-01 1 1  ON 10
   ud_1                 3.767392e-01 1 1  ON 11
   ud_2                 1.602250e-01 1 1  ON 12
   ud_3                 2.560972e-02 1 1  ON 13
   ud_4                -4.720288e-02 1 1  ON 14
   ud_5                -9.746162e-02 1 1  ON 15
   ud_6                -1.350797e-01 1 1  ON 16
   ud_7                -1.699339e-01 1 1  ON 17
   ud_8                -1.825148e-01 1 1  ON 18
   ud_9                -1.611785e-01 1 1  ON 19
  eBr_0                -1.054027e+00 1 1  ON 20
  eBr_1                -9.759380e-01 1 1  ON 21
  eBr_2                -6.659301e-01 1 1  ON 22
  eBr_3                -1.620513e-01 1 1  ON 23
  eBr_4                 3.079069e-01 1 1  ON 24
  eBr_5                 4.640238e-01 1 1  ON 25
  eBr_6                 6.685326e-01 1 1  ON 26
  eBr_7                 7.450219e-01 1 1  ON 27
  eBr_8                 5.704449e-01 1 1  ON 28
  eBr_9                 1.293277e-01 1 1  ON 29
 uuBr_0                -3.393983e-05 1 1  ON 30
 uuBr_1                 1.713438e-05 1 1  ON 31
 uuBr_2                 2.882572e-05 1 1  ON 32
 uuBr_3                 3.490613e-05 1 1  ON 33
 uuBr_4                 8.547800e-08 1 1  ON 34
 uuBr_5                -1.207027e-06 1 1  ON 35
 uuBr_6                 7.640621e-05 1 1  ON 36
 uuBr_7                 1.134049e-05 1 1  ON 37
 uuBr_8                -1.270208e-05 1 1  ON 38
 uuBr_9                -2.557815e-05 1 1  ON 39
uuBr_10                 1.574699e-05 1 1  ON 40
uuBr_11                -9.118277e-06 1 1  ON 41
uuBr_12                 5.397836e-06 1 1  ON 42
uuBr_13                -5.196567e-05 1 1  ON 43
uuBr_14                -8.224836e-06 1 1  ON 44
uuBr_15                 2.537264e-07 1 1  ON 45
uuBr_16                 5.796420e-05 1 1  ON 46
uuBr_17                -6.556692e-05 1 1  ON 47
uuBr_18                 1.488016e-05 1 1  ON 48
uuBr_19                -2.278801e-06 1 1  ON 49
uuBr_20                 1.067578e-05 1 1  ON 50
uuBr_21                 3.722215e-08 1 1  ON 51
uuBr_22                 2.070271e-08 1 1  ON 52
uuBr_23                -2.328556e-06 1 1  ON 53
uuBr_24                 7.073790e-08 1 1  ON 54
uuBr_25                -4.693185e-10 1 1  ON 55
 udBr_0                -5.185791e-05 1 1  ON 56
 udBr_1                 3.555886e-05 1 1  ON 57
 udBr_2                 5.601443e-05 1 1  ON 58
 udBr_3                 6.991291e-05 1 1  ON 59
 udBr_4                 5.200926e-06 1 1  ON 60
 udBr_5                -5.654556e-06 1 1  ON 61
 udBr_6                 1.725749e-04 1 1  ON 62
 udBr_7                -8.230014e-06 1 1  ON 63
 udBr_8                -2.651588e-05 1 1  ON 64
 udBr_9                -8.974264e-05 1 1  ON 65
udBr_10                 3.662972e-05 1 1  ON 66
udBr_11                -1.019270e-05 1 1  ON 67
udBr_12                 1.384279e-05 1 1  ON 68
udBr_13                -7.465854e-05 1 1  ON 69
udBr_14                -1.801667e-05 1 1  ON 70
udBr_15                 3.363946e-07 1 1  ON 71
udBr_16                 1.484997e-04 1 1  ON 72
udBr_17                -1.099642e-04 1 1  ON 73
udBr_18                 1.578283e-05 1 1  ON 74
udBr_19                -5.845264e-06 1 1  ON 75
udBr_20                 1.658324e-06 1 1  ON 76
udBr_21                 3.855482e-06 1 1  ON 77
udBr_22                -1.232960e-07 1 1  ON 78
udBr_23                 1.169752e-07 1 1  ON 79
udBr_24                -8.324437e-07 1 1  ON 80
udBr_25                 1.085606e-07 1 1  ON 81
  </optVariables>
   Restore the number of walkers to 1, removing 0 walkers.
</opt>
</optimization-report>
  QMC Execution time = 7.126 secs
  Reusing QMCFixedSampleLinearOptimize
 Using QMCCostFunction::QMCCostFunction

=========================================================
  Start QMCFixedSampleLinearOptimize
  File Root Br.log.s004 append = no 
=========================================================
  Skip QMCDriver::putQMCInfo 
  Resetting Properties of the walkers 1 x 13

=========================================================
  Start VMC
  File Root Br.log.s004 append = no 
=========================================================
Using existing walkers 
  Resetting Properties of the walkers 1 x 13

<vmc function="put">
  qmc_counter=3  my_counter=3
  time step      = 1.5000e-01
  blocks         = 500
  steps          = 1
  substeps       = 5
  current        = 0
  target samples = 5.1200e+05
  walkers/mpi    = 1

  stepsbetweensamples = 1
<parameter name="blocks" condition="int">500</parameter>
<parameter name="blocks_between_recompute" condition="int">0</parameter>
<parameter name="check_properties" condition="int">100</parameter>
<parameter name="checkproperties" condition="int">100</parameter>
<parameter name="current" condition="int">0</parameter>
<parameter name="dmcwalkersperthread" condition="real">5.0000e+02</parameter>
<parameter name="maxcpusecs" condition="real">3.6000e+05</parameter>
<parameter name="record_configs" condition="int">0</parameter>
<parameter name="record_walkers" condition="int">1</parameter>
<parameter name="recordconfigs" condition="int">0</parameter>
<parameter name="recordwalkers" condition="int">1</parameter>
<parameter name="rewind" condition="int">0</parameter>
<parameter name="samples" condition="real">5.1200e+05</parameter>
<parameter name="samplesperthread" condition="real">5.0000e+02</parameter>
<parameter name="steps" condition="int">1</parameter>
<parameter name="stepsbetweensamples" condition="int">1</parameter>
<parameter name="store_configs" condition="int">0</parameter>
<parameter name="storeconfigs" condition="int">0</parameter>
<parameter name="sub_steps" condition="int">5</parameter>
<parameter name="substeps" condition="int">5</parameter>
<parameter name="tau" condition="au">1.5000e-01</parameter>
<parameter name="time_step" condition="au">1.5000e-01</parameter>
<parameter name="timestep" condition="au">1.5000e-01</parameter>
<parameter name="use_drift" condition="string">no</parameter>
<parameter name="usedrift" condition="string">no</parameter>
<parameter name="walkers" condition="int">1</parameter>
<parameter name="warmup_steps" condition="int">0</parameter>
<parameter name="warmupsteps" condition="int">0</parameter>
  DumpConfig==false Nothing (configurations, state) will be saved.
  Walker Samples are dumped every 1 steps.
</vmc>
  Set drift_modifier UNR parameter a = 1.0000e+00
  EstimatorManagerBase::add replace LocalEnergy estimator.
  Set drift_modifier UNR parameter a = 1.0000e+00
  EstimatorManagerBase::add replace LocalEnergy estimator.
<optimization-report>
<vmc stage="main" blocks="500">
  Cannot make clones again. Use existing 1 clones
  Initial partition of walkers 0 1 
  Using Particle by Particle moves
  Walker moves without drift
  Total Sample Size   =512000
  Walker distribution on root = 0 1 
  Using Locality Approximation
===== Memory Usage after the buffer registration =====
Available memory on node 0, free + buffers : 52653 MB
Memory footprint by rank 0 on node 0       : 590 MB
==================================================
====================================================
  SimpleFixedNodeBranch::finalize after a VMC block
    QMC counter        = 4
    time step          = 0.15
    reference energy   = -13.3068
    reference variance = 0.053812
====================================================
  Execution time = 4.1774e+00
</vmc>
<opt stage="setup">
  <log>
   Reading configurations from h5FileRoot Br.log.s004
  QMCCostFunction is created with 1 threads.
  Using Nonlocal PP in Opt: NonLocalECP
   Number of samples loaded to each thread : 500 
  VMC Eavg = -1.3307e+01
  VMC Evar = 1.2163e-01
  Total weights = 5.1200e+05
  Execution time = 1.5232e+00
  </log>
</opt>
<opt stage="main" walkers="512000">
  <log>

*****************************************
Building overlap and Hamiltonian matrices
*****************************************

Among totally 82 optimized parameters, largest LM parameter change : 2.0539e+02 at parameter 20

******************************************************************************
Init Cost =  -1.2636e+01    New Cost =  -5.4813e+02  Delta Cost =  -5.3549e+02
******************************************************************************

The new set of parameters is not valid. Revert to the old set!

*****************************************************************************
Applying the update for shift_i =   1.0000e-02     and shift_s =   6.2500e-02
*****************************************************************************
  Execution time = 6.1180e+00
  </log>
  <optVariables href="Br.log.s004.opt.xml">
   uu_0                 3.860350e-01 1 1  ON 0
   uu_1                 2.004249e-01 1 1  ON 1
   uu_2                 8.466742e-02 1 1  ON 2
   uu_3                 4.976684e-03 1 1  ON 3
   uu_4                -4.903654e-02 1 1  ON 4
   uu_5                -9.633504e-02 1 1  ON 5
   uu_6                -1.297549e-01 1 1  ON 6
   uu_7                -1.484244e-01 1 1  ON 7
   uu_8                -1.440870e-01 1 1  ON 8
   uu_9                -1.079171e-01 1 1  ON 9
   ud_0                 7.376806e-01 1 1  ON 10
   ud_1                 3.767392e-01 1 1  ON 11
   ud_2                 1.602250e-01 1 1  ON 12
   ud_3                 2.560972e-02 1 1  ON 13
   ud_4                -4.720288e-02 1 1  ON 14
   ud_5                -9.746162e-02 1 1  ON 15
   ud_6                -1.350797e-01 1 1  ON 16
   ud_7                -1.699339e-01 1 1  ON 17
   ud_8                -1.825148e-01 1 1  ON 18
   ud_9                -1.611785e-01 1 1  ON 19
  eBr_0                -1.054027e+00 1 1  ON 20
  eBr_1                -9.759380e-01 1 1  ON 21
  eBr_2                -6.659301e-01 1 1  ON 22
  eBr_3                -1.620513e-01 1 1  ON 23
  eBr_4                 3.079069e-01 1 1  ON 24
  eBr_5                 4.640238e-01 1 1  ON 25
  eBr_6                 6.685326e-01 1 1  ON 26
  eBr_7                 7.450219e-01 1 1  ON 27
  eBr_8                 5.704449e-01 1 1  ON 28
  eBr_9                 1.293277e-01 1 1  ON 29
 uuBr_0                -3.393983e-05 1 1  ON 30
 uuBr_1                 1.713438e-05 1 1  ON 31
 uuBr_2                 2.882572e-05 1 1  ON 32
 uuBr_3                 3.490613e-05 1 1  ON 33
 uuBr_4                 8.547800e-08 1 1  ON 34
 uuBr_5                -1.207027e-06 1 1  ON 35
 uuBr_6                 7.640621e-05 1 1  ON 36
 uuBr_7                 1.134049e-05 1 1  ON 37
 uuBr_8                -1.270208e-05 1 1  ON 38
 uuBr_9                -2.557815e-05 1 1  ON 39
uuBr_10                 1.574699e-05 1 1  ON 40
uuBr_11                -9.118277e-06 1 1  ON 41
uuBr_12                 5.397836e-06 1 1  ON 42
uuBr_13                -5.196567e-05 1 1  ON 43
uuBr_14                -8.224836e-06 1 1  ON 44
uuBr_15                 2.537264e-07 1 1  ON 45
uuBr_16                 5.796420e-05 1 1  ON 46
uuBr_17                -6.556692e-05 1 1  ON 47
uuBr_18                 1.488016e-05 1 1  ON 48
uuBr_19                -2.278801e-06 1 1  ON 49
uuBr_20                 1.067578e-05 1 1  ON 50
uuBr_21                 3.722215e-08 1 1  ON 51
uuBr_22                 2.070271e-08 1 1  ON 52
uuBr_23                -2.328556e-06 1 1  ON 53
uuBr_24                 7.073790e-08 1 1  ON 54
uuBr_25                -4.693185e-10 1 1  ON 55
 udBr_0                -5.185791e-05 1 1  ON 56
 udBr_1                 3.555886e-05 1 1  ON 57
 udBr_2                 5.601443e-05 1 1  ON 58
 udBr_3                 6.991291e-05 1 1  ON 59
 udBr_4                 5.200926e-06 1 1  ON 60
 udBr_5                -5.654556e-06 1 1  ON 61
 udBr_6                 1.725749e-04 1 1  ON 62
 udBr_7                -8.230014e-06 1 1  ON 63
 udBr_8                -2.651588e-05 1 1  ON 64
 udBr_9                -8.974264e-05 1 1  ON 65
udBr_10                 3.662972e-05 1 1  ON 66
udBr_11                -1.019270e-05 1 1  ON 67
udBr_12                 1.384279e-05 1 1  ON 68
udBr_13                -7.465854e-05 1 1  ON 69
udBr_14                -1.801667e-05 1 1  ON 70
udBr_15                 3.363946e-07 1 1  ON 71
udBr_16                 1.484997e-04 1 1  ON 72
udBr_17                -1.099642e-04 1 1  ON 73
udBr_18                 1.578283e-05 1 1  ON 74
udBr_19                -5.845264e-06 1 1  ON 75
udBr_20                 1.658324e-06 1 1  ON 76
udBr_21                 3.855482e-06 1 1  ON 77
udBr_22                -1.232960e-07 1 1  ON 78
udBr_23                 1.169752e-07 1 1  ON 79
udBr_24                -8.324437e-07 1 1  ON 80
udBr_25                 1.085606e-07 1 1  ON 81
  </optVariables>
   Restore the number of walkers to 1, removing 0 walkers.
</opt>
</optimization-report>
  QMC Execution time = 6.13 secs
  Reusing QMCFixedSampleLinearOptimize
 Using QMCCostFunction::QMCCostFunction

=========================================================
  Start QMCFixedSampleLinearOptimize
  File Root Br.log.s005 append = no 
=========================================================
  Skip QMCDriver::putQMCInfo 
  Resetting Properties of the walkers 1 x 13

=========================================================
  Start VMC
  File Root Br.log.s005 append = no 
=========================================================
Using existing walkers 
  Resetting Properties of the walkers 1 x 13

<vmc function="put">
  qmc_counter=4  my_counter=4
  time step      = 1.5000e-01
  blocks         = 500
  steps          = 1
  substeps       = 5
  current        = 0
  target samples = 5.1200e+05
  walkers/mpi    = 1

  stepsbetweensamples = 1
<parameter name="blocks" condition="int">500</parameter>
<parameter name="blocks_between_recompute" condition="int">0</parameter>
<parameter name="check_properties" condition="int">100</parameter>
<parameter name="checkproperties" condition="int">100</parameter>
<parameter name="current" condition="int">0</parameter>
<parameter name="dmcwalkersperthread" condition="real">5.0000e+02</parameter>
<parameter name="maxcpusecs" condition="real">3.6000e+05</parameter>
<parameter name="record_configs" condition="int">0</parameter>
<parameter name="record_walkers" condition="int">1</parameter>
<parameter name="recordconfigs" condition="int">0</parameter>
<parameter name="recordwalkers" condition="int">1</parameter>
<parameter name="rewind" condition="int">0</parameter>
<parameter name="samples" condition="real">5.1200e+05</parameter>
<parameter name="samplesperthread" condition="real">5.0000e+02</parameter>
<parameter name="steps" condition="int">1</parameter>
<parameter name="stepsbetweensamples" condition="int">1</parameter>
<parameter name="store_configs" condition="int">0</parameter>
<parameter name="storeconfigs" condition="int">0</parameter>
<parameter name="sub_steps" condition="int">5</parameter>
<parameter name="substeps" condition="int">5</parameter>
<parameter name="tau" condition="au">1.5000e-01</parameter>
<parameter name="time_step" condition="au">1.5000e-01</parameter>
<parameter name="timestep" condition="au">1.5000e-01</parameter>
<parameter name="use_drift" condition="string">no</parameter>
<parameter name="usedrift" condition="string">no</parameter>
<parameter name="walkers" condition="int">1</parameter>
<parameter name="warmup_steps" condition="int">0</parameter>
<parameter name="warmupsteps" condition="int">0</parameter>
  DumpConfig==false Nothing (configurations, state) will be saved.
  Walker Samples are dumped every 1 steps.
</vmc>
  Set drift_modifier UNR parameter a = 1.0000e+00
  EstimatorManagerBase::add replace LocalEnergy estimator.
  Set drift_modifier UNR parameter a = 1.0000e+00
  EstimatorManagerBase::add replace LocalEnergy estimator.
<optimization-report>
<vmc stage="main" blocks="500">
  Cannot make clones again. Use existing 1 clones
  Initial partition of walkers 0 1 
  Using Particle by Particle moves
  Walker moves without drift
  Total Sample Size   =512000
  Walker distribution on root = 0 1 
  Using Locality Approximation
===== Memory Usage after the buffer registration =====
Available memory on node 0, free + buffers : 52650 MB
Memory footprint by rank 0 on node 0       : 593 MB
==================================================
====================================================
  SimpleFixedNodeBranch::finalize after a VMC block
    QMC counter        = 5
    time step          = 0.15
    reference energy   = -13.304
    reference variance = 0.0350701
====================================================
  Execution time = 4.1673e+00
</vmc>
<opt stage="setup">
  <log>
   Reading configurations from h5FileRoot Br.log.s005
  QMCCostFunction is created with 1 threads.
  Using Nonlocal PP in Opt: NonLocalECP
   Number of samples loaded to each thread : 500 
  VMC Eavg = -1.3307e+01
  VMC Evar = 8.8373e-02
  Total weights = 5.1200e+05
  Execution time = 1.5066e+00
  </log>
</opt>
<opt stage="main" walkers="512000">
  <log>

*****************************************
Building overlap and Hamiltonian matrices
*****************************************

Among totally 82 optimized parameters, largest LM parameter change : 1.8567e-02 at parameter 22

******************************************************************************
Init Cost =  -1.2637e+01    New Cost =  -1.2637e+01  Delta Cost =  -2.1754e-05
******************************************************************************

The new set of parameters is valid. Updating the trial wave function!

*****************************************************************************
Applying the update for shift_i =   1.0000e-02     and shift_s =   1.5625e-02
*****************************************************************************
  Execution time = 7.0580e+00
  </log>
  <optVariables href="Br.log.s005.opt.xml">
   uu_0                 3.795313e-01 1 1  ON 0
   uu_1                 1.949786e-01 1 1  ON 1
   uu_2                 8.214294e-02 1 1  ON 2
   uu_3                 5.812428e-03 1 1  ON 3
   uu_4                -4.552591e-02 1 1  ON 4
   uu_5                -9.129041e-02 1 1  ON 5
   uu_6                -1.238441e-01 1 1  ON 6
   uu_7                -1.417083e-01 1 1  ON 7
   uu_8                -1.423513e-01 1 1  ON 8
   uu_9                -1.109339e-01 1 1  ON 9
   ud_0                 7.434493e-01 1 1  ON 10
   ud_1                 3.815331e-01 1 1  ON 11
   ud_2                 1.639693e-01 1 1  ON 12
   ud_3                 2.772639e-02 1 1  ON 13
   ud_4                -4.544075e-02 1 1  ON 14
   ud_5                -9.592278e-02 1 1  ON 15
   ud_6                -1.331450e-01 1 1  ON 16
   ud_7                -1.669558e-01 1 1  ON 17
   ud_8                -1.831046e-01 1 1  ON 18
   ud_9                -1.624893e-01 1 1  ON 19
  eBr_0                -1.050535e+00 1 1  ON 20
  eBr_1                -9.918775e-01 1 1  ON 21
  eBr_2                -6.844973e-01 1 1  ON 22
  eBr_3                -1.652922e-01 1 1  ON 23
  eBr_4                 3.191478e-01 1 1  ON 24
  eBr_5                 4.643569e-01 1 1  ON 25
  eBr_6                 6.650438e-01 1 1  ON 26
  eBr_7                 7.452378e-01 1 1  ON 27
  eBr_8                 5.851982e-01 1 1  ON 28
  eBr_9                 1.402591e-01 1 1  ON 29
 uuBr_0                -3.348545e-05 1 1  ON 30
 uuBr_1                 1.495545e-05 1 1  ON 31
 uuBr_2                 2.564263e-05 1 1  ON 32
 uuBr_3                 3.511360e-05 1 1  ON 33
 uuBr_4                 3.719479e-07 1 1  ON 34
 uuBr_5                -8.857493e-07 1 1  ON 35
 uuBr_6                 7.084682e-05 1 1  ON 36
 uuBr_7                 9.866318e-06 1 1  ON 37
 uuBr_8                -1.552534e-05 1 1  ON 38
 uuBr_9                -2.057541e-05 1 1  ON 39
uuBr_10                 1.552779e-05 1 1  ON 40
uuBr_11                -6.234293e-06 1 1  ON 41
uuBr_12                 5.611548e-06 1 1  ON 42
uuBr_13                -5.330327e-05 1 1  ON 43
uuBr_14                -8.534984e-06 1 1  ON 44
uuBr_15                 2.692391e-07 1 1  ON 45
uuBr_16                 5.326282e-05 1 1  ON 46
uuBr_17                -6.566572e-05 1 1  ON 47
uuBr_18                 1.393920e-05 1 1  ON 48
uuBr_19                -2.115931e-06 1 1  ON 49
uuBr_20                 1.197149e-05 1 1  ON 50
uuBr_21                -1.331005e-08 1 1  ON 51
uuBr_22                 8.020900e-09 1 1  ON 52
uuBr_23                -2.618035e-06 1 1  ON 53
uuBr_24                 1.168675e-07 1 1  ON 54
uuBr_25                -5.030665e-09 1 1  ON 55
 udBr_0                -5.467424e-05 1 1  ON 56
 udBr_1                 4.437590e-05 1 1  ON 57
 udBr_2                 5.998671e-05 1 1  ON 58
 udBr_3                 6.727577e-05 1 1  ON 59
 udBr_4                 3.772889e-06 1 1  ON 60
 udBr_5                -6.466458e-06 1 1  ON 61
 udBr_6                 1.900234e-04 1 1  ON 62
 udBr_7                -1.729133e-05 1 1  ON 63
 udBr_8                -2.531379e-05 1 1  ON 64
 udBr_9                -9.709496e-05 1 1  ON 65
udBr_10                 3.338984e-05 1 1  ON 66
udBr_11                -5.066401e-06 1 1  ON 67
udBr_12                 1.268980e-05 1 1  ON 68
udBr_13                -7.236079e-05 1 1  ON 69
udBr_14                -1.807222e-05 1 1  ON 70
udBr_15                 4.468486e-07 1 1  ON 71
udBr_16                 1.541502e-04 1 1  ON 72
udBr_17                -1.070640e-04 1 1  ON 73
udBr_18                 1.073958e-05 1 1  ON 74
udBr_19                -4.679279e-06 1 1  ON 75
udBr_20                 5.857737e-07 1 1  ON 76
udBr_21                 4.573725e-06 1 1  ON 77
udBr_22                -3.101559e-07 1 1  ON 78
udBr_23                 2.375750e-07 1 1  ON 79
udBr_24                -9.754585e-07 1 1  ON 80
udBr_25                 1.431633e-07 1 1  ON 81
  </optVariables>
   Restore the number of walkers to 1, removing 0 walkers.
</opt>
</optimization-report>
  QMC Execution time = 7.07 secs
  Reusing QMCFixedSampleLinearOptimize
 Using QMCCostFunction::QMCCostFunction

=========================================================
  Start QMCFixedSampleLinearOptimize
  File Root Br.log.s006 append = no 
=========================================================
  Skip QMCDriver::putQMCInfo 
  Resetting Properties of the walkers 1 x 13

=========================================================
  Start VMC
  File Root Br.log.s006 append = no 
=========================================================
Using existing walkers 
  Resetting Properties of the walkers 1 x 13

<vmc function="put">
  qmc_counter=5  my_counter=5
  time step      = 1.5000e-01
  blocks         = 500
  steps          = 1
  substeps       = 5
  current        = 0
  target samples = 5.1200e+05
  walkers/mpi    = 1

  stepsbetweensamples = 1
<parameter name="blocks" condition="int">500</parameter>
<parameter name="blocks_between_recompute" condition="int">0</parameter>
<parameter name="check_properties" condition="int">100</parameter>
<parameter name="checkproperties" condition="int">100</parameter>
<parameter name="current" condition="int">0</parameter>
<parameter name="dmcwalkersperthread" condition="real">5.0000e+02</parameter>
<parameter name="maxcpusecs" condition="real">3.6000e+05</parameter>
<parameter name="record_configs" condition="int">0</parameter>
<parameter name="record_walkers" condition="int">1</parameter>
<parameter name="recordconfigs" condition="int">0</parameter>
<parameter name="recordwalkers" condition="int">1</parameter>
<parameter name="rewind" condition="int">0</parameter>
<parameter name="samples" condition="real">5.1200e+05</parameter>
<parameter name="samplesperthread" condition="real">5.0000e+02</parameter>
<parameter name="steps" condition="int">1</parameter>
<parameter name="stepsbetweensamples" condition="int">1</parameter>
<parameter name="store_configs" condition="int">0</parameter>
<parameter name="storeconfigs" condition="int">0</parameter>
<parameter name="sub_steps" condition="int">5</parameter>
<parameter name="substeps" condition="int">5</parameter>
<parameter name="tau" condition="au">1.5000e-01</parameter>
<parameter name="time_step" condition="au">1.5000e-01</parameter>
<parameter name="timestep" condition="au">1.5000e-01</parameter>
<parameter name="use_drift" condition="string">no</parameter>
<parameter name="usedrift" condition="string">no</parameter>
<parameter name="walkers" condition="int">1</parameter>
<parameter name="warmup_steps" condition="int">0</parameter>
<parameter name="warmupsteps" condition="int">0</parameter>
  DumpConfig==false Nothing (configurations, state) will be saved.
  Walker Samples are dumped every 1 steps.
</vmc>
  Set drift_modifier UNR parameter a = 1.0000e+00
  EstimatorManagerBase::add replace LocalEnergy estimator.
  Set drift_modifier UNR parameter a = 1.0000e+00
  EstimatorManagerBase::add replace LocalEnergy estimator.
<optimization-report>
<vmc stage="main" blocks="500">
  Cannot make clones again. Use existing 1 clones
  Initial partition of walkers 0 1 
  Using Particle by Particle moves
  Walker moves without drift
  Total Sample Size   =512000
  Walker distribution on root = 0 1 
  Using Locality Approximation
===== Memory Usage after the buffer registration =====
Available memory on node 0, free + buffers : 52646 MB
Memory footprint by rank 0 on node 0       : 597 MB
==================================================
====================================================
  SimpleFixedNodeBranch::finalize after a VMC block
    QMC counter        = 6
    time step          = 0.15
    reference energy   = -13.2968
    reference variance = 0.0434856
====================================================
  Execution time = 4.2240e+00
</vmc>
<opt stage="setup">
  <log>
   Reading configurations from h5FileRoot Br.log.s006
  QMCCostFunction is created with 1 threads.
  Using Nonlocal PP in Opt: NonLocalECP
   Number of samples loaded to each thread : 500 
  VMC Eavg = -1.3307e+01
  VMC Evar = 9.5683e-02
  Total weights = 5.1200e+05
  Execution time = 1.5135e+00
  </log>
</opt>
<opt stage="main" walkers="512000">
  <log>

*****************************************
Building overlap and Hamiltonian matrices
*****************************************

Among totally 82 optimized parameters, largest LM parameter change : 1.3829e-02 at parameter 22

******************************************************************************
Init Cost =  -1.2637e+01    New Cost =  -1.2637e+01  Delta Cost =  -3.1238e-06
******************************************************************************

The new set of parameters is valid. Updating the trial wave function!

*****************************************************************************
Applying the update for shift_i =   1.0000e-02     and shift_s =   3.9062e-03
*****************************************************************************
  Execution time = 7.1366e+00
  </log>
  <optVariables href="Br.log.s006.opt.xml">
   uu_0                 3.759149e-01 1 1  ON 0
   uu_1                 1.922495e-01 1 1  ON 1
   uu_2                 8.198572e-02 1 1  ON 2
   uu_3                 7.810256e-03 1 1  ON 3
   uu_4                -4.256675e-02 1 1  ON 4
   uu_5                -8.818558e-02 1 1  ON 5
   uu_6                -1.228007e-01 1 1  ON 6
   uu_7                -1.415732e-01 1 1  ON 7
   uu_8                -1.405099e-01 1 1  ON 8
   uu_9                -1.076774e-01 1 1  ON 9
   ud_0                 7.442232e-01 1 1  ON 10
   ud_1                 3.829276e-01 1 1  ON 11
   ud_2                 1.657317e-01 1 1  ON 12
   ud_3                 3.020019e-02 1 1  ON 13
   ud_4                -4.269792e-02 1 1  ON 14
   ud_5                -9.265999e-02 1 1  ON 15
   ud_6                -1.281406e-01 1 1  ON 16
   ud_7                -1.636883e-01 1 1  ON 17
   ud_8                -1.800952e-01 1 1  ON 18
   ud_9                -1.614327e-01 1 1  ON 19
  eBr_0                -1.048747e+00 1 1  ON 20
  eBr_1                -1.004305e+00 1 1  ON 21
  eBr_2                -6.983263e-01 1 1  ON 22
  eBr_3                -1.704986e-01 1 1  ON 23
  eBr_4                 3.225638e-01 1 1  ON 24
  eBr_5                 4.688994e-01 1 1  ON 25
  eBr_6                 6.669245e-01 1 1  ON 26
  eBr_7                 7.420109e-01 1 1  ON 27
  eBr_8                 5.963095e-01 1 1  ON 28
  eBr_9                 1.511047e-01 1 1  ON 29
 uuBr_0                -3.445729e-05 1 1  ON 30
 uuBr_1                 1.951453e-05 1 1  ON 31
 uuBr_2                 3.052330e-05 1 1  ON 32
 uuBr_3                 3.499949e-05 1 1  ON 33
 uuBr_4                -3.964324e-07 1 1  ON 34
 uuBr_5                -1.061518e-06 1 1  ON 35
 uuBr_6                 8.066564e-05 1 1  ON 36
 uuBr_7                 1.201617e-05 1 1  ON 37
 uuBr_8                -1.086186e-05 1 1  ON 38
 uuBr_9                -2.776380e-05 1 1  ON 39
uuBr_10                 1.560789e-05 1 1  ON 40
uuBr_11                -1.219877e-05 1 1  ON 41
uuBr_12                 5.004657e-06 1 1  ON 42
uuBr_13                -5.281296e-05 1 1  ON 43
uuBr_14                -7.909980e-06 1 1  ON 44
uuBr_15                 2.510165e-07 1 1  ON 45
uuBr_16                 6.448826e-05 1 1  ON 46
uuBr_17                -6.906079e-05 1 1  ON 47
uuBr_18                 1.860511e-05 1 1  ON 48
uuBr_19                -2.516908e-06 1 1  ON 49
uuBr_20                 9.707548e-06 1 1  ON 50
uuBr_21                -5.100301e-07 1 1  ON 51
uuBr_22                 1.079410e-07 1 1  ON 52
uuBr_23                -1.968489e-06 1 1  ON 53
uuBr_24                 1.399511e-07 1 1  ON 54
uuBr_25                -2.204820e-08 1 1  ON 55
 udBr_0                -5.140128e-05 1 1  ON 56
 udBr_1                 5.662639e-05 1 1  ON 57
 udBr_2                 6.150671e-05 1 1  ON 58
 udBr_3                 6.048544e-05 1 1  ON 59
 udBr_4                 1.867204e-06 1 1  ON 60
 udBr_5                -6.849364e-06 1 1  ON 61
 udBr_6                 2.055910e-04 1 1  ON 62
 udBr_7                -2.200799e-05 1 1  ON 63
 udBr_8                -2.117172e-05 1 1  ON 64
 udBr_9                -1.110815e-04 1 1  ON 65
udBr_10                 2.765540e-05 1 1  ON 66
udBr_11                -3.635834e-06 1 1  ON 67
udBr_12                 1.114094e-05 1 1  ON 68
udBr_13                -6.364651e-05 1 1  ON 69
udBr_14                -1.695490e-05 1 1  ON 70
udBr_15                 4.723434e-07 1 1  ON 71
udBr_16                 1.675803e-04 1 1  ON 72
udBr_17                -1.005042e-04 1 1  ON 73
udBr_18                 8.099045e-06 1 1  ON 74
udBr_19                -3.908681e-06 1 1  ON 75
udBr_20                -4.501214e-06 1 1  ON 76
udBr_21                 4.893409e-06 1 1  ON 77
udBr_22                -3.932820e-07 1 1  ON 78
udBr_23                 1.501933e-06 1 1  ON 79
udBr_24                -1.113909e-06 1 1  ON 80
udBr_25                 1.638913e-07 1 1  ON 81
  </optVariables>
   Restore the number of walkers to 1, removing 0 walkers.
</opt>
</optimization-report>
  QMC Execution time = 7.149 secs
  Reusing QMCFixedSampleLinearOptimize
 Using QMCCostFunction::QMCCostFunction

=========================================================
  Start QMCFixedSampleLinearOptimize
  File Root Br.log.s007 append = no 
=========================================================
  Skip QMCDriver::putQMCInfo 
  Resetting Properties of the walkers 1 x 13

=========================================================
  Start VMC
  File Root Br.log.s007 append = no 
=========================================================
Using existing walkers 
  Resetting Properties of the walkers 1 x 13

<vmc function="put">
  qmc_counter=6  my_counter=6
  time step      = 1.5000e-01
  blocks         = 500
  steps          = 1
  substeps       = 5
  current        = 0
  target samples = 5.1200e+05
  walkers/mpi    = 1

  stepsbetweensamples = 1
<parameter name="blocks" condition="int">500</parameter>
<parameter name="blocks_between_recompute" condition="int">0</parameter>
<parameter name="check_properties" condition="int">100</parameter>
<parameter name="checkproperties" condition="int">100</parameter>
<parameter name="current" condition="int">0</parameter>
<parameter name="dmcwalkersperthread" condition="real">5.0000e+02</parameter>
<parameter name="maxcpusecs" condition="real">3.6000e+05</parameter>
<parameter name="record_configs" condition="int">0</parameter>
<parameter name="record_walkers" condition="int">1</parameter>
<parameter name="recordconfigs" condition="int">0</parameter>
<parameter name="recordwalkers" condition="int">1</parameter>
<parameter name="rewind" condition="int">0</parameter>
<parameter name="samples" condition="real">5.1200e+05</parameter>
<parameter name="samplesperthread" condition="real">5.0000e+02</parameter>
<parameter name="steps" condition="int">1</parameter>
<parameter name="stepsbetweensamples" condition="int">1</parameter>
<parameter name="store_configs" condition="int">0</parameter>
<parameter name="storeconfigs" condition="int">0</parameter>
<parameter name="sub_steps" condition="int">5</parameter>
<parameter name="substeps" condition="int">5</parameter>
<parameter name="tau" condition="au">1.5000e-01</parameter>
<parameter name="time_step" condition="au">1.5000e-01</parameter>
<parameter name="timestep" condition="au">1.5000e-01</parameter>
<parameter name="use_drift" condition="string">no</parameter>
<parameter name="usedrift" condition="string">no</parameter>
<parameter name="walkers" condition="int">1</parameter>
<parameter name="warmup_steps" condition="int">0</parameter>
<parameter name="warmupsteps" condition="int">0</parameter>
  DumpConfig==false Nothing (configurations, state) will be saved.
  Walker Samples are dumped every 1 steps.
</vmc>
  Set drift_modifier UNR parameter a = 1.0000e+00
  EstimatorManagerBase::add replace LocalEnergy estimator.
  Set drift_modifier UNR parameter a = 1.0000e+00
  EstimatorManagerBase::add replace LocalEnergy estimator.
<optimization-report>
<vmc stage="main" blocks="500">
  Cannot make clones again. Use existing 1 clones
  Initial partition of walkers 0 1 
  Using Particle by Particle moves
  Walker moves without drift
  Total Sample Size   =512000
  Walker distribution on root = 0 1 
  Using Locality Approximation
===== Memory Usage after the buffer registration =====
Available memory on node 0, free + buffers : 52642 MB
Memory footprint by rank 0 on node 0       : 600 MB
==================================================
====================================================
  SimpleFixedNodeBranch::finalize after a VMC block
    QMC counter        = 7
    time step          = 0.15
    reference energy   = -13.3137
    reference variance = 0.0379957
====================================================
  Execution time = 4.2329e+00
</vmc>
<opt stage="setup">
  <log>
   Reading configurations from h5FileRoot Br.log.s007
  QMCCostFunction is created with 1 threads.
  Using Nonlocal PP in Opt: NonLocalECP
   Number of samples loaded to each thread : 500 
  VMC Eavg = -1.3306e+01
  VMC Evar = 8.1864e-02
  Total weights = 5.1200e+05
  Execution time = 1.5132e+00
  </log>
</opt>
<opt stage="main" walkers="512000">
  <log>

*****************************************
Building overlap and Hamiltonian matrices
*****************************************

Among totally 82 optimized parameters, largest LM parameter change : 1.6766e-02 at parameter 22

******************************************************************************
Init Cost =  -1.2637e+01    New Cost =  -1.2637e+01  Delta Cost =  -1.1079e-04
******************************************************************************

The new set of parameters is valid. Updating the trial wave function!

*****************************************************************************
Applying the update for shift_i =   1.0000e-02     and shift_s =   3.9062e-03
*****************************************************************************
  Execution time = 7.1285e+00
  </log>
  <optVariables href="Br.log.s007.opt.xml">
   uu_0                 3.733974e-01 1 1  ON 0
   uu_1                 1.912892e-01 1 1  ON 1
   uu_2                 8.112394e-02 1 1  ON 2
   uu_3                 7.537070e-03 1 1  ON 3
   uu_4                -4.182406e-02 1 1  ON 4
   uu_5                -8.598452e-02 1 1  ON 5
   uu_6                -1.180467e-01 1 1  ON 6
   uu_7                -1.362855e-01 1 1  ON 7
   uu_8                -1.382942e-01 1 1  ON 8
   uu_9                -1.103278e-01 1 1  ON 9
   ud_0                 7.465913e-01 1 1  ON 10
   ud_1                 3.851583e-01 1 1  ON 11
   ud_2                 1.678754e-01 1 1  ON 12
   ud_3                 3.231592e-02 1 1  ON 13
   ud_4                -4.024357e-02 1 1  ON 14
   ud_5                -8.984346e-02 1 1  ON 15
   ud_6                -1.259173e-01 1 1  ON 16
   ud_7                -1.597009e-01 1 1  ON 17
   ud_8                -1.745379e-01 1 1  ON 18
   ud_9                -1.565251e-01 1 1  ON 19
  eBr_0                -1.044706e+00 1 1  ON 20
  eBr_1                -1.017702e+00 1 1  ON 21
  eBr_2                -7.150920e-01 1 1  ON 22
  eBr_3                -1.769255e-01 1 1  ON 23
  eBr_4                 3.260676e-01 1 1  ON 24
  eBr_5                 4.680238e-01 1 1  ON 25
  eBr_6                 6.713135e-01 1 1  ON 26
  eBr_7                 7.481577e-01 1 1  ON 27
  eBr_8                 6.080990e-01 1 1  ON 28
  eBr_9                 1.594739e-01 1 1  ON 29
 uuBr_0                -3.214859e-05 1 1  ON 30
 uuBr_1                 2.512158e-05 1 1  ON 31
 uuBr_2                 2.723031e-05 1 1  ON 32
 uuBr_3                 3.172100e-05 1 1  ON 33
 uuBr_4                -4.573711e-07 1 1  ON 34
 uuBr_5                -1.426585e-06 1 1  ON 35
 uuBr_6                 8.422458e-05 1 1  ON 36
 uuBr_7                 5.973915e-06 1 1  ON 37
 uuBr_8                -1.317020e-05 1 1  ON 38
 uuBr_9                -3.016992e-05 1 1  ON 39
uuBr_10                 1.284702e-05 1 1  ON 40
uuBr_11                -5.811016e-06 1 1  ON 41
uuBr_12                 4.876431e-06 1 1  ON 42
uuBr_13                -4.927756e-05 1 1  ON 43
uuBr_14                -7.927813e-06 1 1  ON 44
uuBr_15                 2.561173e-07 1 1  ON 45
uuBr_16                 6.241707e-05 1 1  ON 46
uuBr_17                -6.299788e-05 1 1  ON 47
uuBr_18                 1.292641e-05 1 1  ON 48
uuBr_19                -1.823014e-06 1 1  ON 49
uuBr_20                 9.567260e-06 1 1  ON 50
uuBr_21                 4.202572e-08 1 1  ON 51
uuBr_22                 6.750034e-09 1 1  ON 52
uuBr_23                -2.080003e-06 1 1  ON 53
uuBr_24                 7.622868e-08 1 1  ON 54
uuBr_25                -7.437975e-09 1 1  ON 55
 udBr_0                -5.278112e-05 1 1  ON 56
 udBr_1                 4.536968e-05 1 1  ON 57
 udBr_2                 6.233790e-05 1 1  ON 58
 udBr_3                 6.692724e-05 1 1  ON 59
 udBr_4                 3.459937e-06 1 1  ON 60
[...]
   uu_2                 8.901426e-02 1 1  ON 2
   uu_3                 2.003094e-02 1 1  ON 3
   uu_4                -2.775668e-02 1 1  ON 4
   uu_5                -7.364645e-02 1 1  ON 5
   uu_6                -1.081496e-01 1 1  ON 6
   uu_7                -1.291187e-01 1 1  ON 7
   uu_8                -1.346470e-01 1 1  ON 8
   uu_9                -1.098085e-01 1 1  ON 9
   ud_0                 7.786344e-01 1 1  ON 10
   ud_1                 4.173982e-01 1 1  ON 11
   ud_2                 2.005058e-01 1 1  ON 12
   ud_3                 6.489483e-02 1 1  ON 13
   ud_4                -8.332583e-03 1 1  ON 14
   ud_5                -5.978027e-02 1 1  ON 15
   ud_6                -9.731052e-02 1 1  ON 16
   ud_7                -1.328586e-01 1 1  ON 17
   ud_8                -1.541897e-01 1 1  ON 18
   ud_9                -1.441040e-01 1 1  ON 19
  eBr_0                -1.065663e+00 1 1  ON 20
  eBr_1                -1.091461e+00 1 1  ON 21
  eBr_2                -8.012621e-01 1 1  ON 22
  eBr_3                -2.289373e-01 1 1  ON 23
  eBr_4                 3.119193e-01 1 1  ON 24
  eBr_5                 4.659749e-01 1 1  ON 25
  eBr_6                 6.849123e-01 1 1  ON 26
  eBr_7                 7.823982e-01 1 1  ON 27
  eBr_8                 7.056977e-01 1 1  ON 28
  eBr_9                 2.522909e-01 1 1  ON 29
 uuBr_0                -3.500291e-05 1 1  ON 30
 uuBr_1                 3.415011e-05 1 1  ON 31
 uuBr_2                 3.461431e-05 1 1  ON 32
 uuBr_3                 2.505275e-05 1 1  ON 33
 uuBr_4                -4.659007e-06 1 1  ON 34
 uuBr_5                -1.449531e-06 1 1  ON 35
 uuBr_6                 1.006978e-04 1 1  ON 36
 uuBr_7                 3.133039e-06 1 1  ON 37
 uuBr_8                -1.815650e-06 1 1  ON 38
 uuBr_9                -3.813454e-05 1 1  ON 39
uuBr_10                 5.632679e-06 1 1  ON 40
uuBr_11                -7.618201e-06 1 1  ON 41
uuBr_12                 4.733932e-07 1 1  ON 42
uuBr_13                -4.055726e-05 1 1  ON 43
uuBr_14                -4.770619e-06 1 1  ON 44
uuBr_15                 3.614440e-07 1 1  ON 45
uuBr_16                 7.044563e-05 1 1  ON 46
uuBr_17                -5.344878e-05 1 1  ON 47
uuBr_18                 1.135288e-05 1 1  ON 48
uuBr_19                 1.838675e-07 1 1  ON 49
uuBr_20                 4.713487e-06 1 1  ON 50
uuBr_21                -1.834698e-07 1 1  ON 51
uuBr_22                -1.244393e-07 1 1  ON 52
uuBr_23                -5.668945e-07 1 1  ON 53
uuBr_24                -2.628742e-08 1 1  ON 54
uuBr_25                 9.977197e-09 1 1  ON 55
 udBr_0                -5.535829e-05 1 1  ON 56
 udBr_1                 5.711811e-05 1 1  ON 57
 udBr_2                 6.651426e-05 1 1  ON 58
 udBr_3                 6.113674e-05 1 1  ON 59
 udBr_4                 6.328243e-07 1 1  ON 60
 udBr_5                -7.242617e-06 1 1  ON 61
 udBr_6                 2.077718e-04 1 1  ON 62
 udBr_7                -1.701733e-05 1 1  ON 63
 udBr_8                -1.495068e-05 1 1  ON 64
 udBr_9                -1.078733e-04 1 1  ON 65
udBr_10                 2.819354e-05 1 1  ON 66
udBr_11                -1.057102e-05 1 1  ON 67
udBr_12                 9.343198e-06 1 1  ON 68
udBr_13                -6.558085e-05 1 1  ON 69
udBr_14                -1.514268e-05 1 1  ON 70
udBr_15                 4.583655e-07 1 1  ON 71
udBr_16                 1.660572e-04 1 1  ON 72
udBr_17                -1.021612e-04 1 1  ON 73
udBr_18                 1.376576e-05 1 1  ON 74
udBr_19                -3.703625e-06 1 1  ON 75
udBr_20                -3.722698e-06 1 1  ON 76
udBr_21                 3.677380e-06 1 1  ON 77
udBr_22                -2.679881e-07 1 1  ON 78
udBr_23                 1.369817e-06 1 1  ON 79
udBr_24                -9.074017e-07 1 1  ON 80
udBr_25                 1.218259e-07 1 1  ON 81
  </optVariables>
   Restore the number of walkers to 1, removing 0 walkers.
</opt>
</optimization-report>
  QMC Execution time = 7.042 secs

=========================================================
  Start VMC
  File Root Br.log.s021 append = no 
=========================================================
  Using the current 1 walkers.
  Total number of walkers: 1024
  Total weight: 1024
  Resetting Properties of the walkers 1 x 13

<vmc function="put">
  qmc_counter=0  my_counter=0
  time step      = 0.15
  blocks         = 200
  steps          = 1
  substeps       = 30
  current        = 0
  target samples = 4096
  walkers/mpi    = 1

  stepsbetweensamples = 50
<parameter name="blocks" condition="int">200</parameter>
<parameter name="blocks_between_recompute" condition="int">0</parameter>
<parameter name="check_properties" condition="int">100</parameter>
<parameter name="checkproperties" condition="int">100</parameter>
<parameter name="current" condition="int">0</parameter>
<parameter name="dmcwalkersperthread" condition="real">4</parameter>
<parameter name="maxcpusecs" condition="real">3.6e+05</parameter>
<parameter name="record_configs" condition="int">0</parameter>
<parameter name="record_walkers" condition="int">50</parameter>
<parameter name="recordconfigs" condition="int">0</parameter>
<parameter name="recordwalkers" condition="int">50</parameter>
<parameter name="rewind" condition="int">0</parameter>
<parameter name="samples" condition="real">4096</parameter>
<parameter name="samplesperthread" condition="real">4</parameter>
<parameter name="steps" condition="int">1</parameter>
<parameter name="stepsbetweensamples" condition="int">50</parameter>
<parameter name="store_configs" condition="int">0</parameter>
<parameter name="storeconfigs" condition="int">0</parameter>
<parameter name="sub_steps" condition="int">30</parameter>
<parameter name="substeps" condition="int">30</parameter>
<parameter name="tau" condition="au">0.15</parameter>
<parameter name="time_step" condition="au">0.15</parameter>
<parameter name="timestep" condition="au">0.15</parameter>
<parameter name="use_drift" condition="string">no</parameter>
<parameter name="usedrift" condition="string">no</parameter>
<parameter name="walkers" condition="int">1</parameter>
<parameter name="warmup_steps" condition="int">100</parameter>
<parameter name="warmupsteps" condition="int">100</parameter>
  DumpConfig==true Configurations are dumped to config.h5 with a period of 200 blocks
  Walker Samples are dumped every 50 steps.
</vmc>
  Set drift_modifier UNR parameter a = 1
  EstimatorManagerBase::add replace LocalEnergy estimator.
  Cannot make clones again. Use existing 1 clones
  Initial partition of walkers 0 1 

  Using Particle by Particle moves
  Walker moves without drift
  Total Sample Size   =4096
  Walker distribution on root = 0 1 
  Using Locality Approximation
===== Memory Usage after the buffer registration =====
Available memory on node 0, free + buffers : 52578 MB
Memory footprint by rank 0 on node 0       : 644 MB
==================================================
  Anonymous Buffer size per walker : 2688 Bytes.
MEMORY increase 0 MB VMC::resetRun
  samples are written to the config.h5
====================================================
  SimpleFixedNodeBranch::finalize after a VMC block
    QMC counter        = 21
    time step          = 0.15
    reference energy   = -13.3027
    reference variance = 0.0361379
====================================================
  QMC Execution time = 3.625 secs

=========================================================
  Start DMC
  File Root Br.log.s022 append = no 
=========================================================
Using existing walkers 
  Resetting Properties of the walkers 1 x 13
  Set drift_modifier UNR parameter a = 1
  EstimatorManagerBase::add replace LocalEnergy estimator.
  Cannot make clones again. Use existing 1 clones
  Total number of walkers: 4096
  Total weight: 4096
  Creating WalkerController: target  number of walkers = 4096
  Using WalkerControlMPI for dynamic population control.
  START ALL OVER 
  WalkerControlBase parameters 
    maxCopy = 2
    Max Walkers per MPI rank 9
    Min Walkers per MPI rank 1
    Using non-blocking send/recv
  QMC counter      = 22
  time step        = 0.02
  effective time step = 0.02
  trial energy     = -13.3
  reference energy = -13.3
  Feedback = 1
  reference variance = 0.03614
  target walkers = 4096
  branching cutoff scheme classic
  branch cutoff = 50 75
  Max and minimum walkers per node= 9 1
  QMC Status (BranchMode) = 0000001101
  Initial partition of walkers on a node: 0 4 
  Updates by particle-by-particle moves
  DMC moves are rejected when a node crossing is detected
  Using Non-local T-moves v1, M. Casula et al., JCP 132, 154113 (2010)
===== Memory Usage after the buffer registration =====
Available memory on node 0, free + buffers : 52508 MB
Memory footprint by rank 0 on node 0       : 657 MB
==================================================
SimpleFixedNodeBranch::checkParameters 
  Average Energy of a population  = -13.309
  Energy Variance = 0.0428241

  Fluctuating population
  Persistent walkers are killed after 1 MC sweeps
  BranchInterval = 1
  Steps per block = 50
  Number of blocks = 150

  DMC Engine Initialization = 0.03858 secs

 Warmup is completed after 200

  TauEff     = 0.01984
 TauEff/Tau = 0.992
  Etrial     = -13.3
 Running average of energy = -13.31
                  Variance = 0.04604
branch cutoff = 10 15
====================================================
  SimpleFixedNodeBranch::finalize after a DMC block
    QMC counter                   = 22
    time step                     = 0.02
    effective time step           = 0.0198377
    trial energy                  = -13.3155
    reference energy              = -13.3133
    reference variance            = 0.0460394
    target walkers                = 4096
    branch cutoff                 = 10 15
    Max and minimum walkers per node= 9 1
    Feedback                      = 1
    QMC Status (BranchMode)       = 0000001111
====================================================
  QMC Execution time = 259.4 secs
  Reusing DMC
BRANCH resetRun
 SimpleFixedNodeBranch::resetRun detected changes in <parameter>'s 
 BranchMode : 0000001111 0000001111
  WalkerControlBase parameters 
    maxCopy = 2
    Max Walkers per MPI rank 9
    Min Walkers per MPI rank 1
    Using non-blocking send/recv
 iParam (old):                  0                 1                22              4096                 9                 1                 1                 0
 iParam (new):                100                 1                22              4096                 9                 1                 1                 0
 vParam (old):               0.02     0.01983772024      -13.31547281      -13.31327796      -13.30907165                15                10               0.2     0.04603935039      -97200.23817              7301                 1                10                 1                 1                 1                 1
 vParam (new):               0.01     0.01983772024      -13.31547281      -13.31327796      -13.30907165                15                10               0.2     0.04603935039      -97200.23817              7301                 1                10                 1                 1                 1                 1

 Using branching cutoff scheme classic
SimpleFixedNodeBranch::checkParameters 
  Average Energy of a population  = -13.3096
  Energy Variance = 0.046754

  Using Non-local T-moves v1, M. Casula et al., JCP 132, 154113 (2010)
===== Memory Usage after the buffer registration =====
Available memory on node 0, free + buffers : 52511 MB
Memory footprint by rank 0 on node 0       : 660 MB
==================================================

=========================================================
  Start DMC
  File Root Br.log.s023 append = no 
=========================================================
Using existing walkers 
  Resetting Properties of the walkers 1 x 13
  Set drift_modifier UNR parameter a = 1
  EstimatorManagerBase::add replace LocalEnergy estimator.
  Cannot make clones again. Use existing 1 clones
SimpleFixedNodeBranch::checkParameters 
  Average Energy of a population  = -13.3124
  Energy Variance = 0.0502858

  Fluctuating population
  Persistent walkers are killed after 1 MC sweeps
  BranchInterval = 1
  Steps per block = 100
  Number of blocks = 200

  DMC Engine Initialization = 0.0003249645233 secs

 Warmup is completed after 100

  TauEff     = 0.009970015804
 TauEff/Tau = 0.9970015804
  Etrial     = -13.36410018
 Running average of energy = -13.31315017
                  Variance = 0.04614914664
branch cutoff = 10 15
====================================================
  SimpleFixedNodeBranch::finalize after a DMC block
    QMC counter                   = 23
    time step                     = 0.01
    effective time step           = 0.0099697
    trial energy                  = -13.3143
    reference energy              = -13.3136
    reference variance            = 0.0461491
    target walkers                = 4096
    branch cutoff                 = 10 15
    Max and minimum walkers per node= 9 1
    Feedback                      = 1
    QMC Status (BranchMode)       = 0000001111
====================================================
  QMC Execution time = 689.9 secs
  Reusing DMC
BRANCH resetRun
 SimpleFixedNodeBranch::resetRun detected changes in <parameter>'s 
 BranchMode : 0000001111 0000001111
  WalkerControlBase parameters 
    maxCopy = 2
    Max Walkers per MPI rank 9
    Min Walkers per MPI rank 1
    Using non-blocking send/recv
 iParam (old):                  0                 1                23              4096                 9                 1                 1                 0
 iParam (new):                200                 1                23              4096                 9                 1                 1                 0
 vParam (old):               0.01    0.009969704968      -13.31431893      -13.31358678       -13.3145701                15                10               0.2     0.04614914664      -264953.6914             19901                 1                10                 1                 1                 1                 1
 vParam (new):              0.005    0.009969704968      -13.31431893      -13.31358678       -13.3145701                15                10               0.2     0.04614914664      -264953.6914             19901                 1                10                 1                 1                 1                 1

 Using branching cutoff scheme classic
SimpleFixedNodeBranch::checkParameters 
  Average Energy of a population  = -13.3144
  Energy Variance = 0.044635

  Using Non-local T-moves v1, M. Casula et al., JCP 132, 154113 (2010)
===== Memory Usage after the buffer registration =====
Available memory on node 0, free + buffers : 52486 MB
Memory footprint by rank 0 on node 0       : 664 MB
==================================================

=========================================================
  Start DMC
  File Root Br.log.s024 append = no 
=========================================================
Using existing walkers 
  Resetting Properties of the walkers 1 x 13
  Set drift_modifier UNR parameter a = 1
  EstimatorManagerBase::add replace LocalEnergy estimator.
  Cannot make clones again. Use existing 1 clones
SimpleFixedNodeBranch::checkParameters 
  Average Energy of a population  = -13.3152
  Energy Variance = 0.0433662

  Fluctuating population
  Persistent walkers are killed after 1 MC sweeps
  BranchInterval = 1
  Steps per block = 200
  Number of blocks = 250

  DMC Engine Initialization = 0.0008108615875 secs

 Warmup is completed after 200

  TauEff     = 0.004994479408
 TauEff/Tau = 0.9988958815
  Etrial     = -13.21438043
 Running average of energy = -13.31153098
                  Variance = 0.05039915738
branch cutoff = 10 15
====================================================
  SimpleFixedNodeBranch::finalize after a DMC block
    QMC counter                   = 24
    time step                     = 0.005
    effective time step           = 0.00499445
    trial energy                  = -13.3146
    reference energy              = -13.3136
    reference variance            = 0.0503992
    target walkers                = 4096
    branch cutoff                 = 10 15
    Max and minimum walkers per node= 9 1
    Feedback                      = 1
    QMC Status (BranchMode)       = 0000001111
====================================================
  QMC Execution time = 1725 secs
  Reusing DMC
BRANCH resetRun
 SimpleFixedNodeBranch::resetRun detected changes in <parameter>'s 
 BranchMode : 0000001111 0000001111
  WalkerControlBase parameters 
    maxCopy = 2
    Max Walkers per MPI rank 9
    Min Walkers per MPI rank 1
    Using non-blocking send/recv
 iParam (old):                  0                 1                24              4096                 9                 1                 1                 0
 iParam (new):                400                 1                24              4096                 9                 1                 1                 0
 vParam (old):              0.005    0.004994446273      -13.31460691      -13.31363083      -13.31439949                15                10               0.2     0.05039915738      -663032.1295             49801                 1                10                 1                 1                 1                 1
 vParam (new):             0.0025    0.004994446273      -13.31460691      -13.31363083      -13.31439949                15                10               0.2     0.05039915738      -663032.1295             49801                 1                10                 1                 1                 1                 1

 Using branching cutoff scheme classic
SimpleFixedNodeBranch::checkParameters 
  Average Energy of a population  = -13.3145
  Energy Variance = 0.0443819

  Using Non-local T-moves v1, M. Casula et al., JCP 132, 154113 (2010)
===== Memory Usage after the buffer registration =====
Available memory on node 0, free + buffers : 52447 MB
Memory footprint by rank 0 on node 0       : 667 MB
==================================================

=========================================================
  Start DMC
  File Root Br.log.s025 append = no 
=========================================================
Using existing walkers 
  Resetting Properties of the walkers 1 x 13
  Set drift_modifier UNR parameter a = 1
  EstimatorManagerBase::add replace LocalEnergy estimator.
  Cannot make clones again. Use existing 1 clones
SimpleFixedNodeBranch::checkParameters 
  Average Energy of a population  = -13.3143
  Energy Variance = 0.0434161

  Fluctuating population
  Persistent walkers are killed after 1 MC sweeps
  BranchInterval = 1
  Steps per block = 400
  Number of blocks = 300

  DMC Engine Initialization = 0.0003259181976 secs

 Warmup is completed after 400

  TauEff     = 0.002499017612
 TauEff/Tau = 0.9996070448
  Etrial     = -13.31204439
 Running average of energy = -13.31527813
                  Variance = 0.04683764577
branch cutoff = 10 15
====================================================
  SimpleFixedNodeBranch::finalize after a DMC block
    QMC counter                   = 25
    time step                     = 0.0025
    effective time step           = 0.00249899
    trial energy                  = -13.3169
    reference energy              = -13.3137
    reference variance            = 0.0468376
    target walkers                = 4096
    branch cutoff                 = 10 15
    Max and minimum walkers per node= 9 1
    Feedback                      = 1
    QMC Status (BranchMode)       = 0000001111
====================================================
  QMC Execution time = 4136 secs
  Total Execution time = 6955 secs

=========================================================
  A new xml input file : Br.log.s025.cont.xml
TACC:  Shutdown complete. Exiting. 
