
 Primary working directories    : /global/cscratch1/sd/aannabe
 Secondary working directories  : /global/cscratch1/sd/aannabe
 Wavefunction directory         : /global/homes/a/aannabe/wfu/
 Main file repository           : /global/cscratch1/sd/aannabe/

 SHA1      : 19cd028119e0e09f93f0674bd8af7968d9b3eff6
 NAME      : 2015.1.36
 ARCHNAME  : linux/x86_64
 FC        : /opt/cray/pe/craype/2.5.14/bin/ftn
 BLASLIB   : -L/opt/intel/compilers_and_libraries_2018.1.163/linux/mkl/lib/intel64 -Wl,-_start-group -lmkl_intel_ilp64 -lmkl_intel_thread -lmkl_core -Wl,-_end-group -liomp5
 id        : lbl

 Nodes     nprocs
 nid00461     1

 Using customized tuning parameters: mindgm=7; mindgv=16; mindgc=1; mindgr=1; noblas=0; minvec=7
 default implementation of scratch files=df  

 ***,Ni
 memory,512,m
 gthresh,twoint=1.e-12
 
 gprint,basis,orbitals
 gexpec,ekin,pot
 
 angstrom
 geometry={
 1                                                                               ! Number of atoms
 Ni 0.0 0.0 0.0
 }
 
 basis={
 Including file /global/homes/a/aannabe/docs/accurate/STU_natural/pps/Ni.pp
 Including file /global/homes/a/aannabe/docs/accurate/STU_natural/basis/Ni_qz.basis
 }
 
 {rhf
  start,atden
  print,orbitals=2
  wf,18,6,2
  occ,4,1,1,1,1,1,1,0
  open,1.4,1.7
  sym,1,1,1,3,2
  orbital,4202.2
 }
 pop
 {multi
  start,4202.2
  occ,4,1,1,1,1,1,1,0
  closed,2,1,1,0,1,0,0
  wf,18,1,2;state,1
  wf,18,4,2;state,3
  wf,18,6,2;state,3
  wf,18,7,2;state,3
  natorb,ci,print
  orbital,5202.2
 }
 {rhf,nitord=1,maxit=0
  start,5202.2
  wf,18,1,2
  occ,4,1,1,1,1,1,1,0
  open,3.1,4.1
  sym,1,1,1,3,2
 }
 
 scf(i)=energy
 
 _CC_NORM_MAX=2.0
 {rccsd(t)
 maxit,100
 core
 }
 posthf(i)=energy
 
 table,scf,posthf,ekin,pot
 save,4.csv,new
 
 

 Variables initialized (889), CPU time= 0.01 sec
 Commands  initialized (702), CPU time= 0.00 sec, 572 directives.
 Default parameters read. Elapsed time= 0.20 sec

 Checking input...
 Passed
1


                                         ***  PROGRAM SYSTEM MOLPRO  ***
                                       Copyright, TTI GmbH Stuttgart, 2015
                                    Version 2015.1 linked Dec 29 2018 15:55:43


 **********************************************************************************************************************************
 LABEL *   Ni                                                                            
  64 bit serial version                                                                  DATE: 16-Feb-19          TIME: 10:55:24  
 **********************************************************************************************************************************

 SHA1:             19cd028119e0e09f93f0674bd8af7968d9b3eff6
 **********************************************************************************************************************************

 THRESHOLDS:

 ZERO    =  1.00D-12  ONEINT  =  1.00D-12  TWOINT  =  1.00D-12  PREFAC  =  1.00D-14  LOCALI  =  1.00D-09  EORDER  =  1.00D-04
 ENERGY  =  0.00D+00  ETEST   =  0.00D+00  EDENS   =  0.00D+00  THRDEDEF=  1.00D-06  GRADIENT=  1.00D-02  STEP    =  1.00D-03
 ORBITAL =  1.00D-05  CIVEC   =  1.00D-05  COEFF   =  1.00D-04  PRINTCI =  5.00D-02  PUNCHCI =  9.90D+01  OPTGRAD =  3.00D-04
 OPTENERG=  1.00D-06  OPTSTEP =  3.00D-04  THRGRAD =  1.00D-10  COMPRESS=  1.00D-11  VARMIN  =  1.00D-07  VARMAX  =  1.00D-03
 THRDOUB =  0.00D+00  THRDIV  =  1.00D-05  THRRED  =  1.00D-07  THRPSP  =  1.00D+00  THRDC   =  1.00D-10  THRCS   =  1.00D-10
 THRNRM  =  1.00D-08  THREQ   =  0.00D+00  THRDE   =  1.00D+00  THRREF  =  1.00D-05  SPARFAC =  1.00D+00  THRDLP  =  1.00D-07
 THRDIA  =  1.00D-10  THRDLS  =  1.00D-07  THRGPS  =  0.00D+00  THRKEX  =  0.00D+00  THRDIS  =  2.00D-01  THRVAR  =  1.00D-10
 THRLOC  =  1.00D-06  THRGAP  =  1.00D-06  THRLOCT = -1.00D+00  THRGAPT = -1.00D+00  THRORB  =  1.00D-06  THRMLTP =  0.00D+00
 THRCPQCI=  1.00D-10  KEXTA   =  0.00D+00  THRCOARS=  0.00D+00  SYMTOL  =  1.00D-06  GRADTOL =  1.00D-06  THROVL  =  1.00D-08
 THRORTH =  1.00D-08  GRID    =  1.00D-06  GRIDMAX =  1.00D-03  DTMAX   =  0.00D+00  THROCCDE=  1.00D-01  THROCCDE=  1.00D-01



 ZUNIT=ANG
 

Geometry recognized as XYZ


 Variable memory set to  512000000 words,  buffer space   230000 words

 SETTING BASIS          =    USERDEF


 Recomputing integrals since basis changed


 Using spherical harmonics



 PROGRAM * SEWARD (Integral evaluation for generally contracted gaussian basis sets)     Author: Roland Lindh, 1990

 Geometry written to block  1 of record 700

 Orientation using atomic masses  
 Molecule type: Atom
 Symmetry elements: X,Y,Z
 Rotational constants:       0.0000000      0.0000000      0.0000000 GHz  (calculated with average atomic masses)

 Point group  D2h 



 ATOMIC COORDINATES

 NR  ATOM    CHARGE       X              Y              Z

   1  NI     18.00    0.000000000    0.000000000    0.000000000


          NI  CORE POTENTIAL

          f POTENTIAL

 POWERS             2
 EXPONENTIALS   1.000000    
 COEFFICIENTS   0.000000    

          s - f POTENTIAL

 POWERS             2              2
 EXPONENTIALS   26.74000       11.86000    
 COEFFICIENTS   317.6823       58.25539    

          p - f POTENTIAL

 POWERS             2              2
 EXPONENTIALS   28.80000       11.79000    
 COEFFICIENTS   252.4744       36.08150    

          d - f POTENTIAL

 POWERS             2              2
 EXPONENTIALS   33.70000       11.66000    
 COEFFICIENTS  -18.52295      -4.557668    


 BASIS DATA

   Nr Sym  Nuc  Type         Exponents   Contraction coefficients

    1.1 Ag    1  1s       10201.992670     0.000018   -0.000004
    2.1 Ag                 2550.498168     0.000078   -0.000019
                            728.713763     0.000243   -0.000058
                            242.904587     0.000821   -0.000200
                             97.161835    -0.000522    0.000154
                             51.187866    -0.005724    0.001116
                             26.996725     0.108264   -0.025210
                             15.523536    -0.151401    0.037685
                              8.916168    -0.329232    0.080252
                              4.795806    -0.024291    0.000867
                              2.619926     0.506913   -0.136055
                              1.330111     0.560034   -0.211236
                              0.668901     0.189622   -0.158046
                              0.230439     0.008846    0.141936
                              0.121518    -0.002605    0.442281
                              0.057951     0.000835    0.473675
                              0.027201    -0.000186    0.111323
    3.1 Ag    1  1s          97.161835     0.000121    0.000434    0.002461    0.000000
    4.1 Ag                   51.187866     0.003322    0.004848   -0.023460    0.000000
    5.1 Ag                   26.996725    -0.045785   -0.087818    0.198590    0.000000
    6.1 Ag                   15.523536     0.053415    0.121852   -0.402525    0.000000
                              8.916168     0.222270    0.454218   -0.405568    0.000000
                              4.795806    -0.073065   -0.245765    0.387893    0.000000
                              2.619926    -0.293998   -0.997345    2.684679    0.000000
                              1.330111    -0.668938   -0.834586   -2.955956    0.000000
                              0.668901     0.297504    2.285675   -0.667467    0.000000
                              0.230439     1.233748    0.251538    4.094074    0.000000
                              0.121518     0.129317   -1.988796   -3.103355    0.000000
                              0.057951    -0.603407    0.347602   -0.768728    0.000000
                              0.027201    -0.533062    0.824150    1.331217    1.000000
    7.1 Ag    1  1s           2.749235     1.000000
    8.1 Ag    1  1s           3.424032     1.000000
    9.1 Ag    1  3d0        355.800250     0.000005
                            177.900125     0.001336
                             57.372112     0.008382
                             29.881432     0.029484
                             13.971757     0.097636
                              6.841152     0.188792
                              3.379983     0.278000
                              1.651827     0.299448
                              0.799251     0.250265
                              0.388057     0.146577
                              0.191191     0.055882
                              0.093358     0.009558
   10.1 Ag    1  3d2+       355.800250     0.000005
                            177.900125     0.001336
                             57.372112     0.008382
                             29.881432     0.029484
                             13.971757     0.097636
                              6.841152     0.188792
                              3.379983     0.278000
                              1.651827     0.299448
                              0.799251     0.250265
                              0.388057     0.146577
                              0.191191     0.055882
                              0.093358     0.009558
   11.1 Ag    1  3d0        177.900125    -0.000053
                             57.372112    -0.008850
                             29.881432    -0.041916
                             13.971757    -0.104691
                              6.841152    -0.219464
                              3.379983    -0.283712
                              1.651827    -0.122127
                              0.799251     0.190123
                              0.388057     0.376598
                              0.191191     0.295122
                              0.093358     0.178252
   12.1 Ag    1  3d2+       177.900125    -0.000053
                             57.372112    -0.008850
                             29.881432    -0.041916
                             13.971757    -0.104691
                              6.841152    -0.219464
                              3.379983    -0.283712
                              1.651827    -0.122127
                              0.799251     0.190123
                              0.388057     0.376598
                              0.191191     0.295122
                              0.093358     0.178252
   13.1 Ag    1  3d0        177.900125     0.000079
                             57.372112     0.011442
                             29.881432     0.053972
                             13.971757     0.141068
                              6.841152     0.302294
                              3.379983     0.236558
                              1.651827    -0.291311
                              0.799251    -0.581758
                              0.388057    -0.024063
                              0.191191     0.389387
                              0.093358     0.430833
   14.1 Ag    1  3d2+       177.900125     0.000079
                             57.372112     0.011442
                             29.881432     0.053972
                             13.971757     0.141068
                              6.841152     0.302294
                              3.379983     0.236558
                              1.651827    -0.291311
                              0.799251    -0.581758
                              0.388057    -0.024063
                              0.191191     0.389387
                              0.093358     0.430833
   15.1 Ag    1  3d0        177.900125    -0.000124
                             57.372112    -0.016602
                             29.881432    -0.077533
                             13.971757    -0.221826
                              6.841152    -0.481658
                              3.379983     0.182447
                              1.651827     0.945626
                              0.799251    -0.334241
                              0.388057    -0.761164
                              0.191191     0.136816
                              0.093358     0.600785
   16.1 Ag    1  3d2+       177.900125    -0.000124
                             57.372112    -0.016602
                             29.881432    -0.077533
                             13.971757    -0.221826
                              6.841152    -0.481658
                              3.379983     0.182447
                              1.651827     0.945626
                              0.799251    -0.334241
                              0.388057    -0.761164
                              0.191191     0.136816
                              0.093358     0.600785
   17.1 Ag    1  3d0        177.900125     0.000000
                             57.372112     0.000000
                             29.881432     0.000000
                             13.971757     0.000000
                              6.841152     0.000000
                              3.379983     0.000000
                              1.651827     0.000000
                              0.799251     0.000000
                              0.388057     0.000000
                              0.191191     0.000000
                              0.093358     1.000000
   18.1 Ag    1  3d2+       177.900125     0.000000
                             57.372112     0.000000
                             29.881432     0.000000
                             13.971757     0.000000
                              6.841152     0.000000
                              3.379983     0.000000
                              1.651827     0.000000
                              0.799251     0.000000
                              0.388057     0.000000
                              0.191191     0.000000
                              0.093358     1.000000
   19.1 Ag    1  3d0          4.388587     1.000000
   20.1 Ag    1  3d2+         4.388587     1.000000
   21.1 Ag    1  3d0          5.303761     1.000000
   22.1 Ag    1  3d2+         5.303761     1.000000
   23.1 Ag    1  5g0          1.549000     1.000000
   24.1 Ag    1  5g4+         1.549000     1.000000
   25.1 Ag    1  5g2+         1.549000     1.000000
   26.1 Ag    1  5g0          5.290163     1.000000
   27.1 Ag    1  5g4+         5.290163     1.000000
   28.1 Ag    1  5g2+         5.290163     1.000000
   29.1 Ag    1  5g0          7.523045     1.000000
   30.1 Ag    1  5g4+         7.523045     1.000000
   31.1 Ag    1  5g2+         7.523045     1.000000
    1.2 B3u   1  2px        370.219075     0.000133    0.000051
    2.2 B3u                 148.087630     0.000184   -0.000060
                             77.452187    -0.000171    0.000387
                             40.915636     0.012864    0.002261
                             22.575667    -0.043275   -0.009122
                             13.218268    -0.073470   -0.026366
                              7.232093     0.037020    0.023521
                              4.054870     0.287407    0.071181
                              2.122089     0.417209    0.159270
                              1.092769     0.306664    0.074081
                              0.548240     0.098195    0.033197
                              0.238886     0.008483   -0.601421
                              0.084667     0.000400   -0.517750
                              0.038921     0.000036   -0.009842
    3.2 B3u   1  2px        148.087630    -0.000237   -0.000260    0.000080    0.000000
    4.2 B3u                  77.452187     0.001456    0.001071   -0.000101    0.000000
    5.2 B3u                  40.915636    -0.009745    0.002322   -0.006492    0.000000
    6.2 B3u                  22.575667     0.037799   -0.032140    0.083129    0.000000
                             13.218268     0.052521   -0.134136    0.195393    0.000000
                              7.232093    -0.035006    0.229062   -0.765806    0.000000
                              4.054870    -0.455577    0.752239   -1.206017    0.000000
                              2.122089    -0.368306    0.205535    2.424444    0.000000
                              1.092769     0.100392   -1.692910   -0.079387    0.000000
                              0.548240     1.076652    0.436295   -2.325449    0.000000
                              0.238886    -0.045326    1.219514    2.129133    0.000000
                              0.084667    -0.703186   -0.945516   -0.733585    0.000000
                              0.038921     0.004580   -0.062232   -0.180444    1.000000
    7.2 B3u   1  2px          2.987946     1.000000
    8.2 B3u   1  2px          9.332016     1.000000
    9.2 B3u   1  4f1+         0.659980     1.000000
   10.2 B3u   1  4f3+         0.659980     1.000000
   11.2 B3u   1  4f1+         2.182234     1.000000
   12.2 B3u   1  4f3+         2.182234     1.000000
   13.2 B3u   1  4f1+         7.215589     1.000000
   14.2 B3u   1  4f3+         7.215589     1.000000
   15.2 B3u   1  4f1+         4.238774     1.000000
   16.2 B3u   1  4f3+         4.238774     1.000000
   17.2 B3u   1  6h1+         3.361535     1.000000
   18.2 B3u   1  6h3+         3.361535     1.000000
   19.2 B3u   1  6h5+         3.361535     1.000000
   20.2 B3u   1  6h1+         7.787971     1.000000
   21.2 B3u   1  6h3+         7.787971     1.000000
   22.2 B3u   1  6h5+         7.787971     1.000000
    1.3 B2u   1  2py        370.219075     0.000133    0.000051
    2.3 B2u                 148.087630     0.000184   -0.000060
                             77.452187    -0.000171    0.000387
                             40.915636     0.012864    0.002261
                             22.575667    -0.043275   -0.009122
                             13.218268    -0.073470   -0.026366
                              7.232093     0.037020    0.023521
                              4.054870     0.287407    0.071181
                              2.122089     0.417209    0.159270
                              1.092769     0.306664    0.074081
                              0.548240     0.098195    0.033197
                              0.238886     0.008483   -0.601421
                              0.084667     0.000400   -0.517750
                              0.038921     0.000036   -0.009842
    3.3 B2u   1  2py        148.087630    -0.000237   -0.000260    0.000080    0.000000
    4.3 B2u                  77.452187     0.001456    0.001071   -0.000101    0.000000
    5.3 B2u                  40.915636    -0.009745    0.002322   -0.006492    0.000000
    6.3 B2u                  22.575667     0.037799   -0.032140    0.083129    0.000000
                             13.218268     0.052521   -0.134136    0.195393    0.000000
                              7.232093    -0.035006    0.229062   -0.765806    0.000000
                              4.054870    -0.455577    0.752239   -1.206017    0.000000
                              2.122089    -0.368306    0.205535    2.424444    0.000000
                              1.092769     0.100392   -1.692910   -0.079387    0.000000
                              0.548240     1.076652    0.436295   -2.325449    0.000000
                              0.238886    -0.045326    1.219514    2.129133    0.000000
                              0.084667    -0.703186   -0.945516   -0.733585    0.000000
                              0.038921     0.004580   -0.062232   -0.180444    1.000000
    7.3 B2u   1  2py          2.987946     1.000000
    8.3 B2u   1  2py          9.332016     1.000000
    9.3 B2u   1  4f1-         0.659980     1.000000
   10.3 B2u   1  4f3-         0.659980     1.000000
   11.3 B2u   1  4f1-         2.182234     1.000000
   12.3 B2u   1  4f3-         2.182234     1.000000
   13.3 B2u   1  4f1-         7.215589     1.000000
   14.3 B2u   1  4f3-         7.215589     1.000000
   15.3 B2u   1  4f1-         4.238774     1.000000
   16.3 B2u   1  4f3-         4.238774     1.000000
   17.3 B2u   1  6h1-         3.361535     1.000000
   18.3 B2u   1  6h3-         3.361535     1.000000
   19.3 B2u   1  6h5-         3.361535     1.000000
   20.3 B2u   1  6h1-         7.787971     1.000000
   21.3 B2u   1  6h3-         7.787971     1.000000
   22.3 B2u   1  6h5-         7.787971     1.000000
    1.4 B1g   1  3d2-       355.800250     0.000005
                            177.900125     0.001336
                             57.372112     0.008382
                             29.881432     0.029484
                             13.971757     0.097636
                              6.841152     0.188792
                              3.379983     0.278000
                              1.651827     0.299448
                              0.799251     0.250265
                              0.388057     0.146577
                              0.191191     0.055882
                              0.093358     0.009558
    2.4 B1g   1  3d2-       177.900125    -0.000053    0.000079   -0.000124    0.000000
    3.4 B1g                  57.372112    -0.008850    0.011442   -0.016602    0.000000
    4.4 B1g                  29.881432    -0.041916    0.053972   -0.077533    0.000000
    5.4 B1g                  13.971757    -0.104691    0.141068   -0.221826    0.000000
                              6.841152    -0.219464    0.302294   -0.481658    0.000000
                              3.379983    -0.283712    0.236558    0.182447    0.000000
                              1.651827    -0.122127   -0.291311    0.945626    0.000000
                              0.799251     0.190123   -0.581758   -0.334241    0.000000
                              0.388057     0.376598   -0.024063   -0.761164    0.000000
                              0.191191     0.295122    0.389387    0.136816    0.000000
                              0.093358     0.178252    0.430833    0.600785    1.000000
    6.4 B1g   1  3d2-         4.388587     1.000000
    7.4 B1g   1  3d2-         5.303761     1.000000
    8.4 B1g   1  5g2-         1.549000     1.000000
    9.4 B1g   1  5g4-         1.549000     1.000000
   10.4 B1g   1  5g2-         5.290163     1.000000
   11.4 B1g   1  5g4-         5.290163     1.000000
   12.4 B1g   1  5g2-         7.523045     1.000000
   13.4 B1g   1  5g4-         7.523045     1.000000
    1.5 B1u   1  2pz        370.219075     0.000133    0.000051
    2.5 B1u                 148.087630     0.000184   -0.000060
                             77.452187    -0.000171    0.000387
                             40.915636     0.012864    0.002261
                             22.575667    -0.043275   -0.009122
                             13.218268    -0.073470   -0.026366
                              7.232093     0.037020    0.023521
                              4.054870     0.287407    0.071181
                              2.122089     0.417209    0.159270
                              1.092769     0.306664    0.074081
                              0.548240     0.098195    0.033197
                              0.238886     0.008483   -0.601421
                              0.084667     0.000400   -0.517750
                              0.038921     0.000036   -0.009842
    3.5 B1u   1  2pz        148.087630    -0.000237   -0.000260    0.000080    0.000000
    4.5 B1u                  77.452187     0.001456    0.001071   -0.000101    0.000000
    5.5 B1u                  40.915636    -0.009745    0.002322   -0.006492    0.000000
    6.5 B1u                  22.575667     0.037799   -0.032140    0.083129    0.000000
                             13.218268     0.052521   -0.134136    0.195393    0.000000
                              7.232093    -0.035006    0.229062   -0.765806    0.000000
                              4.054870    -0.455577    0.752239   -1.206017    0.000000
                              2.122089    -0.368306    0.205535    2.424444    0.000000
                              1.092769     0.100392   -1.692910   -0.079387    0.000000
                              0.548240     1.076652    0.436295   -2.325449    0.000000
                              0.238886    -0.045326    1.219514    2.129133    0.000000
                              0.084667    -0.703186   -0.945516   -0.733585    0.000000
                              0.038921     0.004580   -0.062232   -0.180444    1.000000
    7.5 B1u   1  2pz          2.987946     1.000000
    8.5 B1u   1  2pz          9.332016     1.000000
    9.5 B1u   1  4f0          0.659980     1.000000
   10.5 B1u   1  4f2+         0.659980     1.000000
   11.5 B1u   1  4f0          2.182234     1.000000
   12.5 B1u   1  4f2+         2.182234     1.000000
   13.5 B1u   1  4f0          7.215589     1.000000
   14.5 B1u   1  4f2+         7.215589     1.000000
   15.5 B1u   1  4f0          4.238774     1.000000
   16.5 B1u   1  4f2+         4.238774     1.000000
   17.5 B1u   1  6h2+         3.361535     1.000000
   18.5 B1u   1  6h4+         3.361535     1.000000
   19.5 B1u   1  6h0          3.361535     1.000000
   20.5 B1u   1  6h2+         7.787971     1.000000
   21.5 B1u   1  6h4+         7.787971     1.000000
   22.5 B1u   1  6h0          7.787971     1.000000
    1.6 B2g   1  3d1+       355.800250     0.000005
                            177.900125     0.001336
                             57.372112     0.008382
                             29.881432     0.029484
                             13.971757     0.097636
                              6.841152     0.188792
                              3.379983     0.278000
                              1.651827     0.299448
                              0.799251     0.250265
                              0.388057     0.146577
                              0.191191     0.055882
                              0.093358     0.009558
    2.6 B2g   1  3d1+       177.900125    -0.000053    0.000079   -0.000124    0.000000
    3.6 B2g                  57.372112    -0.008850    0.011442   -0.016602    0.000000
    4.6 B2g                  29.881432    -0.041916    0.053972   -0.077533    0.000000
    5.6 B2g                  13.971757    -0.104691    0.141068   -0.221826    0.000000
                              6.841152    -0.219464    0.302294   -0.481658    0.000000
                              3.379983    -0.283712    0.236558    0.182447    0.000000
                              1.651827    -0.122127   -0.291311    0.945626    0.000000
                              0.799251     0.190123   -0.581758   -0.334241    0.000000
                              0.388057     0.376598   -0.024063   -0.761164    0.000000
                              0.191191     0.295122    0.389387    0.136816    0.000000
                              0.093358     0.178252    0.430833    0.600785    1.000000
    6.6 B2g   1  3d1+         4.388587     1.000000
    7.6 B2g   1  3d1+         5.303761     1.000000
    8.6 B2g   1  5g1+         1.549000     1.000000
    9.6 B2g   1  5g3+         1.549000     1.000000
   10.6 B2g   1  5g1+         5.290163     1.000000
   11.6 B2g   1  5g3+         5.290163     1.000000
   12.6 B2g   1  5g1+         7.523045     1.000000
   13.6 B2g   1  5g3+         7.523045     1.000000
    1.7 B3g   1  3d1-       355.800250     0.000005
                            177.900125     0.001336
                             57.372112     0.008382
                             29.881432     0.029484
                             13.971757     0.097636
                              6.841152     0.188792
                              3.379983     0.278000
                              1.651827     0.299448
                              0.799251     0.250265
                              0.388057     0.146577
                              0.191191     0.055882
                              0.093358     0.009558
    2.7 B3g   1  3d1-       177.900125    -0.000053    0.000079   -0.000124    0.000000
    3.7 B3g                  57.372112    -0.008850    0.011442   -0.016602    0.000000
    4.7 B3g                  29.881432    -0.041916    0.053972   -0.077533    0.000000
    5.7 B3g                  13.971757    -0.104691    0.141068   -0.221826    0.000000
                              6.841152    -0.219464    0.302294   -0.481658    0.000000
                              3.379983    -0.283712    0.236558    0.182447    0.000000
                              1.651827    -0.122127   -0.291311    0.945626    0.000000
                              0.799251     0.190123   -0.581758   -0.334241    0.000000
                              0.388057     0.376598   -0.024063   -0.761164    0.000000
                              0.191191     0.295122    0.389387    0.136816    0.000000
                              0.093358     0.178252    0.430833    0.600785    1.000000
    6.7 B3g   1  3d1-         4.388587     1.000000
    7.7 B3g   1  3d1-         5.303761     1.000000
    8.7 B3g   1  5g1-         1.549000     1.000000
    9.7 B3g   1  5g3-         1.549000     1.000000
   10.7 B3g   1  5g1-         5.290163     1.000000
   11.7 B3g   1  5g3-         5.290163     1.000000
   12.7 B3g   1  5g1-         7.523045     1.000000
   13.7 B3g   1  5g3-         7.523045     1.000000
    1.8 Au    1  4f2-         0.659980     1.000000
    2.8 Au    1  4f2-         2.182234     1.000000
    3.8 Au    1  4f2-         7.215589     1.000000
    4.8 Au    1  4f2-         4.238774     1.000000
    5.8 Au    1  6h4-         3.361535     1.000000
    6.8 Au    1  6h2-         3.361535     1.000000
    7.8 Au    1  6h4-         7.787971     1.000000
    8.8 Au    1  6h2-         7.787971     1.000000

 NUCLEAR CHARGE:                   18
 NUMBER OF PRIMITIVE AOS:         396
 NUMBER OF SYMMETRY AOS:          321
 NUMBER OF CONTRACTIONS:          144   (  31Ag  +  22B3u +  22B2u +  13B1g +  22B1u +  13B2g +  13B3g +   8Au  )
 NUMBER OF CORE ORBITALS:           4   (   1Ag  +   1B3u +   1B2u +   0B1g +   1B1u +   0B2g +   0B3g +   0Au  )
 NUMBER OF VALENCE ORBITALS:        6   (   3Ag  +   0B3u +   0B2u +   1B1g +   0B1u +   1B2g +   1B3g +   0Au  )


 NUCLEAR REPULSION ENERGY    0.00000000

 EXTRA SYMMETRY OF AOS IN SYMMETRY 1:   1 1 1 1 1 1 1 1 2 3   2 3 2 3 2 3 2 3 2 3   2 3 4 5 6 4 5 6 4 5   6
 EXTRA SYMMETRY OF AOS IN SYMMETRY 2:   1 1 1 1 1 1 1 1 2 3   2 3 2 3 2 3 4 5 6 4   5 6
 EXTRA SYMMETRY OF AOS IN SYMMETRY 3:   1 1 1 1 1 1 1 1 2 3   2 3 2 3 2 3 4 5 6 4   5 6
 EXTRA SYMMETRY OF AOS IN SYMMETRY 4:   1 1 1 1 1 1 1 2 3 2   3 2 3
 EXTRA SYMMETRY OF AOS IN SYMMETRY 5:   1 1 1 1 1 1 1 1 2 3   2 3 2 3 2 3 4 5 6 4   5 6
 EXTRA SYMMETRY OF AOS IN SYMMETRY 6:   1 1 1 1 1 1 1 2 3 2   3 2 3
 EXTRA SYMMETRY OF AOS IN SYMMETRY 7:   1 1 1 1 1 1 1 2 3 2   3 2 3
 EXTRA SYMMETRY OF AOS IN SYMMETRY 8:   1 1 1 1 2 3 2 3

 Eigenvalues of metric

         1 0.210E-03 0.212E-02 0.212E-02 0.308E-02 0.235E-01 0.235E-01 0.504E-01 0.504E-01
         2 0.141E-02 0.402E-01 0.402E-01 0.847E-01 0.166E+00 0.380E+00 0.380E+00 0.427E+00
         3 0.141E-02 0.402E-01 0.402E-01 0.847E-01 0.166E+00 0.380E+00 0.380E+00 0.427E+00
         4 0.212E-02 0.235E-01 0.504E-01 0.648E-01 0.648E-01 0.857E+00 0.857E+00 0.979E+00
         5 0.141E-02 0.402E-01 0.402E-01 0.847E-01 0.166E+00 0.380E+00 0.380E+00 0.427E+00
         6 0.212E-02 0.235E-01 0.504E-01 0.648E-01 0.648E-01 0.857E+00 0.857E+00 0.979E+00
         7 0.212E-02 0.235E-01 0.504E-01 0.648E-01 0.648E-01 0.857E+00 0.857E+00 0.979E+00
         8 0.402E-01 0.380E+00 0.427E+00 0.427E+00 0.105E+01 0.157E+01 0.157E+01 0.253E+01


 Contracted 2-electron integrals neglected if value below      1.0D-12
 AO integral compression algorithm  1   Integral accuracy      1.0D-12

     54.264 MB (compressed) written to integral file ( 58.2%)


 NUMBER OF SORTED TWO-ELECTRON INTEGRALS:    7063297.     BUFFER LENGTH:  32768
 NUMBER OF SEGMENTS:   1  SEGMENT LENGTH:    7063297      RECORD LENGTH: 524288

 Memory used in sort:       7.62 MW

 SORT1 READ    11599838. AND WROTE     4948094. INTEGRALS IN     15 RECORDS. CPU TIME:     0.37 SEC, REAL TIME:     0.52 SEC
 SORT2 READ     4948094. AND WROTE     7063297. INTEGRALS IN    207 RECORDS. CPU TIME:     0.33 SEC, REAL TIME:     0.57 SEC

 FILE SIZES:   FILE 1:    74.7 MBYTE,  FILE 4:    62.9 MBYTE,   TOTAL:    137.6 MBYTE

 OPERATOR DM      FOR CENTER  0  COORDINATES:    0.000000    0.000000    0.000000
 OPERATOR EKIN    FOR CENTER  0  COORDINATES:    0.000000    0.000000    0.000000
 OPERATOR POT     FOR CENTER  0  COORDINATES:    0.000000    0.000000    0.000000


 **********************************************************************************************************************************
 DATASETS  * FILE   NREC   LENGTH (MB)   RECORD NAMES
              1      20       52.59       500      610      700      900      950      970     1000      129      960     1100   
                                          VAR    BASINP    GEOM    SYMINP    ZMAT    AOBASIS   BASIS     P2S    ABASIS      S 
                                         1400     1410     1420     1200     1210     1080     1600     1650     1300     1700   
                                         EKIN       V       ECP      H0       H01     AOSYM     SMH    MOLCAS    ERIS     OPER   

 PROGRAMS   *        TOTAL       INT
 CPU TIMES  *        33.39     33.27
 REAL TIME  *        37.94 SEC
 DISK USED  *       137.98 MB      
 **********************************************************************************************************************************


 PROGRAM * RHF-SCF (OPEN SHELL)       Authors: W. Meyer, H.-J. Werner


 NUMBER OF ELECTRONS:      10+    8-    SPACE SYMMETRY=6    SPIN SYMMETRY: Triplet 
 CONVERGENCE THRESHOLDS:    1.00E-05 (Density)    1.00E-07 (Energy)
 MAX. NUMBER OF ITERATIONS:       60
 INTERPOLATION TYPE:            DIIS
 INTERPOLATION STEPS:              2 (START)      1 (STEP)
 LEVEL SHIFTS:                 -0.60 (CLOSED) -0.30 (OPEN) 


 Singly occupied orbitals:      1.4       1.7
 
 Extra symmetries of mos in symmetry 1:   1   1   3   2

   Atom=NI basis=ECP10MDF_GUESS    lmin=0  lmax=2

 Orbital guess generated from atomic densities. Full valence occupancy:    4   1   1   1   1   1   1   0


 Molecular orbital dump at record        4202.2

 ITERATION    DDIFF          GRAD             ENERGY        2-EL.EN.            DIPOLE MOMENTS         DIIS   ORB.
    1      0.000D+00      0.000D+00      -168.77481868    235.116608    0.00000    0.00000    0.00000    0    start
    2      0.000D+00      0.116D+00      -169.53067099    278.667591    0.00000    0.00000    0.00000    1    diag,B
    3      0.264D-01      0.904D-01      -169.90874239    266.765911    0.00000    0.00000    0.00000    2    diag,B
    4      0.802D-02      0.125D-01      -169.92409029    266.043648    0.00000    0.00000    0.00000    3    diag,B
    5      0.356D-02      0.238D-02      -169.92759928    266.561850    0.00000    0.00000    0.00000    4    diag,B
    6      0.566D-02      0.955D-03      -169.92864289    266.885551    0.00000    0.00000    0.00000    5    diag,B
    7      0.763D-02      0.442D-03      -169.92894215    267.016186    0.00000    0.00000    0.00000    6    fixocc
    8      0.778D-02      0.137D-03      -169.92896554    267.059347    0.00000    0.00000    0.00000    7    diag,B
    9      0.268D-02      0.310D-04      -169.92896592    267.060422    0.00000    0.00000    0.00000    8    diag,B
   10      0.102D-03      0.626D-05      -169.92896595    267.060492    0.00000    0.00000    0.00000    9    orth
   11      0.363D-04      0.180D-05      -169.92896595    267.060535    0.00000    0.00000    0.00000    9    diag,B
   12      0.187D-04      0.517D-06      -169.92896595    267.060640    0.00000    0.00000    0.00000    9    diag,B
   13      0.226D-05      0.155D-06      -169.92896595    267.060638    0.00000    0.00000    0.00000    0    orth

 Final alpha occupancy:   4   1   1   1   1   1   1   0
 Final beta  occupancy:   4   1   1   0   1   1   0   0

 !RHF STATE 1.6 Energy               -169.928965947194
 Nuclear energy                         0.00000000
 One-electron energy                 -303.45928501
 Two-electron energy                  133.53031906
 Virial quotient                       -1.55757712
 !RHF STATE 1.6 Dipole moment           0.00000000     0.00000000     0.00000000
 Dipole moment /Debye                   0.00000000     0.00000000     0.00000000
 

 !RHF expec          <1.6|EKIN|1.6>   109.098267761781
 
 !RHF expec           <1.6|POT|1.6>   -23.758586564477

 ELECTRON ORBITALS
 =================


   Orb  Occ    Energy  Couls-En    Coefficients

                                   1 1s      1 1s      1 1s      1 1s      1 1s      1 1s      1 1s      1 1s      1 3d0     1 3d2+ 
                                   1 3d0     1 3d2+    1 3d0     1 3d2+    1 3d0     1 3d2+    1 3d0     1 3d2+    1 3d0     1 3d2+ 
                                   1 3d0     1 3d2+    1 5g0     1 5g4+    1 5g2+    1 5g0     1 5g4+    1 5g2+    1 5g0     1 5g4+ 
                                   1 5g2+ 

   1.1   2    -5.0620  -26.5677  1.000021 -0.000091  0.000065 -0.000012 -0.000033  0.000118 -0.000304  0.000253 -0.002733 -0.004734
                                 0.000743  0.001286 -0.000353 -0.000612 -0.000422 -0.000731  0.000356  0.000617 -0.000637 -0.001103
                                 0.000225  0.000390  0.000375  0.000740  0.000560  0.000048  0.000094  0.000071  0.000095  0.000187
                                 0.000142

   2.1   2    -0.2806   -7.0796 -0.000016  1.000070  0.000097 -0.000022  0.000017 -0.000171  0.000223 -0.000185 -0.001019 -0.001764
                                -0.005210 -0.009024 -0.001558 -0.002699  0.000077  0.000133 -0.000755 -0.001308 -0.000185 -0.000321
                                 0.000273  0.000473 -0.000003 -0.000007 -0.000005  0.000074  0.000146  0.000110 -0.000038 -0.000075
                                -0.000057

   3.1   2    -0.7102  -16.8399  0.005904  0.001387  0.001062  0.000287 -0.000043  0.000205  0.000923 -0.000802  0.499743  0.865580
                                -0.001850 -0.003204 -0.000670 -0.001160 -0.000035 -0.000061  0.000317  0.000549 -0.000156 -0.000269
                                 0.000256  0.000443 -0.001063 -0.002096 -0.001585 -0.000369 -0.000729 -0.000551 -0.000091 -0.000179
                                -0.000136

   4.1   2    -0.6499  -16.6701 -0.000000 -0.000000  0.000000 -0.000000 -0.000000  0.000000 -0.000000  0.000000  0.866920 -0.500517
                                 0.011125 -0.006423  0.003046 -0.001759 -0.000348  0.000201 -0.000990  0.000572  0.000490 -0.000283
                                -0.000684  0.000395 -0.000564  0.000667 -0.000505 -0.000278  0.000329 -0.000249 -0.000009  0.000011
                                -0.000008

   5.1   0     0.0716   -2.7959  0.456338  3.508478 -1.190172  0.559278  0.147598 -4.203065  0.720681 -0.499471 -0.000384 -0.000666
                                -0.002883 -0.004993 -0.000699 -0.001210  0.000077  0.000134 -0.000242 -0.000420 -0.000107 -0.000185
                                 0.000155  0.000268 -0.000133 -0.000263 -0.000199  0.000073  0.000144  0.000109 -0.000015 -0.000030
                                -0.000023

   6.1   0     0.2625   -3.7898  0.004159  0.054989 -0.025055  0.011229  0.003387 -0.055136  0.015061 -0.011358 -0.186824 -0.323589
                                -0.189680 -0.328536 -0.172594 -0.298942 -0.073604 -0.127486  0.767218  1.328861  0.098226  0.170133
                                -0.065333 -0.113160  0.000040  0.000079  0.000059  0.000055  0.000108  0.000082 -0.000004 -0.000007
                                -0.000006

                                   1 2px     1 2px     1 2px     1 2px     1 2px     1 2px     1 2px     1 2px     1 4f1+    1 4f3+ 
                                   1 4f1+    1 4f3+    1 4f1+    1 4f3+    1 4f1+    1 4f3+    1 6h1+    1 6h3+    1 6h5+    1 6h1+ 
                                   1 6h3+    1 6h5+ 

   1.2   2    -3.3535  -23.0154  1.000261 -0.000699  0.000489  0.000099 -0.000103 -0.000016 -0.000346  0.000110  0.000462  0.001789
                                 0.000373  0.001444  0.000216  0.000838 -0.000130 -0.000505 -0.000023 -0.000073 -0.000164 -0.000012
                                -0.000038 -0.000084

   2.2   0     0.0450   -3.8999 -0.001482 -0.052422  0.047927  0.058406  0.028227  1.011134 -0.078594  0.015883 -0.000483 -0.001873
                                 0.000137  0.000532  0.000049  0.000188 -0.000008 -0.000033 -0.000000 -0.000001 -0.000003  0.000006
                                 0.000020  0.000046

   3.2   0     0.2115   -4.4087  0.287883  1.717721  0.460441  0.408776  0.177848  1.600352 -0.449538  0.097829  0.000860  0.003329
                                -0.000204 -0.000789 -0.000071 -0.000277 -0.000008 -0.000033  0.000001  0.000004  0.000008 -0.000011
                                -0.000035 -0.000078

                                   1 2py     1 2py     1 2py     1 2py     1 2py     1 2py     1 2py     1 2py     1 4f1-    1 4f3- 
                                   1 4f1-    1 4f3-    1 4f1-    1 4f3-    1 4f1-    1 4f3-    1 6h1-    1 6h3-    1 6h5-    1 6h1- 
                                   1 6h3-    1 6h5- 

   1.3   2    -3.3626  -23.0346  0.999444  0.001321 -0.000879 -0.000242  0.000218  0.000031  0.000647 -0.000207 -0.002239 -0.002890
                                -0.004144 -0.005350 -0.001583 -0.002043 -0.000394 -0.000509 -0.000097 -0.000105 -0.000141 -0.000057
                                -0.000061 -0.000083

   2.3   0     0.0410   -4.0049 -0.004868 -0.097401  0.041734  0.051847  0.025223  0.972690 -0.070941  0.014266 -0.000771 -0.000995
                                 0.000187  0.000242  0.000059  0.000076 -0.000093 -0.000121 -0.000003 -0.000004 -0.000005  0.000034
                                 0.000037  0.000050

   3.3   0     0.2045   -4.3800  0.277671  1.708868  0.447495  0.399312  0.174033  1.613339 -0.440002  0.095650  0.001210  0.001562
                                -0.000264 -0.000341 -0.000083 -0.000107  0.000122  0.000157  0.000008  0.000009  0.000012 -0.000056
                                -0.000060 -0.000080

                                   1 3d2-    1 3d2-    1 3d2-    1 3d2-    1 3d2-    1 3d2-    1 3d2-    1 5g2-    1 5g4-    1 5g2- 
                                   1 5g4-    1 5g2-    1 5g4- 

   1.4   +    -0.7770  -17.0361  0.997237 -0.023492 -0.005986  0.001247  0.002757 -0.001242  0.002121 -0.000932 -0.002466 -0.000377
                                -0.000997 -0.000063 -0.000166

   2.4   0     0.2616   -3.7763 -0.360850 -0.373014 -0.341827 -0.146361  1.528358  0.195522 -0.130166  0.000046  0.000122  0.000074
                                 0.000195 -0.000006 -0.000016

   3.4   0     0.8801   -5.2899  0.874062  2.148517  1.675347  0.615561 -2.557723 -0.694475  0.439214 -0.000005 -0.000014  0.000215
                                 0.000570 -0.000024 -0.000063

                                   1 2pz     1 2pz     1 2pz     1 2pz     1 2pz     1 2pz     1 2pz     1 2pz     1 4f0     1 4f2+ 
                                   1 4f0     1 4f2+    1 4f0     1 4f2+    1 4f0     1 4f2+    1 6h2+    1 6h4+    1 6h0     1 6h2+ 
                                   1 6h4+    1 6h0  

   1.5   2    -3.3535  -23.0154  1.000261 -0.000699  0.000489  0.000099 -0.000103 -0.000016 -0.000346  0.000110  0.001131  0.001460
                                 0.000913  0.001179  0.000530  0.000684 -0.000319 -0.000412 -0.000120 -0.000104 -0.000088 -0.000061
                                -0.000053 -0.000045

   2.5   0     0.0450   -3.8999 -0.001482 -0.052422  0.047927  0.058406  0.028227  1.011134 -0.078594  0.015883 -0.001184 -0.001529
                                 0.000336  0.000434  0.000119  0.000154 -0.000021 -0.000027 -0.000002 -0.000002 -0.000001  0.000033
                                 0.000029  0.000024

   3.5   0     0.2115   -4.4087  0.287883  1.717721  0.460441  0.408776  0.177848  1.600352 -0.449538  0.097829  0.002106  0.002718
                                -0.000499 -0.000644 -0.000175 -0.000226 -0.000021 -0.000027  0.000006  0.000005  0.000004 -0.000057
                                -0.000049 -0.000042

                                   1 3d1+    1 3d1+    1 3d1+    1 3d1+    1 3d1+    1 3d1+    1 3d1+    1 5g1+    1 5g3+    1 5g1+ 
                                   1 5g3+    1 5g1+    1 5g3+ 

   1.6   2    -0.6499  -16.6701  1.001033  0.012846  0.003517 -0.000402 -0.001144  0.000566 -0.000790 -0.000357 -0.000944 -0.000176
                                -0.000466 -0.000006 -0.000015

   2.6   0     0.2653   -3.7940 -0.387616 -0.391192 -0.352850 -0.149643  1.547046  0.199078 -0.132243  0.000100  0.000263  0.000120
                                 0.000319 -0.000007 -0.000019

   3.6   0     0.8970   -5.3731  0.855053  2.154083  1.694455  0.626608 -2.568753 -0.709412  0.449677  0.000059  0.000157  0.000333
                                 0.000882 -0.000029 -0.000076

                                   1 3d1-    1 3d1-    1 3d1-    1 3d1-    1 3d1-    1 3d1-    1 3d1-    1 5g1-    1 5g3-    1 5g1- 
                                   1 5g3-    1 5g1-    1 5g3- 

   1.7   +    -0.7770  -17.0361  0.997237 -0.023492 -0.005986  0.001247  0.002757 -0.001242  0.002121 -0.001977 -0.001744 -0.000799
                                -0.000705 -0.000133 -0.000118

   2.7   0     0.2616   -3.7763 -0.360850 -0.373014 -0.341827 -0.146361  1.528358  0.195522 -0.130166  0.000098  0.000086  0.000156
                                 0.000138 -0.000013 -0.000011

   3.7   0     0.8801   -5.2899  0.874062  2.148517  1.675347  0.615561 -2.557723 -0.694475  0.439214 -0.000011 -0.000010  0.000457
                                 0.000403 -0.000050 -0.000044

                                   1 4f2-    1 4f2-    1 4f2-    1 4f2-    1 6h4-    1 6h2-    1 6h4-    1 6h2- 

   1.8   0     2.1469   -5.4623  1.029975 -0.107468 -0.029400  0.117254 -0.000859 -0.000496  0.000128  0.000074

   2.8   0     6.5870   -1.3861 -0.575257  1.439332  0.265607 -0.522475 -0.003080 -0.001778  0.000138  0.000079

 HOMO      4.1    -0.649876 =     -17.6840eV
 LUMO      2.3     0.041000 =       1.1157eV
 LUMO-HOMO         0.690876 =      18.7997eV


 **********************************************************************************************************************************
 DATASETS  * FILE   NREC   LENGTH (MB)   RECORD NAMES
              1      20       52.59       500      610      700      900      950      970     1000      129      960     1100   
                                          VAR    BASINP    GEOM    SYMINP    ZMAT    AOBASIS   BASIS     P2S    ABASIS      S 
                                         1400     1410     1420     1200     1210     1080     1600     1650     1300     1700   
                                         EKIN       V       ECP      H0       H01     AOSYM     SMH    MOLCAS    ERIS     OPER   

              2       4        2.87       700     1000      520     4202   
                                         GEOM     BASIS   MCVARS     RHF  

 PROGRAMS   *        TOTAL       RHF       INT
 CPU TIMES  *        33.82      0.42     33.27
 REAL TIME  *        38.75 SEC
 DISK USED  *       137.98 MB      
 **********************************************************************************************************************************


 PROGRAM * POP (Mulliken population analysis)

 
 Density matrix read from record         4202.2  Type=RHF/CHARGE (state 1.6)
 
 Population analysis by basis function type

 Unique atom        s        p        d        f        g    Total    Charge
   1  NI      3.99969  5.99973  8.00025  0.00027  0.00005 18.00000  - 0.00000


 **********************************************************************************************************************************
 DATASETS  * FILE   NREC   LENGTH (MB)   RECORD NAMES
              1      20       52.59       500      610      700      900      950      970     1000      129      960     1100   
                                          VAR    BASINP    GEOM    SYMINP    ZMAT    AOBASIS   BASIS     P2S    ABASIS      S 
                                         1400     1410     1420     1200     1210     1080     1600     1650     1300     1700   
                                         EKIN       V       ECP      H0       H01     AOSYM     SMH    MOLCAS    ERIS     OPER   

              2       4        2.87       700     1000      520     4202   
                                         GEOM     BASIS   MCVARS     RHF  

 PROGRAMS   *        TOTAL       POP       RHF       INT
 CPU TIMES  *        33.82      0.00      0.42     33.27
 REAL TIME  *        38.79 SEC
 DISK USED  *       137.98 MB      
 **********************************************************************************************************************************


 PROGRAM * MULTI (Direct Multiconfiguration SCF)       Authors: P.J. Knowles, H.-J. Werner (1984)     S.T. Elbert (1988)


 Number of closed-shell orbitals:   5 (   2   1   1   0   1   0   0   0 )
 Number of active  orbitals:        5 (   2   0   0   1   0   1   1   0 )
 Number of external orbitals:     134 (  27  21  21  12  21  12  12   8 )

 State symmetry 1

 Number of electrons:     8    Spin symmetry=Triplet   Space symmetry=1
 Number of states:        1
 Number of CSFs:          1   (1 determinants, 10 intermediate states)

 State symmetry 2

 Number of electrons:     8    Spin symmetry=Triplet   Space symmetry=4
 Number of states:        3
 Number of CSFs:          3   (3 determinants, 10 intermediate states)

 State symmetry 3

 Number of electrons:     8    Spin symmetry=Triplet   Space symmetry=6
 Number of states:        3
 Number of CSFs:          3   (3 determinants, 10 intermediate states)

 State symmetry 4

 Number of electrons:     8    Spin symmetry=Triplet   Space symmetry=7
 Number of states:        3
 Number of CSFs:          3   (3 determinants, 10 intermediate states)

 Molecular orbitals read from record     4202.2  Type=RHF/CANONICAL (state 1.6)
 *** IN SYMMETRY 1 ORBITAL  1 SYMMETRY CONTAMINATION OF 0.169D-01 HAS BEEN REMOVED
 *** IN SYMMETRY 1 ORBITAL  2 SYMMETRY CONTAMINATION OF 0.247D-01 HAS BEEN REMOVED
 *** IN SYMMETRY 1 ORBITAL  3 SYMMETRY CONTAMINATION OF 0.374D+00 HAS BEEN REMOVED
 *** IN SYMMETRY 1 ORBITAL  4 SYMMETRY CONTAMINATION OF 0.367D+00 HAS BEEN REMOVED

 EXTRA SYMMETRY OF MOS IN SYMMETRY 1:   1 1 3 2 1 3 2 1 3 2   1 3 2 1 5 6 4 3 2 1   3 2 5 6 4 3 2 5 6 4   1
 *** IN SYMMETRY 2 ORBITAL  1 SYMMETRY CONTAMINATION OF 0.610D-02 HAS BEEN REMOVED
 EXTRA SYMMETRY OF MOS IN SYMMETRY 2:   1 1 1 1 3 2 1 3 2 1   3 2 5 6 4 1 3 2 5 6   4 1
 *** IN SYMMETRY 3 ORBITAL  1 SYMMETRY CONTAMINATION OF 0.193D-01 HAS BEEN REMOVED
 EXTRA SYMMETRY OF MOS IN SYMMETRY 3:   1 1 1 1 2 3 1 2 3 1   2 3 6 5 4 1 2 3 6 5   4 1
 *** IN SYMMETRY 4 ORBITAL  1 SYMMETRY CONTAMINATION OF 0.481D-02 HAS BEEN REMOVED
 EXTRA SYMMETRY OF MOS IN SYMMETRY 4:   1 1 1 1 3 2 1 1 3 2   1 3 2
 *** IN SYMMETRY 5 ORBITAL  1 SYMMETRY CONTAMINATION OF 0.704D-02 HAS BEEN REMOVED
 EXTRA SYMMETRY OF MOS IN SYMMETRY 5:   1 1 1 1 3 2 1 3 2 1   3 2 5 4 6 1 3 2 5 4   6 1
 *** IN SYMMETRY 6 ORBITAL  1 SYMMETRY CONTAMINATION OF 0.192D-02 HAS BEEN REMOVED
 EXTRA SYMMETRY OF MOS IN SYMMETRY 6:   1 1 1 1 3 2 1 1 3 2   1 3 2
 *** IN SYMMETRY 7 ORBITAL  1 SYMMETRY CONTAMINATION OF 0.527D-02 HAS BEEN REMOVED
 EXTRA SYMMETRY OF MOS IN SYMMETRY 7:   1 1 1 1 2 3 1 1 2 3   1 2 3
 EXTRA SYMMETRY OF MOS IN SYMMETRY 8:   1 1 1 2 3 1 2 3

 Wavefunction dump at record             5202.2

 Convergence thresholds  0.10E-01 (gradient)  0.10E-05 (energy)  0.10E-02 (step length)

 Weight factors for state symmetry  1:    0.10000
 Weight factors for state symmetry  2:    0.10000   0.10000   0.10000
 Weight factors for state symmetry  3:    0.10000   0.10000   0.10000
 Weight factors for state symmetry  4:    0.10000   0.10000   0.10000

 Number of orbital rotations:      211   (     4 Core/Active    117 Core/Virtual   0 Active/Active     90 Active/Virtual)
 Total number of variables:        239


 ITER. MIC  NCI  NEG     ENERGY(VAR)     ENERGY(PROJ)   ENERGY CHANGE     GRAD(0)  GRAD(ORB)   GRAD(CI)     STEP       TIME

   1   31   16    0    -169.91264441    -169.91516791   -0.00252349    0.09327530 0.00000000 0.00000000  0.37D-01      0.09
   2   25   20    0    -169.91517546    -169.91517569   -0.00000022    0.00085384 0.00000000 0.00000000  0.50D-03      0.18
   3   85   48    0    -169.91517569    -169.91517569    0.00000000    0.00000011 0.00000000 0.00000000  0.77D-07      0.28

 ** WVFN ****  CONVERGENCE REACHED, FINAL GRADIENT:  0.68D-12



 Results for state 1.1
 =====================

 !MCSCF STATE 1.1 Energy             -169.941986941871
 Nuclear energy                         0.00000000
 Kinetic energy                       109.07381091
 One electron energy                 -303.45546281
 Two electron energy                  133.51347587
 Virial ratio                           2.55804574

 !MCSCF STATE 1.1 Dipole moment         0.00000000     0.00000000     0.00000000
 Dipole moment /Debye                   0.00000000     0.00000000     0.00000000



 Results for state 1.4
 =====================

 !MCSCF STATE 1.4 Energy             -169.941986941871
 Nuclear energy                         0.00000000
 Kinetic energy                       109.07381091
 One electron energy                 -303.45546281
 Two electron energy                  133.51347587
 Virial ratio                           2.55804574

 !MCSCF STATE 1.4 Dipole moment         0.00000000     0.00000000     0.00000000
 Dipole moment /Debye                   0.00000000     0.00000000     0.00000000

 Results for state 2.4
 =====================

 !MCSCF STATE 2.4 Energy             -169.941986941871
 Nuclear energy                         0.00000000
 Kinetic energy                       109.07381091
 One electron energy                 -303.45546281
 Two electron energy                  133.51347587
 Virial ratio                           2.55804574

 !MCSCF STATE 2.4 Dipole moment         0.00000000     0.00000000     0.00000000
 Dipole moment /Debye                   0.00000000     0.00000000     0.00000000

 Results for state 3.4
 =====================

 !MCSCF STATE 3.4 Energy             -169.852616097078
 Nuclear energy                         0.00000000
 Kinetic energy                       109.07381091
 One electron energy                 -303.45546281
 Two electron energy                  133.60284671
 Virial ratio                           2.55722638

 !MCSCF STATE 3.4 Dipole moment         0.00000000     0.00000000     0.00000000
 Dipole moment /Debye                   0.00000000     0.00000000     0.00000000



 Results for state 1.6
 =====================

 !MCSCF STATE 1.6 Energy             -169.941986941871
 Nuclear energy                         0.00000000
 Kinetic energy                       109.07381091
 One electron energy                 -303.45546281
 Two electron energy                  133.51347587
 Virial ratio                           2.55804574

 !MCSCF STATE 1.6 Dipole moment         0.00000000     0.00000000     0.00000000
 Dipole moment /Debye                   0.00000000     0.00000000     0.00000000

 Results for state 2.6
 =====================

 !MCSCF STATE 2.6 Energy             -169.941986941871
 Nuclear energy                         0.00000000
 Kinetic energy                       109.07381091
 One electron energy                 -303.45546281
 Two electron energy                  133.51347587
 Virial ratio                           2.55804574

 !MCSCF STATE 2.6 Dipole moment         0.00000000     0.00000000     0.00000000
 Dipole moment /Debye                   0.00000000     0.00000000     0.00000000

 Results for state 3.6
 =====================

 !MCSCF STATE 3.6 Energy             -169.852616097078
 Nuclear energy                         0.00000000
 Kinetic energy                       109.07381091
 One electron energy                 -303.45546281
 Two electron energy                  133.60284671
 Virial ratio                           2.55722638

 !MCSCF STATE 3.6 Dipole moment         0.00000000     0.00000000     0.00000000
 Dipole moment /Debye                   0.00000000     0.00000000     0.00000000



 Results for state 1.7
 =====================

 !MCSCF STATE 1.7 Energy             -169.941986941871
 Nuclear energy                         0.00000000
 Kinetic energy                       109.07381091
 One electron energy                 -303.45546281
 Two electron energy                  133.51347587
 Virial ratio                           2.55804574

 !MCSCF STATE 1.7 Dipole moment         0.00000000     0.00000000     0.00000000
 Dipole moment /Debye                   0.00000000     0.00000000     0.00000000

 Results for state 2.7
 =====================

 !MCSCF STATE 2.7 Energy             -169.941986941871
 Nuclear energy                         0.00000000
 Kinetic energy                       109.07381091
 One electron energy                 -303.45546281
 Two electron energy                  133.51347587
 Virial ratio                           2.55804574

 !MCSCF STATE 2.7 Dipole moment         0.00000000     0.00000000     0.00000000
 Dipole moment /Debye                   0.00000000     0.00000000     0.00000000

 Results for state 3.7
 =====================

 !MCSCF STATE 3.7 Energy             -169.852616097078
 Nuclear energy                         0.00000000
 Kinetic energy                       109.07381091
 One electron energy                 -303.45546281
 Two electron energy                  133.60284671
 Virial ratio                           2.55722638

 !MCSCF STATE 3.7 Dipole moment         0.00000000     0.00000000     0.00000000
 Dipole moment /Debye                   0.00000000     0.00000000     0.00000000

 State-averaged charge density matrix saved on record  5202.2 (density set 1)

 !MCSCF expec        <1.1|EKIN|1.1>   109.073810913385
 !MCSCF expec        <1.4|EKIN|1.4>   109.073810913385
 !MCSCF expec        <2.4|EKIN|2.4>   109.073810913387
 !MCSCF expec        <3.4|EKIN|3.4>   109.073810913387
 !MCSCF expec        <1.6|EKIN|1.6>   109.073810913386
 !MCSCF expec        <2.6|EKIN|2.6>   109.073810913387
 !MCSCF expec        <3.6|EKIN|3.6>   109.073810913386
 !MCSCF expec        <1.7|EKIN|1.7>   109.073810913386
 !MCSCF expec        <2.7|EKIN|2.7>   109.073810913387
 !MCSCF expec        <3.7|EKIN|3.7>   109.073810913386

 !MCSCF expec         <1.1|POT|1.1>   -23.757194726504
 !MCSCF expec         <1.4|POT|1.4>   -23.757194726504
 !MCSCF expec         <2.4|POT|2.4>   -23.757194726504
 !MCSCF expec         <3.4|POT|3.4>   -23.757194726504
 !MCSCF expec         <1.6|POT|1.6>   -23.757194726504
 !MCSCF expec         <2.6|POT|2.6>   -23.757194726504
 !MCSCF expec         <3.6|POT|3.6>   -23.757194726504
 !MCSCF expec         <1.7|POT|1.7>   -23.757194726504
 !MCSCF expec         <2.7|POT|2.7>   -23.757194726504
 !MCSCF expec         <3.7|POT|3.7>   -23.757194726504


 NATURAL ORBITALS (state averaged)
 =================================

   Orb     Occ        Energy       Coefficients

                                   1 1s      1 1s      1 1s      1 1s      1 1s      1 1s      1 1s      1 1s      1 3d0     1 3d2+ 
                                   1 3d0     1 3d2+    1 3d0     1 3d2+    1 3d0     1 3d2+    1 3d0     1 3d2+    1 3d0     1 3d2+ 
                                   1 3d0     1 3d2+    1 5g0     1 5g4+    1 5g2+    1 5g0     1 5g4+    1 5g2+    1 5g0     1 5g4+ 
                                   1 5g2+ 

   1.1  2.00000    -5.062422     1.000058 -0.000075  0.000030 -0.000025 -0.000016  0.000083 -0.000356  0.000298  0.000000  0.000000
                                 0.000000  0.000000  0.000000  0.000000  0.000000  0.000000  0.000000  0.000000  0.000000  0.000000
                                 0.000000  0.000000  0.000000  0.000000  0.000000  0.000000  0.000000  0.000000  0.000000  0.000000
                                 0.000000

   2.1  2.00000    -0.280541    -0.000025  1.000100 -0.000051  0.000033  0.000018 -0.000117  0.000214 -0.000179  0.000000  0.000000
                                 0.000000  0.000000  0.000000  0.000000  0.000000  0.000000  0.000000  0.000000  0.000000  0.000000
                                 0.000000  0.000000  0.000000  0.000000  0.000000  0.000000  0.000000  0.000000  0.000000  0.000000
                                 0.000000

   3.1  1.60000    -0.496364     0.000000  0.000000  0.000000  0.000000  0.000000  0.000000  0.000000  0.000000  0.999865  0.000000
                                -0.000013  0.000000 -0.000136  0.000000 -0.000037  0.000000  0.000134  0.000000 -0.000029  0.000000
                                 0.000170  0.000000  0.000000  0.000000  0.000000  0.000000  0.000000  0.000000  0.000000  0.000000
                                 0.000000

   4.1  1.60000    -0.496364     0.000000  0.000000  0.000000  0.000000  0.000000  0.000000  0.000000  0.000000  0.000000  0.999865
                                 0.000000 -0.000013  0.000000 -0.000136  0.000000 -0.000037  0.000000  0.000134  0.000000 -0.000029
                                 0.000000  0.000170  0.000000  0.000000  0.000000  0.000000  0.000000  0.000000  0.000000  0.000000
                                 0.000000

                                   1 2px     1 2px     1 2px     1 2px     1 2px     1 2px     1 2px     1 2px     1 4f1+    1 4f3+ 
                                   1 4f1+    1 4f3+    1 4f1+    1 4f3+    1 4f1+    1 4f3+    1 6h1+    1 6h3+    1 6h5+    1 6h1+ 
                                   1 6h3+    1 6h5+ 

   1.2  2.00000    -3.356827     1.000009  0.000002 -0.000002  0.000002  0.000000  0.000001 -0.000010  0.000002  0.000000  0.000000
                                 0.000000  0.000000  0.000000  0.000000  0.000000  0.000000  0.000000  0.000000  0.000000  0.000000
                                 0.000000  0.000000

                                   1 2py     1 2py     1 2py     1 2py     1 2py     1 2py     1 2py     1 2py     1 4f1-    1 4f3- 
                                   1 4f1-    1 4f3-    1 4f1-    1 4f3-    1 4f1-    1 4f3-    1 6h1-    1 6h3-    1 6h5-    1 6h1- 
                                   1 6h3-    1 6h5- 

   1.3  2.00000    -3.356827     1.000009  0.000002 -0.000002  0.000002  0.000000  0.000001 -0.000010  0.000002  0.000000  0.000000
                                 0.000000  0.000000  0.000000  0.000000  0.000000  0.000000  0.000000  0.000000  0.000000  0.000000
                                 0.000000  0.000000

                                   1 3d2-    1 3d2-    1 3d2-    1 3d2-    1 3d2-    1 3d2-    1 3d2-    1 5g2-    1 5g4-    1 5g2- 
                                   1 5g4-    1 5g2-    1 5g4- 

   1.4  1.60000    -0.496364     0.999865 -0.000013 -0.000136 -0.000037  0.000134 -0.000029  0.000170  0.000000  0.000000  0.000000
                                 0.000000  0.000000  0.000000

                                   1 2pz     1 2pz     1 2pz     1 2pz     1 2pz     1 2pz     1 2pz     1 2pz     1 4f0     1 4f2+ 
                                   1 4f0     1 4f2+    1 4f0     1 4f2+    1 4f0     1 4f2+    1 6h2+    1 6h4+    1 6h0     1 6h2+ 
                                   1 6h4+    1 6h0  

   1.5  2.00000    -3.356827     1.000009  0.000002 -0.000002  0.000002  0.000000  0.000001 -0.000010  0.000002  0.000000  0.000000
                                 0.000000  0.000000  0.000000  0.000000  0.000000  0.000000  0.000000  0.000000  0.000000  0.000000
                                 0.000000  0.000000

                                   1 3d1+    1 3d1+    1 3d1+    1 3d1+    1 3d1+    1 3d1+    1 3d1+    1 5g1+    1 5g3+    1 5g1+ 
                                   1 5g3+    1 5g1+    1 5g3+ 

   1.6  1.60000    -0.496364     0.999865 -0.000013 -0.000136 -0.000037  0.000134 -0.000029  0.000170  0.000000  0.000000  0.000000
                                 0.000000  0.000000  0.000000

                                   1 3d1-    1 3d1-    1 3d1-    1 3d1-    1 3d1-    1 3d1-    1 3d1-    1 5g1-    1 5g3-    1 5g1- 
                                   1 5g3-    1 5g1-    1 5g3- 

   1.7  1.60000    -0.496364     0.999865 -0.000013 -0.000136 -0.000037  0.000134 -0.000029  0.000170  0.000000  0.000000  0.000000
                                 0.000000  0.000000  0.000000
 

 EXTRA SYMMETRY OF MOS IN SYMMETRY 1:   1 1 2 3 1 3 2 1 2 3   1 2 3 1 6 4 5 2 3 1   2 3 4 6 5 2 3 4 5 6   1
 EXTRA SYMMETRY OF MOS IN SYMMETRY 2:   1 1 1 1 3 2 1 3 2 1   3 2 5 4 6 1 3 2 5 6   4 1
 EXTRA SYMMETRY OF MOS IN SYMMETRY 3:   1 1 1 1 3 2 1 3 2 1   3 2 5 4 6 1 3 2 5 6   4 1
 EXTRA SYMMETRY OF MOS IN SYMMETRY 4:   1 1 1 1 2 3 1 1 2 3   1 3 2
 EXTRA SYMMETRY OF MOS IN SYMMETRY 5:   1 1 1 1 2 3 1 2 3 1   2 3 6 4 5 1 2 3 6 4   5 1
 EXTRA SYMMETRY OF MOS IN SYMMETRY 6:   1 1 1 1 2 3 1 1 2 3   1 2 3

 Natural orbital dump (state averaged) at molpro section  5202.2    (Orbital set 2)


 CI vector for state symmetry 1
 ==============================

 aa 2 2 2          1.0000000

 TOTAL ENERGIES                      -169.94198694

 CI vector for state symmetry 2
 ==============================

 a2 a 2 2          1.0000000   0.0000000   0.0000000
 2a a 2 2          0.0000000  -0.4472136   0.8944272
 22 2 a a          0.0000000   0.8944272   0.4472136

 TOTAL ENERGIES                      -169.94198694  -169.94198694  -169.85261610

 CI vector for state symmetry 3
 ==============================

 22 a 2 a          0.2301197   0.8643176  -0.4472136
 2a 2 a 2          0.7793420  -0.4388918  -0.4472136
 a2 2 a 2          0.5828130   0.2456197   0.7745967

 TOTAL ENERGIES                      -169.94198694  -169.94198694  -169.85261610

 CI vector for state symmetry 4
 ==============================

 22 a a 2         -0.2914432   0.8456127  -0.4472136
 a2 2 2 a         -0.5989105   0.2032393   0.7745967
 2a 2 2 a          0.7459002   0.4935918   0.4472136

 TOTAL ENERGIES                      -169.94198694  -169.94198694  -169.85261610



 **********************************************************************************************************************************
 DATASETS  * FILE   NREC   LENGTH (MB)   RECORD NAMES
              1      21       54.42       500      610      700      900      950      970     1000      129      960     1100   
                                          VAR    BASINP    GEOM    SYMINP    ZMAT    AOBASIS   BASIS     P2S    ABASIS      S 
                                         1400     1410     1420     1200     1210     1080     1600     1650     1300     1700   
                                         EKIN       V       ECP      H0       H01     AOSYM     SMH    MOLCAS    ERIS     OPER   
                                         1380   
                                         JKOP   

              2       5        5.48       700     1000      520     4202     5202   
                                         GEOM     BASIS   MCVARS     RHF     MCSCF   

 PROGRAMS   *        TOTAL     MULTI       POP       RHF       INT
 CPU TIMES  *        34.21      0.40      0.00      0.42     33.27
 REAL TIME  *        48.96 SEC
 DISK USED  *       137.98 MB      
 **********************************************************************************************************************************


 PROGRAM * RHF-SCF (OPEN SHELL)       Authors: W. Meyer, H.-J. Werner


 NUMBER OF ELECTRONS:      10+    8-    SPACE SYMMETRY=1    SPIN SYMMETRY: Triplet 
 CONVERGENCE THRESHOLDS:    1.00E-05 (Density)    1.00E-07 (Energy)
 MAX. NUMBER OF ITERATIONS:        0
 INTERPOLATION TYPE:            DIIS
 INTERPOLATION STEPS:              2 (START)      1 (STEP)
 LEVEL SHIFTS:                 -0.60 (CLOSED) -0.30 (OPEN) 


 Singly occupied orbitals:      3.1       4.1
 
 Extra symmetries of mos in symmetry 1:   1   1   3   2
 Molecular orbitals read from record     5202.2  Type=MCSCF/NATURAL (state averaged)

 Molecular orbital dump at record        2101.2

 ITERATION    DDIFF          GRAD             ENERGY        2-EL.EN.            DIPOLE MOMENTS         DIIS   ORB.
    1      0.000D+00      0.000D+00      -169.94198694    267.026952    0.00000    0.00000    0.00000    0    start

 Final alpha occupancy:   4   1   1   1   1   1   1   0
 Final beta  occupancy:   2   1   1   1   1   1   1   0

 !RHF STATE 1.1 Energy               -169.941986941872
 Nuclear energy                         0.00000000
 One-electron energy                 -303.45546281
 Two-electron energy                  133.51347587
 Virial quotient                       -1.55804574
 !RHF STATE 1.1 Dipole moment           0.00000000     0.00000000     0.00000000
 Dipole moment /Debye                   0.00000000     0.00000000     0.00000000
 

 !RHF expec          <1.1|EKIN|1.1>   109.073810913385
 
 !RHF expec           <1.1|POT|1.1>   -23.757194726504

 ELECTRON ORBITALS
 =================


   Orb  Occ    Energy  Couls-En    Coefficients

                                   1 1s      1 1s      1 1s      1 1s      1 1s      1 1s      1 1s      1 1s      1 3d0     1 3d2+ 
                                   1 3d0     1 3d2+    1 3d0     1 3d2+    1 3d0     1 3d2+    1 3d0     1 3d2+    1 3d0     1 3d2+ 
                                   1 3d0     1 3d2+    1 5g0     1 5g4+    1 5g2+    1 5g0     1 5g4+    1 5g2+    1 5g0     1 5g4+ 
                                   1 5g2+ 

   1.1   2    -5.0624  -26.5685  1.000058 -0.000075  0.000030 -0.000025 -0.000016  0.000083 -0.000356  0.000298  0.000000  0.000000
                                 0.000000  0.000000  0.000000  0.000000  0.000000  0.000000  0.000000  0.000000  0.000000  0.000000
                                 0.000000  0.000000  0.000000  0.000000  0.000000  0.000000  0.000000  0.000000  0.000000  0.000000
                                 0.000000

   2.1   2    -0.2805   -7.0788 -0.000025  1.000100 -0.000051  0.000033  0.000018 -0.000117  0.000214 -0.000179  0.000000  0.000000
                                 0.000000  0.000000  0.000000  0.000000  0.000000  0.000000  0.000000  0.000000  0.000000  0.000000
                                 0.000000  0.000000  0.000000  0.000000  0.000000  0.000000  0.000000  0.000000  0.000000  0.000000
                                 0.000000

   3.1   +    -0.4964  -16.6027  0.000000  0.000000  0.000000  0.000000  0.000000  0.000000  0.000000  0.000000  0.000000  0.999865
                                 0.000000 -0.000013  0.000000 -0.000136  0.000000 -0.000037  0.000000  0.000134  0.000000 -0.000029
                                 0.000000  0.000170  0.000000  0.000000  0.000000  0.000000  0.000000  0.000000  0.000000  0.000000
                                 0.000000

   4.1   +    -0.4964  -16.6027  0.000000  0.000000  0.000000  0.000000  0.000000  0.000000  0.000000  0.000000  0.999865  0.000000
                                -0.000013  0.000000 -0.000136  0.000000 -0.000037  0.000000  0.000134  0.000000 -0.000029  0.000000
                                 0.000170  0.000000  0.000000  0.000000  0.000000  0.000000  0.000000  0.000000  0.000000  0.000000
                                 0.000000

                                   1 2px     1 2px     1 2px     1 2px     1 2px     1 2px     1 2px     1 2px     1 4f1+    1 4f3+ 
                                   1 4f1+    1 4f3+    1 4f1+    1 4f3+    1 4f1+    1 4f3+    1 6h1+    1 6h3+    1 6h5+    1 6h1+ 
                                   1 6h3+    1 6h5+ 

   1.2   2    -3.3568  -23.0228  1.000009  0.000002 -0.000002  0.000002  0.000000  0.000001 -0.000010  0.000002  0.000000  0.000000
                                 0.000000  0.000000  0.000000  0.000000  0.000000  0.000000  0.000000  0.000000  0.000000  0.000000
                                 0.000000  0.000000

                                   1 2py     1 2py     1 2py     1 2py     1 2py     1 2py     1 2py     1 2py     1 4f1-    1 4f3- 
                                   1 4f1-    1 4f3-    1 4f1-    1 4f3-    1 4f1-    1 4f3-    1 6h1-    1 6h3-    1 6h5-    1 6h1- 
                                   1 6h3-    1 6h5- 

   1.3   2    -3.3568  -23.0228  1.000009  0.000002 -0.000002  0.000002  0.000000  0.000001 -0.000010  0.000002  0.000000  0.000000
                                 0.000000  0.000000  0.000000  0.000000  0.000000  0.000000  0.000000  0.000000  0.000000  0.000000
                                 0.000000  0.000000

                                   1 3d2-    1 3d2-    1 3d2-    1 3d2-    1 3d2-    1 3d2-    1 3d2-    1 5g2-    1 5g4-    1 5g2- 
                                   1 5g4-    1 5g2-    1 5g4- 

   1.4   2    -0.4964  -16.6027  0.999865 -0.000013 -0.000136 -0.000037  0.000134 -0.000029  0.000170  0.000000  0.000000  0.000000
                                 0.000000  0.000000  0.000000

                                   1 2pz     1 2pz     1 2pz     1 2pz     1 2pz     1 2pz     1 2pz     1 2pz     1 4f0     1 4f2+ 
                                   1 4f0     1 4f2+    1 4f0     1 4f2+    1 4f0     1 4f2+    1 6h2+    1 6h4+    1 6h0     1 6h2+ 
                                   1 6h4+    1 6h0  

   1.5   2    -3.3568  -23.0228  1.000009  0.000002 -0.000002  0.000002  0.000000  0.000001 -0.000010  0.000002  0.000000  0.000000
                                 0.000000  0.000000  0.000000  0.000000  0.000000  0.000000  0.000000  0.000000  0.000000  0.000000
                                 0.000000  0.000000

                                   1 3d1+    1 3d1+    1 3d1+    1 3d1+    1 3d1+    1 3d1+    1 3d1+    1 5g1+    1 5g3+    1 5g1+ 
                                   1 5g3+    1 5g1+    1 5g3+ 

   1.6   2    -0.4964  -16.6027  0.999865 -0.000013 -0.000136 -0.000037  0.000134 -0.000029  0.000170  0.000000  0.000000  0.000000
                                 0.000000  0.000000  0.000000

                                   1 3d1-    1 3d1-    1 3d1-    1 3d1-    1 3d1-    1 3d1-    1 3d1-    1 5g1-    1 5g3-    1 5g1- 
                                   1 5g3-    1 5g1-    1 5g3- 

   1.7   2    -0.4964  -16.6027  0.999865 -0.000013 -0.000136 -0.000037  0.000134 -0.000029  0.000170  0.000000  0.000000  0.000000
                                 0.000000  0.000000  0.000000

 HOMO      4.1    -0.496364 =     -13.5068eV
 LUMO      2.2     0.045019 =       1.2250eV
 LUMO-HOMO         0.541383 =      14.7318eV


 **********************************************************************************************************************************
 DATASETS  * FILE   NREC   LENGTH (MB)   RECORD NAMES
              1      21       54.42       500      610      700      900      950      970     1000      129      960     1100   
                                          VAR    BASINP    GEOM    SYMINP    ZMAT    AOBASIS   BASIS     P2S    ABASIS      S 
                                         1400     1410     1420     1200     1210     1080     1600     1650     1300     1700   
                                         EKIN       V       ECP      H0       H01     AOSYM     SMH    MOLCAS    ERIS     OPER   
                                         1380   
                                         JKOP   

              2       6        8.21       700     1000      520     4202     5202     2101   
                                         GEOM     BASIS   MCVARS     RHF     MCSCF     RHF  

 PROGRAMS   *        TOTAL       RHF     MULTI       POP       RHF       INT
 CPU TIMES  *        34.27      0.05      0.40      0.00      0.42     33.27
 REAL TIME  *        49.17 SEC
 DISK USED  *       137.98 MB      
 **********************************************************************************************************************************
 SETTING SCF(I)         =      -169.94198694  AU                              
 SETTING _CC_NORM_MAX   =         2.00000000                                  


 PROGRAM * CCSD (Restricted open-shell coupled cluster)     Authors: C. Hampel, H.-J. Werner, 1991, M. Deegan, P.J. Knowles, 1992


 Convergence thresholds:  THRVAR = 1.00D-08  THRDEN = 1.00D-06

 CCSD(T)     terms to be evaluated (factor= 1.000)


 Number of closed-shell orbitals:   8 (   2   1   1   1   1   1   1   0 )
 Number of active  orbitals:        2 (   2   0   0   0   0   0   0   0 )
 Number of external orbitals:     134 (  27  21  21  12  21  12  12   8 )

 Memory could be reduced to 6.64 Mwords without degradation in triples

 Number of N-1 electron functions:              18
 Number of N-2 electron functions:             153
 Number of singly external CSFs:               372
 Number of doubly external CSFs:            271758
 Total number of CSFs:                      272130

 Molecular orbitals read from record     2101.2  Type=RHF/CANONICAL (state 1.1)

 Integral transformation finished. Total CPU:   0.16 sec, npass=  1  Memory used:   1.37 MW

 Starting RMP2 calculation

 Wavefunction is spin-projected

 ITER.      SQ.NORM     CORR.ENERGY   TOTAL ENERGY   ENERGY CHANGE        DEN1      VAR(S)    VAR(P)  DIIS     TIME
   1      1.10848425    -0.85963794  -170.80162488    -0.85963794    -0.00127293  0.39D-05  0.76D-03  1  1     0.19
   2      1.11040047    -0.86098357  -170.80297051    -0.00134563    -0.00001605  0.11D-06  0.16D-04  2  2     0.21
   3      1.11070071    -0.86110333  -170.80309027    -0.00011976    -0.00000007  0.13D-07  0.58D-07  3  3     0.22
   4      1.11071164    -0.86110567  -170.80309261    -0.00000234    -0.00000000  0.93D-09  0.69D-09  4  4     0.24
   5      1.11071184    -0.86110565  -170.80309259     0.00000002    -0.00000000  0.77D-11  0.18D-10  5  5     0.26

 Norm of t1 vector:      0.03735280      S-energy:    -0.00869706      T1 diagnostic:  0.00412683
 Norm of t2 vector:      0.33063062      P-energy:    -0.85240859
                                         Alpha-Beta:  -0.60379255
                                         Alpha-Alpha: -0.15814526
                                         Beta-Beta:   -0.09047077

 Spin contamination <S**2-Sz**2-Sz>     0.00000000
  Reference energy                   -169.941986941871
  RHF-RMP2 correlation energy          -0.861105645583
 !RHF-RMP2 energy                    -170.803092587455
 (NB above energy spin projected)

 Starting RCCSD calculation

 ITER.      SQ.NORM     CORR.ENERGY   TOTAL ENERGY   ENERGY CHANGE        DEN1      VAR(S)    VAR(P)  DIIS     TIME
   1      1.10210418    -0.80244464  -170.74443159    -0.80244464    -0.02443171  0.46D-02  0.42D-02  0  0     0.74
   2      1.11800759    -0.82415986  -170.76614680    -0.02171522    -0.00261273  0.51D-03  0.89D-03  1  1     1.18
   3      1.12321909    -0.82293705  -170.76492399     0.00122281    -0.00051510  0.27D-03  0.19D-03  2  2     1.62
   4      1.13023134    -0.82517670  -170.76716364    -0.00223965    -0.00005869  0.30D-04  0.22D-04  3  3     2.07
   5      1.13310705    -0.82594013  -170.76792707    -0.00076343    -0.00000548  0.34D-05  0.16D-05  4  4     2.51
   6      1.13385533    -0.82603080  -170.76801774    -0.00009067    -0.00000034  0.12D-06  0.14D-06  5  5     2.97
   7      1.13393589    -0.82604080  -170.76802774    -0.00001000    -0.00000006  0.29D-07  0.25D-07  6  6     3.42
   8      1.13395874    -0.82604385  -170.76803079    -0.00000305    -0.00000001  0.11D-08  0.41D-08  6  1     3.87
   9      1.13395699    -0.82604301  -170.76802996     0.00000083    -0.00000000  0.46D-10  0.32D-09  6  2     4.31

 Norm of t1 vector:      0.11929814      S-energy:    -0.00890328      T1 diagnostic:  0.01880038
                                                                       D1 diagnostic:  0.06286655
 Norm of t2 vector:      0.34601293      P-energy:    -0.81713973
                                         Alpha-Beta:  -0.60005885
                                         Alpha-Alpha: -0.13646853
                                         Beta-Beta:   -0.08061235

 Singles amplitudes (print threshold =  0.500E-01):

         I         SYM. A    A   T(IA) [Alpha-Alpha]

         2         1         3      0.05530163

 Doubles amplitudes (print threshold =  0.500E-01):

         I         J         SYM. A    SYM. B    A         B      T(IJ, AB) [Alpha-Beta]

         2         2         2         2         1         1     -0.06558742
         2         2         2         2         1         2      0.05297040
         2         2         2         2         2         1      0.05297040
         2         2         3         3         1         1     -0.06558742
         2         2         3         3         1         2      0.05297040
         2         2         3         3         2         1      0.05297040
         2         2         5         5         1         1     -0.06558742
         2         2         5         5         1         2      0.05297040
         2         2         5         5         2         1      0.05297040

 Spin contamination <S**2-Sz**2-Sz>     0.00000000

 Memory could be reduced to 7.05 Mwords without degradation in triples
 

  Correlated core orbitals:             1.1       1.2       1.3       1.5
  Orbital energies:                    -5.1652   -3.4817   -3.4817   -3.4817
 
  RCCSD core-core energy               -0.140338185957
  RCCSD core-valence energy            -0.342262532269
  RCCSD valence correlation energy     -0.343442294915
 

 RESULTS
 =======

  Reference energy                   -169.941986941871
  RCCSD singles energy                 -0.008903284374
  RCCSD pair energy                    -0.817139728766
  RCCSD correlation energy             -0.826043013140
  Triples (T) contribution             -0.023747836050
  Total correlation energy             -0.849790849190
 
  RHF-RCCSD energy                   -170.768029955012
  RHF-RCCSD[T] energy                -170.793189576289
  RHF-RCCSD-T energy                 -170.791409309118
 !RHF-RCCSD(T) energy                -170.791777791061

 Program statistics:

 Available memory in ccsd:               511999000
 Min. memory needed in ccsd:                827349
 Max. memory used in ccsd:                 1156347
 Max. memory used in cckext:                941973 ( 9 integral passes)
 Max. memory used in cckint:               1372225 ( 1 integral passes)



 **********************************************************************************************************************************
 DATASETS  * FILE   NREC   LENGTH (MB)   RECORD NAMES
              1      21       54.42       500      610      700      900      950      970     1000      129      960     1100   
                                          VAR    BASINP    GEOM    SYMINP    ZMAT    AOBASIS   BASIS     P2S    ABASIS      S 
                                         1400     1410     1420     1200     1210     1080     1600     1650     1300     1700   
                                         EKIN       V       ECP      H0       H01     AOSYM     SMH    MOLCAS    ERIS     OPER   
                                         1380   
                                         JKOP   

              2       6        8.21       700     1000      520     4202     5202     2101   
                                         GEOM     BASIS   MCVARS     RHF     MCSCF     RHF  

 PROGRAMS   *        TOTAL  RCCSD(T)       RHF     MULTI       POP       RHF       INT
 CPU TIMES  *        48.16     13.89      0.05      0.40      0.00      0.42     33.27
 REAL TIME  *        66.29 SEC
 DISK USED  *       189.46 MB      
 **********************************************************************************************************************************
 SETTING POSTHF(I)      =      -170.79177779  AU                              
                                                                                                                                                                                                                                                                

         SCF            POSTHF        EKIN          POT
    -169.9419869   -170.7917778   109.0738109   -23.75719473
                                                  

 RCCSD(T)/USERDEF energy=   -170.791777791061

        RCCSD(T)        RHF-SCF         MULTI           RHF-SCF 
   -170.79177779   -169.94198694   -169.85261610   -169.92896595
 **********************************************************************************************************************************
 Molpro calculation terminated
 Variable memory released
