TACC:  Starting up job 2697179 
TACC:  Starting parallel tasks... 
  Input file(s): Si.log.qmc.in-wfj.xml 

=====================================================
                    QMCPACK 3.5.0 

       (c) Copyright 2003-  QMCPACK developers

                    Please cite:
 J. Kim et al. J. Phys. Cond. Mat. 30 195901 (2018)
      https://doi.org/10.1088/1361-648X/aab9c3

  Git branch: develop
  Last git commit: ca320f40410f5ef17c38db08d5c54848ef64bfe1
  Last git commit date: Tue Dec 18 15:37:17 2018 +0800
  Last git commit subject: Merge pull request #764 from Paul-St-Young/dat-h5
=====================================================
  Global options 

  MPI Nodes             = 1024
  MPI Nodes per group   = 1024
  MPI Group ID          = 0
  OMP 1st level threads = 1
  OMP nested threading disabled or only 1 thread on the 2nd level

  Precision used in this calculation, see definitions in the manual:
  Base precision      = double
  Full precision      = double

  Structure-of-arrays (SoA) optimization enabled

  Input XML = Si.log.qmc.in-wfj.xml

  Project = Si.log
  date    = 2018-12-27 16:54:25 CST
  host    = c415-074.stampede2.tacc.utexas.edu

 Random Number
 -------------
  Offset for the random number seeds based on time: 33

  Range of prime numbers to use as seeds over processors and threads = 149-8467


 Particle Set 
 ------------
  Name: ion0
  All the species have the same mass 1
  Particle set size: 1

 Particle Set 
 ------------
  Name: e
  All the species have the same mass 1
  Particle set size: 4

 Wavefunction setup: 
 ------------------- 
  Name: psi0
  LCAO: SoaAtomicBasisSet<MultiQuintic,0>

  Distance table for similar particles (A-A):
    source/target: e
    Using structure-of-arrays (SoA) data layout
    Distance computations use open boundary conditions in 3D.


  Distance table for dissimilar particles (A-B):
    source: ion0  target: e
    Using structure-of-arrays (SoA) data layout
    Distance computations use open boundary conditions in 3D.

Reading BasisSet from HDF5 file:Si.log.orbs.h5
<input node="atomicBasisSet" name="Gaussian" expandYlm="gaussian" angular="cartesian" elementType="Si" normalized="no" type="Numerical" expM="0" />
  AO BasisSet for Si
   Angular momentum expanded in cartesian functions x^lx y^ly z^lz according to Gamess
   Grid is created by the input paremters in h5
    Using log grid ri = 1e-06 rf = 100 npts = 1001
   R(n,l,m,s) 0 0 0 0
   R(n,l,m,s) 1 0 0 0
   R(n,l,m,s) 2 0 0 0
   R(n,l,m,s) 3 0 0 0
   R(n,l,m,s) 4 1 0 0
   R(n,l,m,s) 5 1 0 0
   R(n,l,m,s) 6 1 0 0
   R(n,l,m,s) 7 1 0 0
   R(n,l,m,s) 8 2 0 0
   R(n,l,m,s) 9 2 0 0
   R(n,l,m,s) 10 2 0 0
   R(n,l,m,s) 11 3 0 0
   R(n,l,m,s) 12 3 0 0
   R(n,l,m,s) 13 4 0 0
Expanding Ylm (angular function) according to Gamess using cartesian gaussians
Adding 1 cartesian gaussian orbitals for l= 0
Adding 1 cartesian gaussian orbitals for l= 0
Adding 1 cartesian gaussian orbitals for l= 0
Adding 1 cartesian gaussian orbitals for l= 0
Adding 3 cartesian gaussian orbitals for l= 1
Adding 3 cartesian gaussian orbitals for l= 1
Adding 3 cartesian gaussian orbitals for l= 1
Adding 3 cartesian gaussian orbitals for l= 1
Adding 6 cartesian gaussian orbitals for l= 2
Adding 6 cartesian gaussian orbitals for l= 2
Adding 6 cartesian gaussian orbitals for l= 2
Adding 10 cartesian gaussian orbitals for l= 3
Adding 10 cartesian gaussian orbitals for l= 3
Adding 15 cartesian gaussian orbitals for l= 4
   Maximum Angular Momentum  = 4
   Number of Radial functors = 14
   Basis size                = 69

  Created SPOSet builder named 'LCAOBSet' of type molecularorbital
Reuse SPOSetBuilder "LCAOBSet" type MolecularOrbital
  Building SPOSet '' with '' basis set.
Reuse SPOSetBuilder "LCAOBSet" type MolecularOrbital
  Building SPOSet '' with '' basis set.
  Creating a determinant updet group=0 sposet=updet
  Reusing a SPO set updet
Using DiracDeterminant 
Using rank-1 Sherman-Morrison Fahy update

  Creating a determinant downdet group=1 sposet=downdet
  Reusing a SPO set downdet
Using DiracDeterminant 
Using rank-1 Sherman-Morrison Fahy update

  FermionWF = SlaterDet
  RadialJastrowBuilder adds a functor with cusp = -0.25
 size = 10 parameters 
 cusp = -0.25
 rcut = 9.5
Parameter     Name      Value
uu_0 0.733374 1 1  ON 0
uu_1 0.571488 1 1  ON 1
uu_2 0.398513 1 1  ON 2
uu_3 0.269457 1 1  ON 3
uu_4 0.164577 1 1  ON 4
uu_5 0.0802601 1 1  ON 5
uu_6 0.0147814 1 1  ON 6
uu_7 -0.0325759 1 1  ON 7
uu_8 -0.057123 1 1  ON 8
uu_9 -0.0656853 1 1  ON 9
  RadialJastrowBuilder adds a functor with cusp = -0.5
 size = 10 parameters 
 cusp = -0.5
 rcut = 9.5
Parameter     Name      Value
ud_0 1.13467 1 1  ON 0
ud_1 0.769838 1 1  ON 1
ud_2 0.49103 1 1  ON 2
ud_3 0.2959 1 1  ON 3
ud_4 0.153851 1 1  ON 4
ud_5 0.0464312 1 1  ON 5
ud_6 -0.0332667 1 1  ON 6
ud_7 -0.0906611 1 1  ON 7
ud_8 -0.117429 1 1  ON 8
ud_9 -0.126895 1 1  ON 9
 size = 10 parameters 
 cusp = 0
 rcut = 9.5
Parameter     Name      Value
eSi_0 -0.798848 1 1  ON 0
eSi_1 -0.709636 1 1  ON 1
eSi_2 -0.514463 1 1  ON 2
eSi_3 -0.267537 1 1  ON 3
eSi_4 -0.0250243 1 1  ON 4
eSi_5 0.182223 1 1  ON 5
eSi_6 0.339237 1 1  ON 6
eSi_7 0.437758 1 1  ON 7
eSi_8 0.440463 1 1  ON 8
eSi_9 0.379645 1 1  ON 9
Expected 26 parameters, but found 0 in PolynomialFunctor3D.
Parameter     Name      Value
uuSi_0 0 1 1  ON 0
uuSi_1 0 1 1  ON 1
uuSi_2 0 1 1  ON 2
uuSi_3 0 1 1  ON 3
uuSi_4 0 1 1  ON 4
uuSi_5 0 1 1  ON 5
uuSi_6 0 1 1  ON 6
uuSi_7 0 1 1  ON 7
uuSi_8 0 1 1  ON 8
uuSi_9 0 1 1  ON 9
uuSi_10 0 1 1  ON 10
uuSi_11 0 1 1  ON 11
uuSi_12 0 1 1  ON 12
uuSi_13 0 1 1  ON 13
uuSi_14 0 1 1  ON 14
uuSi_15 0 1 1  ON 15
uuSi_16 0 1 1  ON 16
uuSi_17 0 1 1  ON 17
uuSi_18 0 1 1  ON 18
uuSi_19 0 1 1  ON 19
uuSi_20 0 1 1  ON 20
uuSi_21 0 1 1  ON 21
uuSi_22 0 1 1  ON 22
uuSi_23 0 1 1  ON 23
uuSi_24 0 1 1  ON 24
uuSi_25 0 1 1  ON 25
Expected 26 parameters, but found 0 in PolynomialFunctor3D.
Parameter     Name      Value
udSi_0 0 1 1  ON 0
udSi_1 0 1 1  ON 1
udSi_2 0 1 1  ON 2
udSi_3 0 1 1  ON 3
udSi_4 0 1 1  ON 4
udSi_5 0 1 1  ON 5
udSi_6 0 1 1  ON 6
udSi_7 0 1 1  ON 7
udSi_8 0 1 1  ON 8
udSi_9 0 1 1  ON 9
udSi_10 0 1 1  ON 10
udSi_11 0 1 1  ON 11
udSi_12 0 1 1  ON 12
udSi_13 0 1 1  ON 13
udSi_14 0 1 1  ON 14
udSi_15 0 1 1  ON 15
udSi_16 0 1 1  ON 16
udSi_17 0 1 1  ON 17
udSi_18 0 1 1  ON 18
udSi_19 0 1 1  ON 19
udSi_20 0 1 1  ON 20
udSi_21 0 1 1  ON 21
udSi_22 0 1 1  ON 22
udSi_23 0 1 1  ON 23
udSi_24 0 1 1  ON 24
udSi_25 0 1 1  ON 25
  QMCHamiltonian::addOperator Kinetic to H, physical Hamiltonian 
  QMCHamiltonian::addOperator ElecElec to H, physical Hamiltonian 
QMCHamiltonian::addOperatorType added type coulomb named ElecElec
  CoulombAA for ion0 is not created.  Number of particles == 1 and nonPeriodic

  ECPotential builder for pseudopotential 

  Adding pseudopotential for Si
   Linear grid  ri=0 rf=10 npts = 10001
    ECPComponentBuilder::buildSemiLocalAndLocal 
    Assuming Hartree unit
   Number of angular momentum channels 3
   Maximum angular momentum channel 2
   Creating a Linear Grid Rmax=2.69
  Using global grid with delta = 0.001
   Making L=2 a local potential with a radial cutoff of 9.999
    Non-local pseudopotential parameters
    Maximum angular mementum = 1
    Number of non-local channels = 2
       l(0)=0
       l(1)=1
    Cutoff radius = 2.69
    Spherical grids and weights: 
                        1                 0                 0       0.08333333333
                       -1   1.224646799e-16                 0       0.08333333333
             0.4472135955       0.894427191                 0       0.08333333333
            -0.4472135955      0.7236067977      0.5257311121       0.08333333333
             0.4472135955      0.2763932023      0.8506508084       0.08333333333
            -0.4472135955     -0.2763932023      0.8506508084       0.08333333333
             0.4472135955     -0.7236067977      0.5257311121       0.08333333333
            -0.4472135955      -0.894427191   1.095357397e-16       0.08333333333
             0.4472135955     -0.7236067977     -0.5257311121       0.08333333333
            -0.4472135955     -0.2763932023     -0.8506508084       0.08333333333
             0.4472135955      0.2763932023     -0.8506508084       0.08333333333
            -0.4472135955      0.7236067977     -0.5257311121       0.08333333333
    Maximum cutoff radius 2.69
  QMCHamiltonian::addOperator LocalECP to H, physical Hamiltonian 

  Using NonLocalECP potential 
    Maximum grid on a sphere for NonLocalECPotential: 12
  QMCHamiltonian::addOperator NonLocalECP to H, physical Hamiltonian 
QMCHamiltonian::addOperatorType added type pseudo named PseudoPot

  QMCHamiltonian::add2WalkerProperty added
    4 to P::PropertyList 
    0 to P::Collectables 
    starting Index of the observables in P::PropertyList = 9
ParticleSetPool::randomize 
<init source="ion0" target="e">
</init>
  Initialization Execution time = 0.4409 secs
=========================================================
 Summary of QMC systems 
=========================================================
ParticleSetPool has: 

  ParticleSet e : 0 3 4 

    4

    u  1.0916255187e+00  1.7523678153e+00  1.3050020598e-02
    u -2.7918548407e+00 -1.8318886060e-01 -1.9912877479e+00
    u  1.8192970431e+00 -5.7564530371e-01  3.5618305618e-01
    d -2.1643408804e+00  1.9760090955e+00  2.0418513945e-01

  ParticleSet ion0 : 0 1 

    1

    Si  0.0000000000e+00  0.0000000000e+00  0.0000000000e+00

  Hamiltonian h0
  Kinetic         Kinetic energy
  ElecElec        CoulombAA source/target e

  LocalECP        LocalECPotential: ion0
  NonLocalECP     NonLocalECPotential: ion0

=========================================================
  Start VMC
  File Root Si.log.s000 append = no 
=========================================================
  Adding 1 walkers to 0 existing sets
  Total number of walkers: 1.0240000000e+03
  Total weight: 1.0240000000e+03
  Resetting Properties of the walkers 1 x 13

<vmc function="put">
  qmc_counter=0  my_counter=0
  time step      = 1.5000000000e-01
  blocks         = 200
  steps          = 1
  substeps       = 5
  current        = 0
  target samples = 1.0240000000e+03
  walkers/mpi    = 1

  stepsbetweensamples = 200
<parameter name="blocks" condition="int">200</parameter>
<parameter name="blocks_between_recompute" condition="int">0</parameter>
<parameter name="check_properties" condition="int">100</parameter>
<parameter name="checkproperties" condition="int">100</parameter>
<parameter name="current" condition="int">0</parameter>
<parameter name="dmcwalkersperthread" condition="real">1.0000000000e+00</parameter>
<parameter name="maxcpusecs" condition="real">3.6000000000e+05</parameter>
<parameter name="record_configs" condition="int">0</parameter>
<parameter name="record_walkers" condition="int">200</parameter>
<parameter name="recordconfigs" condition="int">0</parameter>
<parameter name="recordwalkers" condition="int">200</parameter>
<parameter name="rewind" condition="int">0</parameter>
<parameter name="samples" condition="real">1.0240000000e+03</parameter>
<parameter name="samplesperthread" condition="real">1.0000000000e+00</parameter>
<parameter name="steps" condition="int">1</parameter>
<parameter name="stepsbetweensamples" condition="int">200</parameter>
<parameter name="store_configs" condition="int">0</parameter>
<parameter name="storeconfigs" condition="int">0</parameter>
<parameter name="sub_steps" condition="int">5</parameter>
<parameter name="substeps" condition="int">5</parameter>
<parameter name="tau" condition="au">1.5000000000e-01</parameter>
<parameter name="time_step" condition="au">1.5000000000e-01</parameter>
<parameter name="timestep" condition="au">1.5000000000e-01</parameter>
<parameter name="use_drift" condition="string">no</parameter>
<parameter name="usedrift" condition="string">no</parameter>
<parameter name="walkers" condition="int">1</parameter>
<parameter name="warmup_steps" condition="int">100</parameter>
<parameter name="warmupsteps" condition="int">100</parameter>
  DumpConfig==false Nothing (configurations, state) will be saved.
  Walker Samples are dumped every 200 steps.
</vmc>
  Initial partition of walkers 0 1 

  Using Particle by Particle moves
  Walker moves without drift
  Total Sample Size   =1024
  Walker distribution on root = 0 1 
  Using Locality Approximation
===== Memory Usage after the buffer registration =====
Available memory on node 0, free + buffers : 84719 MB
Memory footprint by rank 0 on node 0       : 73 MB
==================================================
  Anonymous Buffer size per walker : 1440 Bytes.
MEMORY increase 0 MB VMC::resetRun
====================================================
  SimpleFixedNodeBranch::finalize after a VMC block
    QMC counter        = 0
    time step          = 0.15
    reference energy   = -3.75065
    reference variance = 0.0292321
====================================================
  QMC Execution time = 1.1689e+00 secs 
Loop execution max-interations = 20

=========================================================
  Start QMCFixedSampleLinearOptimize
  File Root Si.log.s001 append = no 
=========================================================
  Skip QMCDriver::putQMCInfo 
  Resetting Properties of the walkers 1 x 13

=========================================================
  Start VMC
  File Root Si.log.s001 append = no 
=========================================================
  Using the current 1 walkers.
  Total number of walkers: 1.0240e+03
  Total weight: 1.0240e+03
  Resetting Properties of the walkers 1 x 13

<vmc function="put">
  qmc_counter=0  my_counter=0
  time step      = 1.5000e-01
  blocks         = 300
  steps          = 2
  substeps       = 5
  current        = 0
  target samples = 5.1200e+05
  walkers/mpi    = 1

  stepsbetweensamples = 1
<parameter name="blocks" condition="int">300</parameter>
<parameter name="blocks_between_recompute" condition="int">0</parameter>
<parameter name="check_properties" condition="int">100</parameter>
<parameter name="checkproperties" condition="int">100</parameter>
<parameter name="current" condition="int">0</parameter>
<parameter name="dmcwalkersperthread" condition="real">5.0000e+02</parameter>
<parameter name="maxcpusecs" condition="real">3.6000e+05</parameter>
<parameter name="record_configs" condition="int">0</parameter>
<parameter name="record_walkers" condition="int">1</parameter>
<parameter name="recordconfigs" condition="int">0</parameter>
<parameter name="recordwalkers" condition="int">1</parameter>
<parameter name="rewind" condition="int">0</parameter>
<parameter name="samples" condition="real">5.1200e+05</parameter>
<parameter name="samplesperthread" condition="real">5.0000e+02</parameter>
<parameter name="steps" condition="int">2</parameter>
<parameter name="stepsbetweensamples" condition="int">1</parameter>
<parameter name="store_configs" condition="int">0</parameter>
<parameter name="storeconfigs" condition="int">0</parameter>
<parameter name="sub_steps" condition="int">5</parameter>
<parameter name="substeps" condition="int">5</parameter>
<parameter name="tau" condition="au">1.5000e-01</parameter>
<parameter name="time_step" condition="au">1.5000e-01</parameter>
<parameter name="timestep" condition="au">1.5000e-01</parameter>
<parameter name="use_drift" condition="string">no</parameter>
<parameter name="usedrift" condition="string">no</parameter>
<parameter name="walkers" condition="int">1</parameter>
<parameter name="warmup_steps" condition="int">0</parameter>
<parameter name="warmupsteps" condition="int">0</parameter>
  DumpConfig==false Nothing (configurations, state) will be saved.
  Walker Samples are dumped every 1 steps.
</vmc>
    Restarting, cummulative properties:
      energy     = -3.7507e+00
      variance   = 0.0000e+00
      r2accepted = 1.0000e-10
      r2proposed = 1.0000e-10
 Using QMCCostFunction::QMCCostFunction
  EstimatorManagerBase::add replace LocalEnergy estimator.
<optimization-report>
<vmc stage="main" blocks="300">
  Cannot make clones again. Use existing 1 clones
  Initial partition of walkers 0 1 

  Using Particle by Particle moves
  Walker moves without drift
  Total Sample Size   =512000
  Walker distribution on root = 0 1 
  Using Locality Approximation
===== Memory Usage after the buffer registration =====
Available memory on node 0, free + buffers : 84698 MB
Memory footprint by rank 0 on node 0       : 74 MB
==================================================
  Anonymous Buffer size per walker : 1440 Bytes.
MEMORY increase 0 MB VMC::resetRun
====================================================
  SimpleFixedNodeBranch::finalize after a VMC block
    QMC counter        = 1
    time step          = 0.15
    reference energy   = -3.74988
    reference variance = 0.0234198
====================================================
  Execution time = 2.6866e+00
</vmc>
<opt stage="setup">
  <log>
   Reading configurations from h5FileRoot Si.log.s001
  QMCCostFunction is created with 1 threads.
  Using Nonlocal PP in Opt: NonLocalECP
   Number of samples loaded to each thread : 500 
  VMC Eavg = -3.7517e+00
  VMC Evar = 2.6594e-02
  Total weights = 5.1200e+05
  Execution time = 8.0633e-01
  </log>
</opt>
<opt stage="main" walkers="512000">
  <log>

*****************************************
Building overlap and Hamiltonian matrices
*****************************************

Among totally 82 optimized parameters, largest LM parameter change : 3.4733e-02 at parameter 21

******************************************************************************
Init Cost =  -3.5627e+00    New Cost =  -3.5671e+00  Delta Cost =  -4.3849e-03
******************************************************************************

The new set of parameters is valid. Updating the trial wave function!

*****************************************************************************
Applying the update for shift_i =   1.0000e-02     and shift_s =   2.5000e-01
*****************************************************************************
  Execution time = 4.4585e+00
  </log>
  <optVariables href="Si.log.s001.opt.xml">
uu_0 7.3510e-01 1 1  ON 0
uu_1 5.5331e-01 1 1  ON 1
uu_2 3.9318e-01 1 1  ON 2
uu_3 2.6726e-01 1 1  ON 3
uu_4 1.6755e-01 1 1  ON 4
uu_5 8.7242e-02 1 1  ON 5
uu_6 2.3145e-02 1 1  ON 6
uu_7 -2.2184e-02 1 1  ON 7
uu_8 -4.7494e-02 1 1  ON 8
uu_9 -5.7773e-02 1 1  ON 9
ud_0 1.1351e+00 1 1  ON 10
ud_1 7.6517e-01 1 1  ON 11
ud_2 5.0846e-01 1 1  ON 12
ud_3 3.1559e-01 1 1  ON 13
ud_4 1.7200e-01 1 1  ON 14
ud_5 5.9445e-02 1 1  ON 15
ud_6 -2.5136e-02 1 1  ON 16
ud_7 -8.3558e-02 1 1  ON 17
ud_8 -1.1341e-01 1 1  ON 18
ud_9 -1.2487e-01 1 1  ON 19
eSi_0 -7.8833e-01 1 1  ON 20
eSi_1 -6.7490e-01 1 1  ON 21
eSi_2 -5.3207e-01 1 1  ON 22
eSi_3 -2.9920e-01 1 1  ON 23
eSi_4 -3.9959e-02 1 1  ON 24
eSi_5 1.6888e-01 1 1  ON 25
eSi_6 3.2409e-01 1 1  ON 26
eSi_7 4.2937e-01 1 1  ON 27
eSi_8 4.3676e-01 1 1  ON 28
eSi_9 3.8417e-01 1 1  ON 29
uuSi_0 7.2010e-07 1 1  ON 30
uuSi_1 -1.1646e-05 1 1  ON 31
uuSi_2 -5.9053e-05 1 1  ON 32
uuSi_3 5.6354e-05 1 1  ON 33
uuSi_4 2.1161e-05 1 1  ON 34
uuSi_5 -3.6578e-07 1 1  ON 35
uuSi_6 -1.9875e-05 1 1  ON 36
uuSi_7 1.5160e-06 1 1  ON 37
uuSi_8 -1.0228e-04 1 1  ON 38
uuSi_9 1.5082e-05 1 1  ON 39
uuSi_10 2.4593e-05 1 1  ON 40
uuSi_11 5.3660e-05 1 1  ON 41
uuSi_12 2.9624e-05 1 1  ON 42
uuSi_13 -8.4373e-05 1 1  ON 43
uuSi_14 -2.6982e-05 1 1  ON 44
uuSi_15 -2.8709e-07 1 1  ON 45
uuSi_16 2.9323e-05 1 1  ON 46
uuSi_17 -8.0127e-05 1 1  ON 47
uuSi_18 -1.3446e-05 1 1  ON 48
uuSi_19 -1.0885e-05 1 1  ON 49
uuSi_20 2.4864e-05 1 1  ON 50
uuSi_21 6.0043e-06 1 1  ON 51
uuSi_22 4.6967e-07 1 1  ON 52
uuSi_23 -5.7320e-06 1 1  ON 53
uuSi_24 -6.1908e-07 1 1  ON 54
uuSi_25 -3.2075e-08 1 1  ON 55
udSi_0 1.9370e-05 1 1  ON 56
udSi_1 9.2870e-05 1 1  ON 57
udSi_2 -8.5381e-05 1 1  ON 58
udSi_3 7.1870e-05 1 1  ON 59
udSi_4 3.1345e-05 1 1  ON 60
udSi_5 -9.1624e-06 1 1  ON 61
udSi_6 1.7004e-04 1 1  ON 62
udSi_7 -8.8973e-05 1 1  ON 63
udSi_8 -1.8184e-04 1 1  ON 64
udSi_9 -1.4760e-04 1 1  ON 65
udSi_10 1.5606e-05 1 1  ON 66
udSi_11 1.4388e-04 1 1  ON 67
udSi_12 5.2013e-05 1 1  ON 68
udSi_13 -7.7161e-05 1 1  ON 69
udSi_14 -5.2007e-05 1 1  ON 70
udSi_15 -1.9089e-07 1 1  ON 71
udSi_16 1.9568e-04 1 1  ON 72
udSi_17 -9.4554e-05 1 1  ON 73
udSi_18 -8.0861e-05 1 1  ON 74
udSi_19 -1.4062e-05 1 1  ON 75
udSi_20 -2.1905e-07 1 1  ON 76
udSi_21 2.1086e-05 1 1  ON 77
udSi_22 -6.0451e-07 1 1  ON 78
udSi_23 -5.6961e-07 1 1  ON 79
udSi_24 -3.4389e-06 1 1  ON 80
udSi_25 3.2919e-07 1 1  ON 81
  </optVariables>
   Restore the number of walkers to 1, removing 0 walkers.
</opt>
</optimization-report>
  QMC Execution time = 4.4724e+00 secs 
  Reusing QMCFixedSampleLinearOptimize
 Using QMCCostFunction::QMCCostFunction

=========================================================
  Start QMCFixedSampleLinearOptimize
  File Root Si.log.s002 append = no 
=========================================================
  Skip QMCDriver::putQMCInfo 
  Resetting Properties of the walkers 1 x 13

=========================================================
  Start VMC
  File Root Si.log.s002 append = no 
=========================================================
Using existing walkers 
  Resetting Properties of the walkers 1 x 13

<vmc function="put">
  qmc_counter=1  my_counter=1
  time step      = 1.5000e-01
  blocks         = 300
  steps          = 2
  substeps       = 5
  current        = 0
  target samples = 5.1200e+05
  walkers/mpi    = 1

  stepsbetweensamples = 1
<parameter name="blocks" condition="int">300</parameter>
<parameter name="blocks_between_recompute" condition="int">0</parameter>
<parameter name="check_properties" condition="int">100</parameter>
<parameter name="checkproperties" condition="int">100</parameter>
<parameter name="current" condition="int">0</parameter>
<parameter name="dmcwalkersperthread" condition="real">5.0000e+02</parameter>
<parameter name="maxcpusecs" condition="real">3.6000e+05</parameter>
<parameter name="record_configs" condition="int">0</parameter>
<parameter name="record_walkers" condition="int">1</parameter>
<parameter name="recordconfigs" condition="int">0</parameter>
<parameter name="recordwalkers" condition="int">1</parameter>
<parameter name="rewind" condition="int">0</parameter>
<parameter name="samples" condition="real">5.1200e+05</parameter>
<parameter name="samplesperthread" condition="real">5.0000e+02</parameter>
<parameter name="steps" condition="int">2</parameter>
<parameter name="stepsbetweensamples" condition="int">1</parameter>
<parameter name="store_configs" condition="int">0</parameter>
<parameter name="storeconfigs" condition="int">0</parameter>
<parameter name="sub_steps" condition="int">5</parameter>
<parameter name="substeps" condition="int">5</parameter>
<parameter name="tau" condition="au">1.5000e-01</parameter>
<parameter name="time_step" condition="au">1.5000e-01</parameter>
<parameter name="timestep" condition="au">1.5000e-01</parameter>
<parameter name="use_drift" condition="string">no</parameter>
<parameter name="usedrift" condition="string">no</parameter>
<parameter name="walkers" condition="int">1</parameter>
<parameter name="warmup_steps" condition="int">0</parameter>
<parameter name="warmupsteps" condition="int">0</parameter>
  DumpConfig==false Nothing (configurations, state) will be saved.
  Walker Samples are dumped every 1 steps.
</vmc>
  EstimatorManagerBase::add replace LocalEnergy estimator.
  EstimatorManagerBase::add replace LocalEnergy estimator.
<optimization-report>
<vmc stage="main" blocks="300">
  Cannot make clones again. Use existing 1 clones
  Initial partition of walkers 0 1 
  Using Particle by Particle moves
  Walker moves without drift
  Total Sample Size   =512000
  Walker distribution on root = 0 1 
  Using Locality Approximation
===== Memory Usage after the buffer registration =====
Available memory on node 0, free + buffers : 83597 MB
Memory footprint by rank 0 on node 0       : 94 MB
==================================================
====================================================
  SimpleFixedNodeBranch::finalize after a VMC block
    QMC counter        = 2
    time step          = 0.15
    reference energy   = -3.75948
    reference variance = 0.011998
====================================================
  Execution time = 2.6775e+00
</vmc>
<opt stage="setup">
  <log>
   Reading configurations from h5FileRoot Si.log.s002
  QMCCostFunction is created with 1 threads.
  Using Nonlocal PP in Opt: NonLocalECP
   Number of samples loaded to each thread : 500 
  VMC Eavg = -3.7553e+00
  VMC Evar = 1.3094e-02
  Total weights = 5.1200e+05
  Execution time = 1.0240e+00
  </log>
</opt>
<opt stage="main" walkers="512000">
  <log>

*****************************************
Building overlap and Hamiltonian matrices
*****************************************

Among totally 82 optimized parameters, largest LM parameter change : 2.0278e-02 at parameter 23

******************************************************************************
Init Cost =  -3.5669e+00    New Cost =  -3.5680e+00  Delta Cost =  -1.0646e-03
******************************************************************************

The new set of parameters is valid. Updating the trial wave function!

*****************************************************************************
Applying the update for shift_i =   1.0000e-02     and shift_s =   6.2500e-02
*****************************************************************************
  Execution time = 4.8167e+00
  </log>
  <optVariables href="Si.log.s002.opt.xml">
uu_0 7.3523e-01 1 1  ON 0
uu_1 5.4011e-01 1 1  ON 1
uu_2 3.8774e-01 1 1  ON 2
uu_3 2.6486e-01 1 1  ON 3
uu_4 1.6951e-01 1 1  ON 4
uu_5 9.2649e-02 1 1  ON 5
uu_6 2.9908e-02 1 1  ON 6
uu_7 -1.3363e-02 1 1  ON 7
uu_8 -3.8660e-02 1 1  ON 8
uu_9 -5.0669e-02 1 1  ON 9
ud_0 1.1390e+00 1 1  ON 10
ud_1 7.7286e-01 1 1  ON 11
ud_2 5.2461e-01 1 1  ON 12
ud_3 3.3309e-01 1 1  ON 13
ud_4 1.8861e-01 1 1  ON 14
ud_5 7.0445e-02 1 1  ON 15
ud_6 -2.0412e-02 1 1  ON 16
ud_7 -8.0870e-02 1 1  ON 17
ud_8 -1.1228e-01 1 1  ON 18
ud_9 -1.2302e-01 1 1  ON 19
eSi_0 -7.7855e-01 1 1  ON 20
eSi_1 -6.5635e-01 1 1  ON 21
eSi_2 -5.4005e-01 1 1  ON 22
eSi_3 -3.1948e-01 1 1  ON 23
eSi_4 -5.3498e-02 1 1  ON 24
eSi_5 1.5107e-01 1 1  ON 25
eSi_6 3.0709e-01 1 1  ON 26
eSi_7 4.1943e-01 1 1  ON 27
eSi_8 4.3173e-01 1 1  ON 28
eSi_9 3.8845e-01 1 1  ON 29
uuSi_0 -1.3839e-05 1 1  ON 30
uuSi_1 -1.1490e-05 1 1  ON 31
uuSi_2 -5.6749e-05 1 1  ON 32
uuSi_3 9.9333e-05 1 1  ON 33
uuSi_4 3.0425e-05 1 1  ON 34
uuSi_5 3.6964e-07 1 1  ON 35
uuSi_6 1.1738e-05 1 1  ON 36
uuSi_7 1.1273e-05 1 1  ON 37
uuSi_8 -1.3660e-04 1 1  ON 38
uuSi_9 -7.8609e-07 1 1  ON 39
uuSi_10 5.0281e-05 1 1  ON 40
uuSi_11 4.9957e-05 1 1  ON 41
uuSi_12 4.3108e-05 1 1  ON 42
uuSi_13 -1.4359e-04 1 1  ON 43
uuSi_14 -4.0369e-05 1 1  ON 44
uuSi_15 -3.0696e-07 1 1  ON 45
uuSi_16 7.8613e-05 1 1  ON 46
uuSi_17 -1.5620e-04 1 1  ON 47
uuSi_18 5.2029e-06 1 1  ON 48
uuSi_19 -1.7837e-05 1 1  ON 49
uuSi_20 4.0525e-05 1 1  ON 50
uuSi_21 6.4373e-06 1 1  ON 51
uuSi_22 9.5805e-07 1 1  ON 52
uuSi_23 -1.0122e-05 1 1  ON 53
uuSi_24 -4.7437e-07 1 1  ON 54
uuSi_25 -1.0419e-07 1 1  ON 55
udSi_0 -8.8703e-06 1 1  ON 56
udSi_1 4.8761e-05 1 1  ON 57
udSi_2 -1.1828e-04 1 1  ON 58
udSi_3 1.6285e-04 1 1  ON 59
udSi_4 5.3678e-05 1 1  ON 60
udSi_5 -7.4358e-06 1 1  ON 61
udSi_6 1.5956e-04 1 1  ON 62
udSi_7 -4.7505e-05 1 1  ON 63
udSi_8 -2.8183e-04 1 1  ON 64
udSi_9 -1.3203e-04 1 1  ON 65
udSi_10 6.2702e-05 1 1  ON 66
udSi_11 1.6843e-04 1 1  ON 67
udSi_12 8.4679e-05 1 1  ON 68
udSi_13 -1.9784e-04 1 1  ON 69
udSi_14 -8.1028e-05 1 1  ON 70
udSi_15 -5.7393e-07 1 1  ON 71
udSi_16 2.4004e-04 1 1  ON 72
udSi_17 -2.1764e-04 1 1  ON 73
udSi_18 -7.7405e-05 1 1  ON 74
udSi_19 -2.6616e-05 1 1  ON 75
udSi_20 3.8839e-05 1 1  ON 76
udSi_21 2.6277e-05 1 1  ON 77
udSi_22 -1.0521e-07 1 1  ON 78
udSi_23 -1.1473e-05 1 1  ON 79
udSi_24 -3.8209e-06 1 1  ON 80
udSi_25 3.0717e-07 1 1  ON 81
  </optVariables>
   Restore the number of walkers to 1, removing 0 walkers.
</opt>
</optimization-report>
  QMC Execution time = 4.8303e+00 secs 
  Reusing QMCFixedSampleLinearOptimize
 Using QMCCostFunction::QMCCostFunction

=========================================================
  Start QMCFixedSampleLinearOptimize
  File Root Si.log.s003 append = no 
=========================================================
  Skip QMCDriver::putQMCInfo 
  Resetting Properties of the walkers 1 x 13

=========================================================
  Start VMC
  File Root Si.log.s003 append = no 
=========================================================
Using existing walkers 
  Resetting Properties of the walkers 1 x 13

<vmc function="put">
  qmc_counter=2  my_counter=2
  time step      = 1.5000e-01
  blocks         = 300
  steps          = 2
  substeps       = 5
  current        = 0
  target samples = 5.1200e+05
  walkers/mpi    = 1

  stepsbetweensamples = 1
<parameter name="blocks" condition="int">300</parameter>
<parameter name="blocks_between_recompute" condition="int">0</parameter>
<parameter name="check_properties" condition="int">100</parameter>
<parameter name="checkproperties" condition="int">100</parameter>
<parameter name="current" condition="int">0</parameter>
<parameter name="dmcwalkersperthread" condition="real">5.0000e+02</parameter>
<parameter name="maxcpusecs" condition="real">3.6000e+05</parameter>
<parameter name="record_configs" condition="int">0</parameter>
<parameter name="record_walkers" condition="int">1</parameter>
<parameter name="recordconfigs" condition="int">0</parameter>
<parameter name="recordwalkers" condition="int">1</parameter>
<parameter name="rewind" condition="int">0</parameter>
<parameter name="samples" condition="real">5.1200e+05</parameter>
<parameter name="samplesperthread" condition="real">5.0000e+02</parameter>
<parameter name="steps" condition="int">2</parameter>
<parameter name="stepsbetweensamples" condition="int">1</parameter>
<parameter name="store_configs" condition="int">0</parameter>
<parameter name="storeconfigs" condition="int">0</parameter>
<parameter name="sub_steps" condition="int">5</parameter>
<parameter name="substeps" condition="int">5</parameter>
<parameter name="tau" condition="au">1.5000e-01</parameter>
<parameter name="time_step" condition="au">1.5000e-01</parameter>
<parameter name="timestep" condition="au">1.5000e-01</parameter>
<parameter name="use_drift" condition="string">no</parameter>
<parameter name="usedrift" condition="string">no</parameter>
<parameter name="walkers" condition="int">1</parameter>
<parameter name="warmup_steps" condition="int">0</parameter>
<parameter name="warmupsteps" condition="int">0</parameter>
  DumpConfig==false Nothing (configurations, state) will be saved.
  Walker Samples are dumped every 1 steps.
</vmc>
  EstimatorManagerBase::add replace LocalEnergy estimator.
  EstimatorManagerBase::add replace LocalEnergy estimator.
<optimization-report>
<vmc stage="main" blocks="300">
  Cannot make clones again. Use existing 1 clones
  Initial partition of walkers 0 1 
  Using Particle by Particle moves
  Walker moves without drift
  Total Sample Size   =512000
  Walker distribution on root = 0 1 
  Using Locality Approximation
===== Memory Usage after the buffer registration =====
Available memory on node 0, free + buffers : 83592 MB
Memory footprint by rank 0 on node 0       : 96 MB
==================================================
====================================================
  SimpleFixedNodeBranch::finalize after a VMC block
    QMC counter        = 3
    time step          = 0.15
    reference energy   = -3.75435
    reference variance = 0.0141803
====================================================
  Execution time = 2.6543e+00
</vmc>
<opt stage="setup">
  <log>
   Reading configurations from h5FileRoot Si.log.s003
  QMCCostFunction is created with 1 threads.
  Using Nonlocal PP in Opt: NonLocalECP
   Number of samples loaded to each thread : 500 
  VMC Eavg = -3.7566e+00
  VMC Evar = 1.2541e-02
  Total weights = 5.1200e+05
  Execution time = 9.6545e-01
  </log>
</opt>
<opt stage="main" walkers="512000">
  <log>

*****************************************
Building overlap and Hamiltonian matrices
*****************************************

Among totally 82 optimized parameters, largest LM parameter change : 1.4778e-02 at parameter 14

******************************************************************************
Init Cost =  -3.5681e+00    New Cost =  -3.5683e+00  Delta Cost =  -1.8045e-04
******************************************************************************

The new set of parameters is valid. Updating the trial wave function!

*****************************************************************************
Applying the update for shift_i =   1.0000e-02     and shift_s =   1.5625e-02
*****************************************************************************
  Execution time = 4.6818e+00
  </log>
  <optVariables href="Si.log.s003.opt.xml">
uu_0 7.3489e-01 1 1  ON 0
uu_1 5.3200e-01 1 1  ON 1
uu_2 3.8560e-01 1 1  ON 2
uu_3 2.6633e-01 1 1  ON 3
uu_4 1.7370e-01 1 1  ON 4
uu_5 9.8187e-02 1 1  ON 5
uu_6 3.6339e-02 1 1  ON 6
uu_7 -6.6616e-03 1 1  ON 7
uu_8 -3.2206e-02 1 1  ON 8
uu_9 -4.5258e-02 1 1  ON 9
ud_0 1.1476e+00 1 1  ON 10
ud_1 7.8343e-01 1 1  ON 11
ud_2 5.3808e-01 1 1  ON 12
ud_3 3.4755e-01 1 1  ON 13
ud_4 2.0339e-01 1 1  ON 14
ud_5 8.2010e-02 1 1  ON 15
ud_6 -1.2384e-02 1 1  ON 16
ud_7 -7.4903e-02 1 1  ON 17
ud_8 -1.0671e-01 1 1  ON 18
ud_9 -1.1930e-01 1 1  ON 19
eSi_0 -7.6969e-01 1 1  ON 20
eSi_1 -6.5067e-01 1 1  ON 21
eSi_2 -5.4648e-01 1 1  ON 22
eSi_3 -3.3039e-01 1 1  ON 23
eSi_4 -6.3724e-02 1 1  ON 24
eSi_5 1.3802e-01 1 1  ON 25
eSi_6 2.9534e-01 1 1  ON 26
eSi_7 4.1006e-01 1 1  ON 27
eSi_8 4.2637e-01 1 1  ON 28
eSi_9 3.9095e-01 1 1  ON 29
uuSi_0 -1.2181e-05 1 1  ON 30
uuSi_1 -6.7243e-06 1 1  ON 31
uuSi_2 -5.2431e-05 1 1  ON 32
uuSi_3 1.1071e-04 1 1  ON 33
uuSi_4 3.1582e-05 1 1  ON 34
uuSi_5 1.7564e-06 1 1  ON 35
uuSi_6 2.5013e-05 1 1  ON 36
uuSi_7 2.6818e-05 1 1  ON 37
uuSi_8 -1.3610e-04 1 1  ON 38
uuSi_9 -2.2130e-05 1 1  ON 39
uuSi_10 5.7066e-05 1 1  ON 40
uuSi_11 3.5810e-05 1 1  ON 41
uuSi_12 4.4990e-05 1 1  ON 42
uuSi_13 -1.5317e-04 1 1  ON 43
uuSi_14 -4.1135e-05 1 1  ON 44
uuSi_15 -4.2179e-07 1 1  ON 45
uuSi_16 1.1178e-04 1 1  ON 46
uuSi_17 -1.7470e-04 1 1  ON 47
uuSi_18 1.6499e-05 1 1  ON 48
uuSi_19 -1.9798e-05 1 1  ON 49
uuSi_20 3.8818e-05 1 1  ON 50
uuSi_21 5.7326e-06 1 1  ON 51
uuSi_22 1.1948e-06 1 1  ON 52
uuSi_23 -9.5828e-06 1 1  ON 53
uuSi_24 -4.4507e-07 1 1  ON 54
uuSi_25 -1.3484e-07 1 1  ON 55
udSi_0 -2.3334e-05 1 1  ON 56
udSi_1 5.7496e-05 1 1  ON 57
udSi_2 -1.2119e-04 1 1  ON 58
udSi_3 1.9806e-04 1 1  ON 59
udSi_4 6.1871e-05 1 1  ON 60
udSi_5 -8.4200e-06 1 1  ON 61
udSi_6 2.0020e-04 1 1  ON 62
udSi_7 -3.7068e-05 1 1  ON 63
udSi_8 -3.2448e-04 1 1  ON 64
udSi_9 -1.5502e-04 1 1  ON 65
udSi_10 8.0644e-05 1 1  ON 66
udSi_11 1.7928e-04 1 1  ON 67
udSi_12 9.9950e-05 1 1  ON 68
udSi_13 -2.5043e-04 1 1  ON 69
udSi_14 -9.6094e-05 1 1  ON 70
udSi_15 -6.3095e-07 1 1  ON 71
udSi_16 2.8981e-04 1 1  ON 72
udSi_17 -2.8193e-04 1 1  ON 73
udSi_18 -7.5874e-05 1 1  ON 74
udSi_19 -3.2655e-05 1 1  ON 75
udSi_20 5.3694e-05 1 1  ON 76
udSi_21 2.9611e-05 1 1  ON 77
udSi_22 1.8762e-08 1 1  ON 78
udSi_23 -1.6277e-05 1 1  ON 79
udSi_24 -4.2359e-06 1 1  ON 80
udSi_25 3.3820e-07 1 1  ON 81
  </optVariables>
   Restore the number of walkers to 1, removing 0 walkers.
</opt>
</optimization-report>
  QMC Execution time = 4.6950e+00 secs 
  Reusing QMCFixedSampleLinearOptimize
 Using QMCCostFunction::QMCCostFunction

=========================================================
  Start QMCFixedSampleLinearOptimize
  File Root Si.log.s004 append = no 
=========================================================
  Skip QMCDriver::putQMCInfo 
  Resetting Properties of the walkers 1 x 13

=========================================================
  Start VMC
  File Root Si.log.s004 append = no 
=========================================================
Using existing walkers 
  Resetting Properties of the walkers 1 x 13

<vmc function="put">
  qmc_counter=3  my_counter=3
  time step      = 1.5000e-01
  blocks         = 300
  steps          = 2
  substeps       = 5
  current        = 0
  target samples = 5.1200e+05
  walkers/mpi    = 1

  stepsbetweensamples = 1
<parameter name="blocks" condition="int">300</parameter>
<parameter name="blocks_between_recompute" condition="int">0</parameter>
<parameter name="check_properties" condition="int">100</parameter>
<parameter name="checkproperties" condition="int">100</parameter>
<parameter name="current" condition="int">0</parameter>
<parameter name="dmcwalkersperthread" condition="real">5.0000e+02</parameter>
<parameter name="maxcpusecs" condition="real">3.6000e+05</parameter>
<parameter name="record_configs" condition="int">0</parameter>
<parameter name="record_walkers" condition="int">1</parameter>
<parameter name="recordconfigs" condition="int">0</parameter>
<parameter name="recordwalkers" condition="int">1</parameter>
<parameter name="rewind" condition="int">0</parameter>
<parameter name="samples" condition="real">5.1200e+05</parameter>
<parameter name="samplesperthread" condition="real">5.0000e+02</parameter>
<parameter name="steps" condition="int">2</parameter>
<parameter name="stepsbetweensamples" condition="int">1</parameter>
<parameter name="store_configs" condition="int">0</parameter>
<parameter name="storeconfigs" condition="int">0</parameter>
<parameter name="sub_steps" condition="int">5</parameter>
<parameter name="substeps" condition="int">5</parameter>
<parameter name="tau" condition="au">1.5000e-01</parameter>
<parameter name="time_step" condition="au">1.5000e-01</parameter>
<parameter name="timestep" condition="au">1.5000e-01</parameter>
<parameter name="use_drift" condition="string">no</parameter>
<parameter name="usedrift" condition="string">no</parameter>
<parameter name="walkers" condition="int">1</parameter>
<parameter name="warmup_steps" condition="int">0</parameter>
<parameter name="warmupsteps" condition="int">0</parameter>
  DumpConfig==false Nothing (configurations, state) will be saved.
  Walker Samples are dumped every 1 steps.
</vmc>
  EstimatorManagerBase::add replace LocalEnergy estimator.
  EstimatorManagerBase::add replace LocalEnergy estimator.
<optimization-report>
<vmc stage="main" blocks="300">
  Cannot make clones again. Use existing 1 clones
  Initial partition of walkers 0 1 
  Using Particle by Particle moves
  Walker moves without drift
  Total Sample Size   =512000
  Walker distribution on root = 0 1 
  Using Locality Approximation
===== Memory Usage after the buffer registration =====
Available memory on node 0, free + buffers : 83590 MB
Memory footprint by rank 0 on node 0       : 98 MB
==================================================
====================================================
  SimpleFixedNodeBranch::finalize after a VMC block
    QMC counter        = 4
    time step          = 0.15
    reference energy   = -3.75746
    reference variance = 0.0154028
====================================================
  Execution time = 2.6539e+00
</vmc>
<opt stage="setup">
  <log>
   Reading configurations from h5FileRoot Si.log.s004
  QMCCostFunction is created with 1 threads.
  Using Nonlocal PP in Opt: NonLocalECP
   Number of samples loaded to each thread : 500 
  VMC Eavg = -3.7571e+00
  VMC Evar = 1.2618e-02
  Total weights = 5.1200e+05
  Execution time = 1.0148e+00
  </log>
</opt>
<opt stage="main" walkers="512000">
  <log>

*****************************************
Building overlap and Hamiltonian matrices
*****************************************

Among totally 82 optimized parameters, largest LM parameter change : 1.0955e-02 at parameter 12

******************************************************************************
Init Cost =  -3.5686e+00    New Cost =  -3.5686e+00  Delta Cost =  -4.8762e-05
******************************************************************************

The new set of parameters is valid. Updating the trial wave function!

*****************************************************************************
Applying the update for shift_i =   1.0000e-02     and shift_s =   3.9062e-03
*****************************************************************************
  Execution time = 4.7441e+00
  </log>
  <optVariables href="Si.log.s004.opt.xml">
uu_0 7.3375e-01 1 1  ON 0
uu_1 5.2731e-01 1 1  ON 1
uu_2 3.8495e-01 1 1  ON 2
uu_3 2.6744e-01 1 1  ON 3
uu_4 1.7581e-01 1 1  ON 4
uu_5 1.0036e-01 1 1  ON 5
uu_6 3.8788e-02 1 1  ON 6
uu_7 -3.4390e-03 1 1  ON 7
uu_8 -2.8620e-02 1 1  ON 8
uu_9 -4.1766e-02 1 1  ON 9
ud_0 1.1568e+00 1 1  ON 10
ud_1 7.9408e-01 1 1  ON 11
ud_2 5.4903e-01 1 1  ON 12
ud_3 3.5823e-01 1 1  ON 13
ud_4 2.1353e-01 1 1  ON 14
ud_5 9.0797e-02 1 1  ON 15
ud_6 -5.2904e-03 1 1  ON 16
ud_7 -6.8066e-02 1 1  ON 17
ud_8 -1.0132e-01 1 1  ON 18
ud_9 -1.1512e-01 1 1  ON 19
eSi_0 -7.6290e-01 1 1  ON 20
eSi_1 -6.5163e-01 1 1  ON 21
eSi_2 -5.5231e-01 1 1  ON 22
eSi_3 -3.3746e-01 1 1  ON 23
eSi_4 -7.2106e-02 1 1  ON 24
eSi_5 1.2725e-01 1 1  ON 25
eSi_6 2.8474e-01 1 1  ON 26
eSi_7 4.0120e-01 1 1  ON 27
eSi_8 4.1767e-01 1 1  ON 28
eSi_9 3.8895e-01 1 1  ON 29
uuSi_0 -1.3405e-05 1 1  ON 30
uuSi_1 1.1060e-05 1 1  ON 31
uuSi_2 -4.7729e-05 1 1  ON 32
uuSi_3 1.0269e-04 1 1  ON 33
uuSi_4 2.8633e-05 1 1  ON 34
uuSi_5 9.4904e-07 1 1  ON 35
uuSi_6 5.4150e-05 1 1  ON 36
uuSi_7 1.5613e-05 1 1  ON 37
uuSi_8 -1.3189e-04 1 1  ON 38
uuSi_9 -3.9878e-05 1 1  ON 39
uuSi_10 4.8316e-05 1 1  ON 40
uuSi_11 4.3794e-05 1 1  ON 41
uuSi_12 4.2927e-05 1 1  ON 42
uuSi_13 -1.4376e-04 1 1  ON 43
uuSi_14 -4.0612e-05 1 1  ON 44
uuSi_15 -3.0139e-07 1 1  ON 45
uuSi_16 1.2439e-04 1 1  ON 46
uuSi_17 -1.6396e-04 1 1  ON 47
uuSi_18 6.7722e-06 1 1  ON 48
uuSi_19 -1.8171e-05 1 1  ON 49
uuSi_20 3.4780e-05 1 1  ON 50
uuSi_21 7.1103e-06 1 1  ON 51
uuSi_22 9.4608e-07 1 1  ON 52
uuSi_23 -8.8010e-06 1 1  ON 53
uuSi_24 -7.4410e-07 1 1  ON 54
uuSi_25 -8.4049e-08 1 1  ON 55
udSi_0 -2.3891e-05 1 1  ON 56
udSi_1 1.1567e-04 1 1  ON 57
udSi_2 -1.0883e-04 1 1  ON 58
udSi_3 1.8079e-04 1 1  ON 59
udSi_4 5.6646e-05 1 1  ON 60
udSi_5 -1.2353e-05 1 1  ON 61
udSi_6 3.0013e-04 1 1  ON 62
udSi_7 -8.1774e-05 1 1  ON 63
udSi_8 -3.2347e-04 1 1  ON 64
udSi_9 -2.1960e-04 1 1  ON 65
udSi_10 6.1835e-05 1 1  ON 66
udSi_11 2.0546e-04 1 1  ON 67
udSi_12 9.8253e-05 1 1  ON 68
udSi_13 -2.2901e-04 1 1  ON 69
udSi_14 -9.8739e-05 1 1  ON 70
udSi_15 -2.9712e-07 1 1  ON 71
udSi_16 3.4791e-04 1 1  ON 72
udSi_17 -2.6776e-04 1 1  ON 73
udSi_18 -1.0010e-04 1 1  ON 74
udSi_19 -3.0011e-05 1 1  ON 75
udSi_20 3.9204e-05 1 1  ON 76
udSi_21 3.4038e-05 1 1  ON 77
udSi_22 -5.9798e-07 1 1  ON 78
udSi_23 -1.3076e-05 1 1  ON 79
udSi_24 -5.2186e-06 1 1  ON 80
udSi_25 4.8982e-07 1 1  ON 81
  </optVariables>
   Restore the number of walkers to 1, removing 0 walkers.
</opt>
</optimization-report>
  QMC Execution time = 4.7577e+00 secs 
  Reusing QMCFixedSampleLinearOptimize
 Using QMCCostFunction::QMCCostFunction

=========================================================
  Start QMCFixedSampleLinearOptimize
  File Root Si.log.s005 append = no 
=========================================================
  Skip QMCDriver::putQMCInfo 
  Resetting Properties of the walkers 1 x 13

=========================================================
  Start VMC
  File Root Si.log.s005 append = no 
=========================================================
Using existing walkers 
  Resetting Properties of the walkers 1 x 13

<vmc function="put">
  qmc_counter=4  my_counter=4
  time step      = 1.5000e-01
  blocks         = 300
  steps          = 2
  substeps       = 5
  current        = 0
  target samples = 5.1200e+05
  walkers/mpi    = 1

  stepsbetweensamples = 1
<parameter name="blocks" condition="int">300</parameter>
<parameter name="blocks_between_recompute" condition="int">0</parameter>
<parameter name="check_properties" condition="int">100</parameter>
<parameter name="checkproperties" condition="int">100</parameter>
<parameter name="current" condition="int">0</parameter>
<parameter name="dmcwalkersperthread" condition="real">5.0000e+02</parameter>
<parameter name="maxcpusecs" condition="real">3.6000e+05</parameter>
<parameter name="record_configs" condition="int">0</parameter>
<parameter name="record_walkers" condition="int">1</parameter>
<parameter name="recordconfigs" condition="int">0</parameter>
<parameter name="recordwalkers" condition="int">1</parameter>
<parameter name="rewind" condition="int">0</parameter>
<parameter name="samples" condition="real">5.1200e+05</parameter>
<parameter name="samplesperthread" condition="real">5.0000e+02</parameter>
<parameter name="steps" condition="int">2</parameter>
<parameter name="stepsbetweensamples" condition="int">1</parameter>
<parameter name="store_configs" condition="int">0</parameter>
<parameter name="storeconfigs" condition="int">0</parameter>
<parameter name="sub_steps" condition="int">5</parameter>
<parameter name="substeps" condition="int">5</parameter>
<parameter name="tau" condition="au">1.5000e-01</parameter>
<parameter name="time_step" condition="au">1.5000e-01</parameter>
<parameter name="timestep" condition="au">1.5000e-01</parameter>
<parameter name="use_drift" condition="string">no</parameter>
<parameter name="usedrift" condition="string">no</parameter>
<parameter name="walkers" condition="int">1</parameter>
<parameter name="warmup_steps" condition="int">0</parameter>
<parameter name="warmupsteps" condition="int">0</parameter>
  DumpConfig==false Nothing (configurations, state) will be saved.
  Walker Samples are dumped every 1 steps.
</vmc>
  EstimatorManagerBase::add replace LocalEnergy estimator.
  EstimatorManagerBase::add replace LocalEnergy estimator.
<optimization-report>
<vmc stage="main" blocks="300">
  Cannot make clones again. Use existing 1 clones
  Initial partition of walkers 0 1 
  Using Particle by Particle moves
  Walker moves without drift
  Total Sample Size   =512000
  Walker distribution on root = 0 1 
  Using Locality Approximation
===== Memory Usage after the buffer registration =====
Available memory on node 0, free + buffers : 83588 MB
Memory footprint by rank 0 on node 0       : 101 MB
==================================================
====================================================
  SimpleFixedNodeBranch::finalize after a VMC block
    QMC counter        = 5
    time step          = 0.15
    reference energy   = -3.75909
    reference variance = 0.0105812
====================================================
  Execution time = 2.6687e+00
</vmc>
<opt stage="setup">
  <log>
   Reading configurations from h5FileRoot Si.log.s005
  QMCCostFunction is created with 1 threads.
  Using Nonlocal PP in Opt: NonLocalECP
   Number of samples loaded to each thread : 500 
  VMC Eavg = -3.7569e+00
  VMC Evar = 1.3239e-02
  Total weights = 5.1200e+05
  Execution time = 9.8014e-01
  </log>
</opt>
<opt stage="main" walkers="512000">
  <log>

*****************************************
Building overlap and Hamiltonian matrices
*****************************************

Among totally 82 optimized parameters, largest LM parameter change : 1.0457e-02 at parameter 10

******************************************************************************
Init Cost =  -3.5684e+00    New Cost =  -3.5685e+00  Delta Cost =  -3.1381e-05
******************************************************************************

The new set of parameters is valid. Updating the trial wave function!

*****************************************************************************
Applying the update for shift_i =   1.0000e-02     and shift_s =   3.9062e-03
*****************************************************************************
  Execution time = 4.6978e+00
  </log>
  <optVariables href="Si.log.s005.opt.xml">
uu_0 7.3190e-01 1 1  ON 0
uu_1 5.2513e-01 1 1  ON 1
uu_2 3.8459e-01 1 1  ON 2
uu_3 2.6831e-01 1 1  ON 3
uu_4 1.7756e-01 1 1  ON 4
uu_5 1.0249e-01 1 1  ON 5
uu_6 4.0713e-02 1 1  ON 6
uu_7 -2.0863e-03 1 1  ON 7
uu_8 -2.7945e-02 1 1  ON 8
uu_9 -4.0543e-02 1 1  ON 9
ud_0 1.1672e+00 1 1  ON 10
ud_1 8.0447e-01 1 1  ON 11
ud_2 5.5806e-01 1 1  ON 12
ud_3 3.6649e-01 1 1  ON 13
ud_4 2.2099e-01 1 1  ON 14
ud_5 9.7586e-02 1 1  ON 15
ud_6 6.8481e-04 1 1  ON 16
ud_7 -6.2956e-02 1 1  ON 17
ud_8 -9.6745e-02 1 1  ON 18
ud_9 -1.1014e-01 1 1  ON 19
eSi_0 -7.5855e-01 1 1  ON 20
eSi_1 -6.5713e-01 1 1  ON 21
eSi_2 -5.5841e-01 1 1  ON 22
eSi_3 -3.4324e-01 1 1  ON 23
eSi_4 -7.9163e-02 1 1  ON 24
eSi_5 1.1694e-01 1 1  ON 25
eSi_6 2.7547e-01 1 1  ON 26
eSi_7 3.9289e-01 1 1  ON 27
eSi_8 4.1168e-01 1 1  ON 28
eSi_9 3.8849e-01 1 1  ON 29
uuSi_0 -1.8490e-05 1 1  ON 30
uuSi_1 2.9632e-05 1 1  ON 31
uuSi_2 -4.0203e-05 1 1  ON 32
uuSi_3 1.0229e-04 1 1  ON 33
uuSi_4 2.6951e-05 1 1  ON 34
uuSi_5 -1.7932e-06 1 1  ON 35
uuSi_6 9.5686e-05 1 1  ON 36
uuSi_7 -4.3073e-06 1 1  ON 37
uuSi_8 -1.3147e-04 1 1  ON 38
uuSi_9 -5.7469e-05 1 1  ON 39
uuSi_10 4.4784e-05 1 1  ON 40
uuSi_11 5.1219e-05 1 1  ON 41
uuSi_12 4.2099e-05 1 1  ON 42
uuSi_13 -1.4445e-04 1 1  ON 43
uuSi_14 -4.1788e-05 1 1  ON 44
uuSi_15 -1.4686e-07 1 1  ON 45
uuSi_16 1.4627e-04 1 1  ON 46
uuSi_17 -1.6711e-04 1 1  ON 47
uuSi_18 1.9001e-06 1 1  ON 48
uuSi_19 -1.7275e-05 1 1  ON 49
uuSi_20 3.1439e-05 1 1  ON 50
uuSi_21 8.1627e-06 1 1  ON 51
uuSi_22 7.6334e-07 1 1  ON 52
uuSi_23 -7.8054e-06 1 1  ON 53
uuSi_24 -1.0052e-06 1 1  ON 54
uuSi_25 -4.1692e-08 1 1  ON 55
udSi_0 -3.1474e-05 1 1  ON 56
udSi_1 1.1418e-04 1 1  ON 57
udSi_2 -1.0401e-04 1 1  ON 58
udSi_3 1.9156e-04 1 1  ON 59
udSi_4 5.7072e-05 1 1  ON 60
udSi_5 -1.3180e-05 1 1  ON 61
udSi_6 3.1188e-04 1 1  ON 62
udSi_7 -7.4506e-05 1 1  ON 63
udSi_8 -3.2641e-04 1 1  ON 64
udSi_9 -2.2119e-04 1 1  ON 65
udSi_10 6.7048e-05 1 1  ON 66
udSi_11 1.9959e-04 1 1  ON 67
udSi_12 9.9621e-05 1 1  ON 68
udSi_13 -2.4522e-04 1 1  ON 69
udSi_14 -1.0014e-04 1 1  ON 70
udSi_15 -3.1226e-07 1 1  ON 71
udSi_16 3.6296e-04 1 1  ON 72
udSi_17 -2.8674e-04 1 1  ON 73
udSi_18 -9.2727e-05 1 1  ON 74
udSi_19 -3.1061e-05 1 1  ON 75
udSi_20 4.2405e-05 1 1  ON 76
udSi_21 3.3475e-05 1 1  ON 77
udSi_22 -4.7623e-07 1 1  ON 78
udSi_23 -1.3995e-05 1 1  ON 79
udSi_24 -5.0990e-06 1 1  ON 80
udSi_25 4.6619e-07 1 1  ON 81
  </optVariables>
   Restore the number of walkers to 1, removing 0 walkers.
</opt>
</optimization-report>
  QMC Execution time = 4.7116e+00 secs 
  Reusing QMCFixedSampleLinearOptimize
 Using QMCCostFunction::QMCCostFunction

=========================================================
  Start QMCFixedSampleLinearOptimize
  File Root Si.log.s006 append = no 
=========================================================
  Skip QMCDriver::putQMCInfo 
  Resetting Properties of the walkers 1 x 13

=========================================================
  Start VMC
  File Root Si.log.s006 append = no 
=========================================================
Using existing walkers 
  Resetting Properties of the walkers 1 x 13

<vmc function="put">
  qmc_counter=5  my_counter=5
  time step      = 1.5000e-01
  blocks         = 300
  steps          = 2
  substeps       = 5
  current        = 0
  target samples = 5.1200e+05
  walkers/mpi    = 1

  stepsbetweensamples = 1
<parameter name="blocks" condition="int">300</parameter>
<parameter name="blocks_between_recompute" condition="int">0</parameter>
<parameter name="check_properties" condition="int">100</parameter>
<parameter name="checkproperties" condition="int">100</parameter>
<parameter name="current" condition="int">0</parameter>
<parameter name="dmcwalkersperthread" condition="real">5.0000e+02</parameter>
<parameter name="maxcpusecs" condition="real">3.6000e+05</parameter>
<parameter name="record_configs" condition="int">0</parameter>
<parameter name="record_walkers" condition="int">1</parameter>
<parameter name="recordconfigs" condition="int">0</parameter>
<parameter name="recordwalkers" condition="int">1</parameter>
<parameter name="rewind" condition="int">0</parameter>
<parameter name="samples" condition="real">5.1200e+05</parameter>
<parameter name="samplesperthread" condition="real">5.0000e+02</parameter>
<parameter name="steps" condition="int">2</parameter>
<parameter name="stepsbetweensamples" condition="int">1</parameter>
<parameter name="store_configs" condition="int">0</parameter>
<parameter name="storeconfigs" condition="int">0</parameter>
<parameter name="sub_steps" condition="int">5</parameter>
<parameter name="substeps" condition="int">5</parameter>
<parameter name="tau" condition="au">1.5000e-01</parameter>
<parameter name="time_step" condition="au">1.5000e-01</parameter>
<parameter name="timestep" condition="au">1.5000e-01</parameter>
<parameter name="use_drift" condition="string">no</parameter>
<parameter name="usedrift" condition="string">no</parameter>
<parameter name="walkers" condition="int">1</parameter>
<parameter name="warmup_steps" condition="int">0</parameter>
<parameter name="warmupsteps" condition="int">0</parameter>
  DumpConfig==false Nothing (configurations, state) will be saved.
  Walker Samples are dumped every 1 steps.
</vmc>
  EstimatorManagerBase::add replace LocalEnergy estimator.
  EstimatorManagerBase::add replace LocalEnergy estimator.
<optimization-report>
<vmc stage="main" blocks="300">
  Cannot make clones again. Use existing 1 clones
  Initial partition of walkers 0 1 
  Using Particle by Particle moves
  Walker moves without drift
  Total Sample Size   =512000
  Walker distribution on root = 0 1 
  Using Locality Approximation
===== Memory Usage after the buffer registration =====
Available memory on node 0, free + buffers : 83585 MB
Memory footprint by rank 0 on node 0       : 103 MB
==================================================
====================================================
  SimpleFixedNodeBranch::finalize after a VMC block
    QMC counter        = 6
    time step          = 0.15
    reference energy   = -3.76412
    reference variance = 0.0168666
====================================================
  Execution time = 2.6465e+00
</vmc>
<opt stage="setup">
  <log>
   Reading configurations from h5FileRoot Si.log.s006
  QMCCostFunction is created with 1 threads.
  Using Nonlocal PP in Opt: NonLocalECP
   Number of samples loaded to each thread : 500 
  VMC Eavg = -3.7568e+00
  VMC Evar = 1.3355e-02
  Total weights = 5.1200e+05
  Execution time = 1.0633e+00
  </log>
</opt>
<opt stage="main" walkers="512000">
  <log>

*****************************************
Building overlap and Hamiltonian matrices
*****************************************

Among totally 82 optimized parameters, largest LM parameter change : 1.1006e-02 at parameter 25

******************************************************************************
Init Cost =  -3.5683e+00    New Cost =  -3.5683e+00  Delta Cost =  -2.7199e-05
******************************************************************************

The new set of parameters is valid. Updating the trial wave function!

*****************************************************************************
Applying the update for shift_i =   1.0000e-02     and shift_s =   3.9062e-03
*****************************************************************************
  Execution time = 4.7622e+00
  </log>
  <optVariables href="Si.log.s006.opt.xml">
uu_0 7.3058e-01 1 1  ON 0
uu_1 5.2423e-01 1 1  ON 1
uu_2 3.8409e-01 1 1  ON 2
uu_3 2.6775e-01 1 1  ON 3
uu_4 1.7688e-01 1 1  ON 4
uu_5 1.0154e-01 1 1  ON 5
uu_6 3.9750e-02 1 1  ON 6
uu_7 -2.2584e-03 1 1  ON 7
uu_8 -2.7215e-02 1 1  ON 8
uu_9 -3.8607e-02 1 1  ON 9
ud_0 1.1765e+00 1 1  ON 10
ud_1 8.1325e-01 1 1  ON 11
ud_2 5.6659e-01 1 1  ON 12
ud_3 3.7384e-01 1 1  ON 13
ud_4 2.2804e-01 1 1  ON 14
ud_5 1.0403e-01 1 1  ON 15
ud_6 6.7964e-03 1 1  ON 16
ud_7 -5.7052e-02 1 1  ON 17
ud_8 -9.1252e-02 1 1  ON 18
ud_9 -1.0419e-01 1 1  ON 19
eSi_0 -7.5713e-01 1 1  ON 20
eSi_1 -6.6139e-01 1 1  ON 21
eSi_2 -5.6463e-01 1 1  ON 22
eSi_3 -3.4877e-01 1 1  ON 23
eSi_4 -8.6680e-02 1 1  ON 24
eSi_5 1.0593e-01 1 1  ON 25
eSi_6 2.6519e-01 1 1  ON 26
eSi_7 3.8338e-01 1 1  ON 27
eSi_8 4.0629e-01 1 1  ON 28
eSi_9 3.8895e-01 1 1  ON 29
uuSi_0 -1.4868e-05 1 1  ON 30
uuSi_1 3.3851e-05 1 1  ON 31
uuSi_2 -4.1764e-05 1 1  ON 32
uuSi_3 1.0150e-04 1 1  ON 33
uuSi_4 2.7716e-05 1 1  ON 34
uuSi_5 -1.6545e-06 1 1  ON 35
uuSi_6 1.0027e-04 1 1  ON 36
uuSi_7 -8.3714e-06 1 1  ON 37
uuSi_8 -1.3510e-04 1 1  ON 38
uuSi_9 -6.5374e-05 1 1  ON 39
uuSi_10 4.5403e-05 1 1  ON 40
uuSi_11 5.2475e-05 1 1  ON 41
uuSi_12 4.3341e-05 1 1  ON 42
uuSi_13 -1.4467e-04 1 1  ON 43
uuSi_14 -4.3143e-05 1 1  ON 44
uuSi_15 -1.2964e-07 1 1  ON 45
uuSi_16 1.5745e-04 1 1  ON 46
uuSi_17 -1.7263e-04 1 1  ON 47
uuSi_18 3.1891e-06 1 1  ON 48
uuSi_19 -1.7818e-05 1 1  ON 49
uuSi_20 3.0490e-05 1 1  ON 50
uuSi_21 8.2829e-06 1 1  ON 51
uuSi_22 7.7439e-07 1 1  ON 52
uuSi_23 -7.9265e-06 1 1  ON 53
uuSi_24 -1.0073e-06 1 1  ON 54
uuSi_25 -3.9496e-08 1 1  ON 55
udSi_0 -3.7177e-05 1 1  ON 56
udSi_1 6.9565e-05 1 1  ON 57
udSi_2 -1.0778e-04 1 1  ON 58
udSi_3 2.1532e-04 1 1  ON 59
udSi_4 6.2338e-05 1 1  ON 60
udSi_5 -9.2431e-06 1 1  ON 61
udSi_6 2.4866e-04 1 1  ON 62
udSi_7 -2.9876e-05 1 1  ON 63
udSi_8 -3.3289e-04 1 1  ON 64
udSi_9 -1.8451e-04 1 1  ON 65
udSi_10 8.7330e-05 1 1  ON 66
udSi_11 1.7641e-04 1 1  ON 67
udSi_12 1.0408e-04 1 1  ON 68
udSi_13 -2.7334e-04 1 1  ON 69
udSi_14 -1.0114e-04 1 1  ON 70
udSi_15 -5.8882e-07 1 1  ON 71
udSi_16 3.3919e-04 1 1  ON 72
udSi_17 -3.1348e-04 1 1  ON 73
udSi_18 -7.2630e-05 1 1  ON 74
udSi_19 -3.4513e-05 1 1  ON 75
udSi_20 5.5188e-05 1 1  ON 76
udSi_21 3.1019e-05 1 1  ON 77
udSi_22 1.4752e-08 1 1  ON 78
udSi_23 -1.7272e-05 1 1  ON 79
udSi_24 -4.5382e-06 1 1  ON 80
udSi_25 3.6563e-07 1 1  ON 81
  </optVariables>
   Restore the number of walkers to 1, removing 0 walkers.
</opt>
</optimization-report>
  QMC Execution time = 4.7750e+00 secs 
  Reusing QMCFixedSampleLinearOptimize
 Using QMCCostFunction::QMCCostFunction

=========================================================
  Start QMCFixedSampleLinearOptimize
  File Root Si.log.s007 append = no 
=========================================================
  Skip QMCDriver::putQMCInfo 
  Resetting Properties of the walkers 1 x 13

=========================================================
  Start VMC
  File Root Si.log.s007 append = no 
=========================================================
Using existing walkers 
  Resetting Properties of the walkers 1 x 13

<vmc function="put">
  qmc_counter=6  my_counter=6
  time step      = 1.5000e-01
  blocks         = 300
  steps          = 2
  substeps       = 5
  current        = 0
  target samples = 5.1200e+05
  walkers/mpi    = 1

  stepsbetweensamples = 1
<parameter name="blocks" condition="int">300</parameter>
<parameter name="blocks_between_recompute" condition="int">0</parameter>
<parameter name="check_properties" condition="int">100</parameter>
<parameter name="checkproperties" condition="int">100</parameter>
<parameter name="current" condition="int">0</parameter>
<parameter name="dmcwalkersperthread" condition="real">5.0000e+02</parameter>
<parameter name="maxcpusecs" condition="real">3.6000e+05</parameter>
<parameter name="record_configs" condition="int">0</parameter>
<parameter name="record_walkers" condition="int">1</parameter>
<parameter name="recordconfigs" condition="int">0</parameter>
<parameter name="recordwalkers" condition="int">1</parameter>
<parameter name="rewind" condition="int">0</parameter>
<parameter name="samples" condition="real">5.1200e+05</parameter>
<parameter name="samplesperthread" condition="real">5.0000e+02</parameter>
<parameter name="steps" condition="int">2</parameter>
<parameter name="stepsbetweensamples" condition="int">1</parameter>
<parameter name="store_configs" condition="int">0</parameter>
<parameter name="storeconfigs" condition="int">0</parameter>
<parameter name="sub_steps" condition="int">5</parameter>
<parameter name="substeps" condition="int">5</parameter>
<parameter name="tau" condition="au">1.5000e-01</parameter>
<parameter name="time_step" condition="au">1.5000e-01</parameter>
<parameter name="timestep" condition="au">1.5000e-01</parameter>
<parameter name="use_drift" condition="string">no</parameter>
<parameter name="usedrift" condition="string">no</parameter>
<parameter name="walkers" condition="int">1</parameter>
<parameter name="warmup_steps" condition="int">0</parameter>
<parameter name="warmupsteps" condition="int">0</parameter>
  DumpConfig==false Nothing (configurations, state) will be saved.
  Walker Samples are dumped every 1 steps.
</vmc>
  EstimatorManagerBase::add replace LocalEnergy estimator.
  EstimatorManagerBase::add replace LocalEnergy estimator.
<optimization-report>
<vmc stage="main" blocks="300">
  Cannot make clones again. Use existing 1 clones
  Initial partition of walkers 0 1 
  Using Particle by Particle moves
  Walker moves without drift
  Total Sample Size   =512000
  Walker distribution on root = 0 1 
  Using Locality Approximation
===== Memory Usage after the buffer registration =====
Available memory on node 0, free + buffers : 83582 MB
Memory footprint by rank 0 on node 0       : 105 MB
==================================================
====================================================
  SimpleFixedNodeBranch::finalize after a VMC block
    QMC counter        = 7
    time step          = 0.15
    reference energy   = -3.75782
    reference variance = 0.00943208
====================================================
  Execution time = 2.6468e+00
</vmc>
<opt stage="setup">
  <log>
   Reading configurations from h5FileRoot Si.log.s007
  QMCCostFunction is created with 1 threads.
  Using Nonlocal PP in Opt: NonLocalECP
   Number of samples loaded to each thread : 500 
  VMC Eavg = -3.7569e+00
  VMC Evar = 1.3110e-02
  Total weights = 5.1200e+05
  Execution time = 9.7477e-01
  </log>
</opt>
<opt stage="main" walkers="512000">
  <log>

*****************************************
Building overlap and Hamiltonian matrices
*****************************************

Among totally 82 optimized parameters, largest LM parameter change : 8.9413e-03 at parameter 27

******************************************************************************
Init Cost =  -3.5684e+00    New Cost =  -3.5684e+00  Delta Cost =  -2.6950e-05
******************************************************************************

The new set of parameters is valid. Updating the trial wave function!

*****************************************************************************
Applying the update for shift_i =   1.0000e-02     and shift_s =   3.9062e-03
*****************************************************************************
  Execution time = 4.6439e+00
  </log>
  <optVariables href="Si.log.s007.opt.xml">
uu_0 7.2957e-01 1 1  ON 0
uu_1 5.2345e-01 1 1  ON 1
uu_2 3.8477e-01 1 1  ON 2
uu_3 2.6918e-01 1 1  ON 3
uu_4 1.7890e-01 1 1  ON 4
uu_5 1.0381e-01 1 1  ON 5
uu_6 4.1949e-02 1 1  ON 6
uu_7 -1.9356e-04 1 1  ON 7
uu_8 -2.5726e-02 1 1  ON 8
uu_9 -3.7664e-02 1 1  ON 9
ud_0 1.1850e+00 1 1  ON 10
ud_1 8.2130e-01 1 1  ON 11
ud_2 5.7372e-01 1 1  ON 12
ud_3 3.8043e-01 1 1  ON 13
ud_4 2.3435e-01 1 1  ON 14
ud_5 1.1068e-01 1 1  ON 15
ud_6 1.3893e-02 1 1  ON 16
ud_7 -5.0013e-02 1 1  ON 17
ud_8 -8.5401e-02 1 1  ON 18
ud_9 -1.0055e-01 1 1  ON 19
eSi_0 -7.5436e-01 1 1  ON 20
eSi_1 -6.6675e-01 1 1  ON 21
eSi_2 -5.7113e-01 1 1  ON 22
eSi_3 -3.5483e-01 1 1  ON 23
eSi_4 -9.3843e-02 1 1  ON 24
eSi_5 9.7986e-02 1 1  ON 25
eSi_6 2.5826e-01 1 1  ON 26
eSi_7 3.7444e-01 1 1  ON 27
eSi_8 3.9906e-01 1 1  ON 28
eSi_9 3.8750e-01 1 1  ON 29
uuSi_0 -1.9796e-05 1 1  ON 30
uuSi_1 1.9486e-05 1 1  ON 31
uuSi_2 -3.0772e-05 1 1  ON 32
uuSi_3 1.1485e-04 1 1  ON 33
uuSi_4 2.8560e-05 1 1  ON 34
uuSi_5 5.4617e-07 1 1  ON 35
uuSi_6 8.9293e-05 1 1  ON 36
uuSi_7 2.0378e-05 1 1  ON 37
uuSi_8 -1.2701e-04 1 1  ON 38
uuSi_9 -6.5883e-05 1 1  ON 39
uuSi_10 5.7416e-05 1 1  ON 40
uuSi_11 2.7053e-05 1 1  ON 41
uuSi_12 4.3778e-05 1 1  ON 42
uuSi_13 -1.5616e-04 1 1  ON 43
uuSi_14 -4.1867e-05 1 1  ON 44
uuSi_15 -2.7404e-07 1 1  ON 45
uuSi_16 1.6838e-04 1 1  ON 46
uuSi_17 -1.9124e-04 1 1  ON 47
uuSi_18 2.1440e-05 1 1  ON 48
uuSi_19 -1.9682e-05 1 1  ON 49
uuSi_20 3.2057e-05 1 1  ON 50
uuSi_21 6.2164e-06 1 1  ON 51
uuSi_22 1.0992e-06 1 1  ON 52
uuSi_23 -8.2821e-06 1 1  ON 53
uuSi_24 -6.9621e-07 1 1  ON 54
uuSi_25 -1.0011e-07 1 1  ON 55
udSi_0 -4.3659e-05 1 1  ON 56
udSi_1 5.7152e-05 1 1  ON 57
udSi_2 -1.1177e-04 1 1  ON 58
udSi_3 2.2402e-04 1 1  ON 59
udSi_4 6.4708e-05 1 1  ON 60
udSi_5 -9.5781e-06 1 1  ON 61
udSi_6 2.3264e-04 1 1  ON 62
udSi_7 -2.6046e-05 1 1  ON 63
udSi_8 -3.4216e-04 1 1  ON 64
udSi_9 -1.6310e-04 1 1  ON 65
udSi_10 9.2884e-05 1 1  ON 66
udSi_11 1.8018e-04 1 1  ON 67
udSi_12 1.0659e-04 1 1  ON 68
udSi_13 -2.8877e-04 1 1  ON 69
udSi_14 -1.0354e-04 1 1  ON 70
udSi_15 -5.8115e-07 1 1  ON 71
udSi_16 3.1796e-04 1 1  ON 72
udSi_17 -3.2257e-04 1 1  ON 73
udSi_18 -7.3484e-05 1 1  ON 74
udSi_19 -3.5186e-05 1 1  ON 75
udSi_20 6.5013e-05 1 1  ON 76
udSi_21 3.1347e-05 1 1  ON 77
udSi_22 5.1293e-09 1 1  ON 78
udSi_23 -2.0024e-05 1 1  ON 79
udSi_24 -4.4809e-06 1 1  ON 80
udSi_25 3.6863e-07 1 1  ON 81
  </optVariables>
   Restore the number of walkers to 1, removing 0 walkers.
</opt>
</optimization-report>
  QMC Execution time = 4.6578e+00 secs 
  Reusing QMCFixedSampleLinearOptimize
 Using QMCCostFunction::QMCCostFunction

=========================================================
  Start QMCFixedSampleLinearOptimize
  File Root Si.log.s008 append = no 
=========================================================
  Skip QMCDriver::putQMCInfo 
  Resetting Properties of the walkers 1 x 13

=========================================================
  Start VMC
  File Root Si.log.s008 append = no 
=========================================================
Using existing walkers 
  Resetting Properties of the walkers 1 x 13

<vmc function="put">
  qmc_counter=7  my_counter=7
  time step      = 1.5000e-01
  blocks         = 300
  steps          = 2
  substeps       = 5
  current        = 0
  target samples = 5.1200e+05
  walkers/mpi    = 1

  stepsbetweensamples = 1
<parameter name="blocks" condition="int">300</parameter>
<parameter name="blocks_between_recompute" condition="int">0</parameter>
<parameter name="check_properties" condition="int">100</parameter>
<parameter name="checkproperties" condition="int">100</parameter>
<parameter name="current" condition="int">0</parameter>
<parameter name="dmcwalkersperthread" condition="real">5.0000e+02</parameter>
<parameter name="maxcpusecs" condition="real">3.6000e+05</parameter>
<parameter name="record_configs" condition="int">0</parameter>
<parameter name="record_walkers" condition="int">1</parameter>
<parameter name="recordconfigs" condition="int">0</parameter>
<parameter name="recordwalkers" condition="int">1</parameter>
<parameter name="rewind" condition="int">0</parameter>
<parameter name="samples" condition="real">5.1200e+05</parameter>
<parameter name="samplesperthread" condition="real">5.0000e+02</parameter>
<parameter name="steps" condition="int">2</parameter>
<parameter name="stepsbetweensamples" condition="int">1</parameter>
<parameter name="store_configs" condition="int">0</parameter>
<parameter name="storeconfigs" condition="int">0</parameter>
<parameter name="sub_steps" condition="int">5</parameter>
<parameter name="substeps" condition="int">5</parameter>
<parameter name="tau" condition="au">1.5000e-01</parameter>
<parameter name="time_step" condition="au">1.5000e-01</parameter>
<parameter name="timestep" condition="au">1.5000e-01</parameter>
<parameter name="use_drift" condition="string">no</parameter>
<parameter name="usedrift" condition="string">no</parameter>
<parameter name="walkers" condition="int">1</parameter>
<parameter name="warmup_steps" condition="int">0</parameter>
<parameter name="warmupsteps" condition="int">0</parameter>
  DumpConfig==false Nothing (configurations, state) will be saved.
  Walker Samples are dumped every 1 steps.
</vmc>
  EstimatorManagerBase::add replace LocalEnergy estimator.
  EstimatorManagerBase::add replace LocalEnergy estimator.
<optimization-report>
<vmc stage="main" blocks="300">
  Cannot make clones again. Use existing 1 clones
  Initial partition of walkers 0 1 
  Using Particle by Particle moves
  Walker moves without drift
  Total Sample Size   =512000
  Walker distribution on root = 0 1 
  Using Locality Approximation
===== Memory Usage after the buffer registration =====
Available memory on node 0, free + buffers : 83579 MB
Memory footprint by rank 0 on node 0       : 107 MB
==================================================
====================================================
  SimpleFixedNodeBranch::finalize after a VMC block
    QMC counter        = 8
    time step          = 0.15
    reference energy   = -3.75593
    reference variance = 0.00834072
====================================================
  Execution time = 2.6302e+00
</vmc>
<opt stage="setup">
  <log>
   Reading configurations from h5FileRoot Si.log.s008
  QMCCostFunction is created with 1 threads.
  Using Nonlocal PP in Opt: NonLocalECP
   Number of samples loaded to each thread : 500 
  VMC Eavg = -3.7569e+00
  VMC Evar = 1.3309e-02
  Total weights = 5.1200e+05
  Execution time = 1.0492e+00
  </log>
</opt>
<opt stage="main" walkers="512000">
  <log>

*****************************************
Building overlap and Hamiltonian matrices
*****************************************

Among totally 82 optimized parameters, largest LM parameter change : 9.1201e-03 at parameter 25

******************************************************************************
Init Cost =  -3.5684e+00    New Cost =  -3.5684e+00  Delta Cost =  -1.5938e-05
******************************************************************************

The new set of parameters is valid. Updating the trial wave function!

*****************************************************************************
Applying the update for shift_i =   1.0000e-02     and shift_s =   3.9062e-03
*****************************************************************************
  Execution time = 4.7957e+00
  </log>
  <optVariables href="Si.log.s008.opt.xml">
uu_0 7.2815e-01 1 1  ON 0
uu_1 5.2380e-01 1 1  ON 1
uu_2 3.8536e-01 1 1  ON 2
uu_3 2.7038e-01 1 1  ON 3
uu_4 1.7985e-01 1 1  ON 4
uu_5 1.0451e-01 1 1  ON 5
uu_6 4.2905e-02 1 1  ON 6
uu_7 5.3624e-04 1 1  ON 7
uu_8 -2.5201e-02 1 1  ON 8
uu_9 -3.8123e-02 1 1  ON 9
ud_0 1.1929e+00 1 1  ON 10
ud_1 8.2829e-01 1 1  ON 11
ud_2 5.8047e-01 1 1  ON 12
ud_3 3.8677e-01 1 1  ON 13
ud_4 2.4024e-01 1 1  ON 14
ud_5 1.1581e-01 1 1  ON 15
ud_6 1.8298e-02 1 1  ON 16
ud_7 -4.5580e-02 1 1  ON 17
ud_8 -8.0297e-02 1 1  ON 18
ud_9 -9.4992e-02 1 1  ON 19
eSi_0 -7.5320e-01 1 1  ON 20
eSi_1 -6.7219e-01 1 1  ON 21
eSi_2 -5.7782e-01 1 1  ON 22
eSi_3 -3.6133e-01 1 1  ON 23
eSi_4 -1.0099e-01 1 1  ON 24
eSi_5 8.8866e-02 1 1  ON 25
eSi_6 2.5030e-01 1 1  ON 26
eSi_7 3.6711e-01 1 1  ON 27
eSi_8 3.9360e-01 1 1  ON 28
eSi_9 3.8722e-01 1 1  ON 29
uuSi_0 -2.1057e-05 1 1  ON 30
uuSi_1 2.0826e-05 1 1  ON 31
uuSi_2 -3.0763e-05 1 1  ON 32
uuSi_3 1.1683e-04 1 1  ON 33
uuSi_4 2.8859e-05 1 1  ON 34
uuSi_5 3.3961e-07 1 1  ON 35
uuSi_6 9.7086e-05 1 1  ON 36
uuSi_7 1.2261e-05 1 1  ON 37
uuSi_8 -1.2962e-04 1 1  ON 38
uuSi_9 -6.9125e-05 1 1  ON 39
uuSi_10 5.7836e-05 1 1  ON 40
uuSi_11 3.2683e-05 1 1  ON 41
uuSi_12 4.4051e-05 1 1  ON 42
uuSi_13 -1.5572e-04 1 1  ON 43
uuSi_14 -4.2500e-05 1 1  ON 44
uuSi_15 -2.5048e-07 1 1  ON 45
uuSi_16 1.6811e-04 1 1  ON 46
uuSi_17 -1.8877e-04 1 1  ON 47
uuSi_18 1.6245e-05 1 1  ON 48
uuSi_19 -1.9231e-05 1 1  ON 49
uuSi_20 3.2354e-05 1 1  ON 50
uuSi_21 6.9967e-06 1 1  ON 51
uuSi_22 9.9366e-07 1 1  ON 52
uuSi_23 -8.4988e-06 1 1  ON 53
uuSi_24 -8.3459e-07 1 1  ON 54
uuSi_25 -7.6801e-08 1 1  ON 55
udSi_0 -4.5556e-05 1 1  ON 56
udSi_1 8.4895e-05 1 1  ON 57
udSi_2 -9.8999e-05 1 1  ON 58
udSi_3 2.1289e-04 1 1  ON 59
udSi_4 6.0907e-05 1 1  ON 60
udSi_5 -1.1802e-05 1 1  ON 61
udSi_6 2.7692e-04 1 1  ON 62
udSi_7 -3.8568e-05 1 1  ON 63
udSi_8 -3.3173e-04 1 1  ON 64
udSi_9 -1.9060e-04 1 1  ON 65
udSi_10 8.4703e-05 1 1  ON 66
udSi_11 1.8046e-04 1 1  ON 67
udSi_12 1.0391e-04 1 1  ON 68
udSi_13 -2.7624e-04 1 1  ON 69
udSi_14 -1.0255e-04 1 1  ON 70
udSi_15 -4.5247e-07 1 1  ON 71
udSi_16 3.4219e-04 1 1  ON 72
udSi_17 -3.1695e-04 1 1  ON 73
udSi_18 -7.5797e-05 1 1  ON 74
udSi_19 -3.4190e-05 1 1  ON 75
udSi_20 5.7518e-05 1 1  ON 76
udSi_21 3.1906e-05 1 1  ON 77
udSi_22 -1.2121e-07 1 1  ON 78
udSi_23 -1.8321e-05 1 1  ON 79
udSi_24 -4.6956e-06 1 1  ON 80
udSi_25 3.9890e-07 1 1  ON 81
  </optVariables>
   Restore the number of walkers to 1, removing 0 walkers.
</opt>
</optimization-report>
  QMC Execution time = 4.8094e+00 secs 
  Reusing QMCFixedSampleLinearOptimize
 Using QMCCostFunction::QMCCostFunction

=========================================================
  Start QMCFixedSampleLinearOptimize
  File Root Si.log.s009 append = no 
=========================================================
  Skip QMCDriver::putQMCInfo 
  Resetting Properties of the walkers 1 x 13

=========================================================
  Start VMC
  File Root Si.log.s009 append = no 
=========================================================
Using existing walkers 
  Resetting Properties of the walkers 1 x 13

<vmc function="put">
  qmc_counter=8  my_counter=8
  time step      = 1.5000e-01
  blocks         = 300
  steps          = 2
  substeps       = 5
  current        = 0
  target samples = 5.1200e+05
  walkers/mpi    = 1

  stepsbetweensamples = 1
<parameter name="blocks" condition="int">300</parameter>
<parameter name="blocks_between_recompute" condition="int">0</parameter>
<parameter name="check_properties" condition="int">100</parameter>
<parameter name="checkproperties" condition="int">100</parameter>
<parameter name="current" condition="int">0</parameter>
<parameter name="dmcwalkersperthread" condition="real">5.0000e+02</parameter>
<parameter name="maxcpusecs" condition="real">3.6000e+05</parameter>
<parameter name="record_configs" condition="int">0</parameter>
<parameter name="record_walkers" condition="int">1</parameter>
<parameter name="recordconfigs" condition="int">0</parameter>
<parameter name="recordwalkers" condition="int">1</parameter>
<parameter name="rewind" condition="int">0</parameter>
<parameter name="samples" condition="real">5.1200e+05</parameter>
<parameter name="samplesperthread" condition="real">5.0000e+02</parameter>
<parameter name="steps" condition="int">2</parameter>
<parameter name="stepsbetweensamples" condition="int">1</parameter>
<parameter name="store_configs" condition="int">0</parameter>
<parameter name="storeconfigs" condition="int">0</parameter>
<parameter name="sub_steps" condition="int">5</parameter>
<parameter name="substeps" condition="int">5</parameter>
<parameter name="tau" condition="au">1.5000e-01</parameter>
<parameter name="time_step" condition="au">1.5000e-01</parameter>
<parameter name="timestep" condition="au">1.5000e-01</parameter>
<parameter name="use_drift" condition="string">no</parameter>
<parameter name="usedrift" condition="string">no</parameter>
<parameter name="walkers" condition="int">1</parameter>
<parameter name="warmup_steps" condition="int">0</parameter>
<parameter name="warmupsteps" condition="int">0</parameter>
  DumpConfig==false Nothing (configurations, state) will be saved.
  Walker Samples are dumped every 1 steps.
</vmc>
  EstimatorManagerBase::add replace LocalEnergy estimator.
  EstimatorManagerBase::add replace LocalEnergy estimator.
<optimization-report>
<vmc stage="main" blocks="300">
  Cannot make clones again. Use existing 1 clones
  Initial partition of walkers 0 1 
  Using Particle by Particle moves
  Walker moves without drift
  Total Sample Size   =512000
  Walker distribution on root = 0 1 
  Using Locality Approximation
===== Memory Usage after the buffer registration =====
Available memory on node 0, free + buffers : 83576 MB
Memory footprint by rank 0 on node 0       : 109 MB
==================================================
====================================================
  SimpleFixedNodeBranch::finalize after a VMC block
    QMC counter        = 9
    time step          = 0.15
    reference energy   = -3.75606
    reference variance = 0.00986824
====================================================
  Execution time = 2.6370e+00
</vmc>
<opt stage="setup">
  <log>
   Reading configurations from h5FileRoot Si.log.s009
  QMCCostFunction is created with 1 threads.
  Using Nonlocal PP in Opt: NonLocalECP
   Number of samples loaded to each thread : 500 
  VMC Eavg = -3.7570e+00
  VMC Evar = 1.4712e-02
  Total weights = 5.1200e+05
  Execution time = 7.9591e-01
  </log>
</opt>
<opt stage="main" walkers="512000">
  <log>

*****************************************
Building overlap and Hamiltonian matrices
*****************************************

Among totally 82 optimized parameters, largest LM parameter change : 7.8684e-03 at parameter 10

******************************************************************************
Init Cost =  -3.5684e+00    New Cost =  -3.5684e+00  Delta Cost =  -1.7655e-05
******************************************************************************

The new set of parameters is valid. Updating the trial wave function!

*****************************************************************************
Applying the update for shift_i =   1.0000e-02     and shift_s =   3.9062e-03
*****************************************************************************
  Execution time = 4.2907e+00
  </log>
  <optVariables href="Si.log.s009.opt.xml">
uu_0 7.2727e-01 1 1  ON 0
uu_1 5.2400e-01 1 1  ON 1
uu_2 3.8559e-01 1 1  ON 2
uu_3 2.7059e-01 1 1  ON 3
uu_4 1.8022e-01 1 1  ON 4
uu_5 1.0489e-01 1 1  ON 5
uu_6 4.3275e-02 1 1  ON 6
uu_7 1.3868e-03 1 1  ON 7
uu_8 -2.3546e-02 1 1  ON 8
uu_9 -3.6478e-02 1 1  ON 9
ud_0 1.2008e+00 1 1  ON 10
ud_1 8.3543e-01 1 1  ON 11
ud_2 5.8731e-01 1 1  ON 12
ud_3 3.9395e-01 1 1  ON 13
ud_4 2.4748e-01 1 1  ON 14
ud_5 1.2310e-01 1 1  ON 15
ud_6 2.5897e-02 1 1  ON 16
ud_7 -3.8188e-02 1 1  ON 17
ud_8 -7.3907e-02 1 1  ON 18
ud_9 -8.9544e-02 1 1  ON 19
eSi_0 -7.5174e-01 1 1  ON 20
eSi_1 -6.7819e-01 1 1  ON 21
eSi_2 -5.8421e-01 1 1  ON 22
eSi_3 -3.6819e-01 1 1  ON 23
eSi_4 -1.0845e-01 1 1  ON 24
eSi_5 8.2697e-02 1 1  ON 25
eSi_6 2.4312e-01 1 1  ON 26
eSi_7 3.6045e-01 1 1  ON 27
eSi_8 3.8694e-01 1 1  ON 28
eSi_9 3.8323e-01 1 1  ON 29
uuSi_0 -2.9554e-05 1 1  ON 30
uuSi_1 -2.7851e-05 1 1  ON 31
uuSi_2 -4.2189e-05 1 1  ON 32
uuSi_3 1.3596e-04 1 1  ON 33
uuSi_4 3.2944e-05 1 1  ON 34
uuSi_5 3.3442e-06 1 1  ON 35
uuSi_6 2.3428e-05 1 1  ON 36
uuSi_7 5.1588e-05 1 1  ON 37
uuSi_8 -1.4097e-04 1 1  ON 38
uuSi_9 -1.2854e-05 1 1  ON 39
uuSi_10 7.0843e-05 1 1  ON 40
uuSi_11 2.1451e-05 1 1  ON 41
uuSi_12 4.7714e-05 1 1  ON 42
uuSi_13 -1.8755e-04 1 1  ON 43
uuSi_14 -4.4017e-05 1 1  ON 44
uuSi_15 -3.9340e-07 1 1  ON 45
uuSi_16 1.3167e-04 1 1  ON 46
uuSi_17 -2.1118e-04 1 1  ON 47
uuSi_18 2.8974e-05 1 1  ON 48
uuSi_19 -2.1401e-05 1 1  ON 49
uuSi_20 4.7227e-05 1 1  ON 50
uuSi_21 5.3165e-06 1 1  ON 51
uuSi_22 1.2806e-06 1 1  ON 52
uuSi_23 -1.1737e-05 1 1  ON 53
uuSi_24 -4.0785e-07 1 1  ON 54
uuSi_25 -1.3834e-07 1 1  ON 55
udSi_0 -3.6783e-05 1 1  ON 56
udSi_1 8.4211e-05 1 1  ON 57
udSi_2 -1.0569e-04 1 1  ON 58
udSi_3 2.1256e-04 1 1  ON 59
udSi_4 6.2024e-05 1 1  ON 60
udSi_5 -1.1001e-05 1 1  ON 61
udSi_6 2.7360e-04 1 1  ON 62
udSi_7 -4.5369e-05 1 1  ON 63
udSi_8 -3.3718e-04 1 1  ON 64
udSi_9 -1.9927e-04 1 1  ON 65
udSi_10 8.4929e-05 1 1  ON 66
udSi_11 1.8540e-04 1 1  ON 67
udSi_12 1.0500e-04 1 1  ON 68
udSi_13 -2.7209e-04 1 1  ON 69
udSi_14 -1.0341e-04 1 1  ON 70
udSi_15 -4.7111e-07 1 1  ON 71
udSi_16 3.5403e-04 1 1  ON 72
udSi_17 -3.1568e-04 1 1  ON 73
udSi_18 -7.9207e-05 1 1  ON 74
udSi_19 -3.4221e-05 1 1  ON 75
udSi_20 5.3778e-05 1 1  ON 76
udSi_21 3.2622e-05 1 1  ON 77
udSi_22 -1.8457e-07 1 1  ON 78
udSi_23 -1.7473e-05 1 1  ON 79
udSi_24 -4.8563e-06 1 1  ON 80
udSi_25 4.1984e-07 1 1  ON 81
  </optVariables>
[...]
    reference variance = 0.018284
====================================================
  Execution time = 2.6369e+00
</vmc>
<opt stage="setup">
  <log>
   Reading configurations from h5FileRoot Si.log.s020
  QMCCostFunction is created with 1 threads.
  Using Nonlocal PP in Opt: NonLocalECP
   Number of samples loaded to each thread : 500 
  VMC Eavg = -3.7567e+00
  VMC Evar = 1.3044e-02
  Total weights = 5.1200e+05
  Execution time = 7.6910e-01
  </log>
</opt>
<opt stage="main" walkers="512000">
  <log>

*****************************************
Building overlap and Hamiltonian matrices
*****************************************

Among totally 82 optimized parameters, largest LM parameter change : 6.7825e-03 at parameter 22

******************************************************************************
Init Cost =  -3.5682e+00    New Cost =  -3.5682e+00  Delta Cost =  -4.4010e-06
******************************************************************************

The new set of parameters is valid. Updating the trial wave function!

*****************************************************************************
Applying the update for shift_i =   1.0000e-02     and shift_s =   3.9062e-03
*****************************************************************************
  Execution time = 4.2261e+00
  </log>
  <optVariables href="Si.log.s020.opt.xml">
uu_0 7.2534e-01 1 1  ON 0
uu_1 5.2914e-01 1 1  ON 1
uu_2 3.9192e-01 1 1  ON 2
uu_3 2.7830e-01 1 1  ON 3
uu_4 1.8836e-01 1 1  ON 4
uu_5 1.1286e-01 1 1  ON 5
uu_6 5.0632e-02 1 1  ON 6
uu_7 8.0337e-03 1 1  ON 7
uu_8 -1.8437e-02 1 1  ON 8
uu_9 -3.2079e-02 1 1  ON 9
ud_0 1.2589e+00 1 1  ON 10
ud_1 8.9176e-01 1 1  ON 11
ud_2 6.3945e-01 1 1  ON 12
ud_3 4.4242e-01 1 1  ON 13
ud_4 2.9376e-01 1 1  ON 14
ud_5 1.6867e-01 1 1  ON 15
ud_6 7.0419e-02 1 1  ON 16
ud_7 5.1101e-03 1 1  ON 17
ud_8 -3.5020e-02 1 1  ON 18
ud_9 -5.2870e-02 1 1  ON 19
eSi_0 -7.8614e-01 1 1  ON 20
eSi_1 -7.3909e-01 1 1  ON 21
eSi_2 -6.4761e-01 1 1  ON 22
eSi_3 -4.2581e-01 1 1  ON 23
eSi_4 -1.6575e-01 1 1  ON 24
eSi_5 2.2726e-02 1 1  ON 25
eSi_6 1.8816e-01 1 1  ON 26
eSi_7 3.1056e-01 1 1  ON 27
eSi_8 3.4266e-01 1 1  ON 28
eSi_9 3.5405e-01 1 1  ON 29
uuSi_0 -2.6349e-05 1 1  ON 30
uuSi_1 1.4439e-05 1 1  ON 31
uuSi_2 -3.2500e-05 1 1  ON 32
uuSi_3 1.1455e-04 1 1  ON 33
uuSi_4 2.6541e-05 1 1  ON 34
uuSi_5 4.2826e-07 1 1  ON 35
uuSi_6 8.1848e-05 1 1  ON 36
uuSi_7 3.0343e-05 1 1  ON 37
uuSi_8 -1.2600e-04 1 1  ON 38
uuSi_9 -5.1396e-05 1 1  ON 39
uuSi_10 5.3003e-05 1 1  ON 40
uuSi_11 2.9048e-05 1 1  ON 41
uuSi_12 4.2095e-05 1 1  ON 42
uuSi_13 -1.6215e-04 1 1  ON 43
uuSi_14 -4.0453e-05 1 1  ON 44
uuSi_15 -2.6419e-07 1 1  ON 45
uuSi_16 1.5649e-04 1 1  ON 46
uuSi_17 -1.8727e-04 1 1  ON 47
uuSi_18 1.7802e-05 1 1  ON 48
uuSi_19 -1.8523e-05 1 1  ON 49
uuSi_20 3.6724e-05 1 1  ON 50
uuSi_21 6.3016e-06 1 1  ON 51
uuSi_22 1.0165e-06 1 1  ON 52
uuSi_23 -9.7010e-06 1 1  ON 53
uuSi_24 -7.0827e-07 1 1  ON 54
uuSi_25 -9.4678e-08 1 1  ON 55
udSi_0 -5.2520e-05 1 1  ON 56
udSi_1 7.9222e-05 1 1  ON 57
udSi_2 -9.1848e-05 1 1  ON 58
udSi_3 2.2361e-04 1 1  ON 59
udSi_4 6.0657e-05 1 1  ON 60
udSi_5 -1.2613e-05 1 1  ON 61
udSi_6 2.8733e-04 1 1  ON 62
udSi_7 -3.5215e-05 1 1  ON 63
udSi_8 -3.3226e-04 1 1  ON 64
udSi_9 -1.9208e-04 1 1  ON 65
udSi_10 9.0368e-05 1 1  ON 66
udSi_11 1.7397e-04 1 1  ON 67
udSi_12 1.0417e-04 1 1  ON 68
udSi_13 -2.9196e-04 1 1  ON 69
udSi_14 -1.0363e-04 1 1  ON 70
udSi_15 -3.7412e-07 1 1  ON 71
udSi_16 3.6061e-04 1 1  ON 72
udSi_17 -3.3641e-04 1 1  ON 73
udSi_18 -6.8399e-05 1 1  ON 74
udSi_19 -3.4590e-05 1 1  ON 75
udSi_20 6.0104e-05 1 1  ON 76
udSi_21 3.1493e-05 1 1  ON 77
udSi_22 -1.0423e-07 1 1  ON 78
udSi_23 -1.9499e-05 1 1  ON 79
udSi_24 -4.6390e-06 1 1  ON 80
udSi_25 3.9683e-07 1 1  ON 81
  </optVariables>
   Restore the number of walkers to 1, removing 0 walkers.
</opt>
</optimization-report>
  QMC Execution time = 4.2417e+00 secs 

=========================================================
  Start VMC
  File Root Si.log.s021 append = no 
=========================================================
  Using the current 1 walkers.
  Total number of walkers: 1.0240e+03
  Total weight: 1.0240e+03
  Resetting Properties of the walkers 1 x 13

<vmc function="put">
  qmc_counter=0  my_counter=0
  time step      = 1.5000e-01
  blocks         = 200
  steps          = 1
  substeps       = 30
  current        = 0
  target samples = 4.0960e+03
  walkers/mpi    = 1

  stepsbetweensamples = 50
<parameter name="blocks" condition="int">200</parameter>
<parameter name="blocks_between_recompute" condition="int">0</parameter>
<parameter name="check_properties" condition="int">100</parameter>
<parameter name="checkproperties" condition="int">100</parameter>
<parameter name="current" condition="int">0</parameter>
<parameter name="dmcwalkersperthread" condition="real">4.0000e+00</parameter>
<parameter name="maxcpusecs" condition="real">3.6000e+05</parameter>
<parameter name="record_configs" condition="int">0</parameter>
<parameter name="record_walkers" condition="int">50</parameter>
<parameter name="recordconfigs" condition="int">0</parameter>
<parameter name="recordwalkers" condition="int">50</parameter>
<parameter name="rewind" condition="int">0</parameter>
<parameter name="samples" condition="real">4.0960e+03</parameter>
<parameter name="samplesperthread" condition="real">4.0000e+00</parameter>
<parameter name="steps" condition="int">1</parameter>
<parameter name="stepsbetweensamples" condition="int">50</parameter>
<parameter name="store_configs" condition="int">0</parameter>
<parameter name="storeconfigs" condition="int">0</parameter>
<parameter name="sub_steps" condition="int">30</parameter>
<parameter name="substeps" condition="int">30</parameter>
<parameter name="tau" condition="au">1.5000e-01</parameter>
<parameter name="time_step" condition="au">1.5000e-01</parameter>
<parameter name="timestep" condition="au">1.5000e-01</parameter>
<parameter name="use_drift" condition="string">no</parameter>
<parameter name="usedrift" condition="string">no</parameter>
<parameter name="walkers" condition="int">1</parameter>
<parameter name="warmup_steps" condition="int">100</parameter>
<parameter name="warmupsteps" condition="int">100</parameter>
  DumpConfig==false Nothing (configurations, state) will be saved.
  Walker Samples are dumped every 50 steps.
</vmc>
  EstimatorManagerBase::add replace LocalEnergy estimator.
  Cannot make clones again. Use existing 1 clones
  Initial partition of walkers 0 1 

  Using Particle by Particle moves
  Walker moves without drift
  Total Sample Size   =4096
  Walker distribution on root = 0 1 
  Using Locality Approximation
===== Memory Usage after the buffer registration =====
Available memory on node 0, free + buffers : 83534 MB
Memory footprint by rank 0 on node 0       : 136 MB
==================================================
  Anonymous Buffer size per walker : 1440 Bytes.
MEMORY increase 0 MB VMC::resetRun
====================================================
  SimpleFixedNodeBranch::finalize after a VMC block
    QMC counter        = 21
    time step          = 0.15
    reference energy   = -3.76389
    reference variance = 0.0137285
====================================================
  QMC Execution time = 2.3335e+00 secs 

=========================================================
  Start DMC
  File Root Si.log.s022 append = no 
=========================================================
Using existing walkers 
  Resetting Properties of the walkers 1 x 13
  EstimatorManagerBase::add replace LocalEnergy estimator.
  Cannot make clones again. Use existing 1 clones
  Total number of walkers: 4.0960e+03
  Total weight: 4.0960e+03
  Creating WalkerController: target  number of walkers = 4096
  Using WalkerControlMPI for dynamic population control.
  START ALL OVER 
  WalkerControlBase parameters 
    maxCopy = 2
    Max Walkers per MPI rank 9
    Min Walkers per MPI rank 1
    Using non-blocking send/recv
  QMC counter      = 22
  time step        = 2.0000e-02
  effective time step = 2.0000e-02
  trial energy     = -3.7639e+00
  reference energy = -3.7639e+00
  Feedback = 1.0000e+00
  reference variance = 1.3729e-02
  target walkers = 4096
  branching cutoff scheme classic
  branch cutoff = 5.0000e+01 7.5000e+01
  Max and minimum walkers per node= 9 1
  QMC Status (BranchMode) = 0000001101
  Initial partition of walkers on a node: 0 4 
  Updates by particle-by-particle moves
  DMC moves are rejected when a node crossing is detected
  Using Non-local T-moves v0, M. Casula, PRB 74, 161102(R) (2006)
===== Memory Usage after the buffer registration =====
Available memory on node 0, free + buffers : 83534 MB
Memory footprint by rank 0 on node 0       : 136 MB
==================================================
SimpleFixedNodeBranch::checkParameters 
  Average Energy of a population  = -3.75837
  Energy Variance = 0.0120672

  Fluctuating population
  Persistent walkers are killed after 1 MC sweeps
  BranchInterval = 1
  Steps per block = 50
  Number of blocks = 70

  DMC Engine Initialization = 4.1824e-02 secs 

 Warmup is completed after 100

  TauEff     = 1.9938e-02
 TauEff/Tau = 9.9690e-01
  Etrial     = -3.7987e+00
 Running average of energy = -3.7596e+00
                  Variance = 1.3489e-02
branch cutoff = 1.0000e+01 1.5000e+01
====================================================
  SimpleFixedNodeBranch::finalize after a DMC block
    QMC counter                   = 22
    time step                     = 0.02
    effective time step           = 0.0199389
    trial energy                  = -3.7574
    reference energy              = -3.76009
    reference variance            = 0.0134888
    target walkers                = 4096
    branch cutoff                 = 10 15
    Max and minimum walkers per node= 9 1
    Feedback                      = 1
    QMC Status (BranchMode)       = 0000001111
====================================================
  QMC Execution time = 4.1409e+01 secs 
  Reusing DMC
BRANCH resetRun
 SimpleFixedNodeBranch::resetRun detected changes in <parameter>'s 
 BranchMode : 0000001111 0000001111
  WalkerControlBase parameters 
    maxCopy = 2
    Max Walkers per MPI rank 9
    Min Walkers per MPI rank 1
    Using non-blocking send/recv
 iParam (old):                  0                 1                22              4096                 9                 1                 1                 0
 iParam (new):                100                 1                22              4096                 9                 1                 1                 0
 vParam (old):   2.0000000000e-02  1.9938889982e-02 -3.7574047935e+00 -3.7600939529e+00 -3.7579484258e+00  1.5000000000e+01  1.0000000000e+01  2.0000000000e-01  1.3488754107e-02 -1.2788077388e+04  3.4010000000e+03  1.0000000000e+00  1.0000000000e+01  1.0000000000e+00  1.0000000000e+00  1.0000000000e+00  1.0000000000e+00
 vParam (new):   1.0000000000e-02  1.9938889982e-02 -3.7574047935e+00 -3.7600939529e+00 -3.7579484258e+00  1.5000000000e+01  1.0000000000e+01  2.0000000000e-01  1.3488754107e-02 -1.2788077388e+04  3.4010000000e+03  1.0000000000e+00  1.0000000000e+01  1.0000000000e+00  1.0000000000e+00  1.0000000000e+00  1.0000000000e+00

 Using branching cutoff scheme classic
SimpleFixedNodeBranch::checkParameters 
  Average Energy of a population  = -3.75821
  Energy Variance = 0.0121744

  Using Non-local T-moves v0, M. Casula, PRB 74, 161102(R) (2006)
===== Memory Usage after the buffer registration =====
Available memory on node 0, free + buffers : 83529 MB
Memory footprint by rank 0 on node 0       : 139 MB
==================================================

=========================================================
  Start DMC
  File Root Si.log.s023 append = no 
=========================================================
Using existing walkers 
  Resetting Properties of the walkers 1 x 13
  EstimatorManagerBase::add replace LocalEnergy estimator.
  Cannot make clones again. Use existing 1 clones
SimpleFixedNodeBranch::checkParameters 
  Average Energy of a population  = -3.75794
  Energy Variance = 0.0129248

  Fluctuating population
  Persistent walkers are killed after 1 MC sweeps
  BranchInterval = 1
  Steps per block = 100
  Number of blocks = 90

  DMC Engine Initialization = 3.0398368835e-04 secs 

 Warmup is completed after 100

  TauEff     = 9.9893478356e-03
 TauEff/Tau = 9.9893478356e-01
  Etrial     = -3.7358475876e+00
 Running average of energy = -3.7599110277e+00
                  Variance = 1.2242788828e-02
branch cutoff = 1.0000000000e+01 1.5000000000e+01
====================================================
  SimpleFixedNodeBranch::finalize after a DMC block
    QMC counter                   = 23
    time step                     = 0.01
    effective time step           = 0.00998884
    trial energy                  = -3.75803
    reference energy              = -3.75998
    reference variance            = 0.0122428
    target walkers                = 4096
    branch cutoff                 = 10 15
    Max and minimum walkers per node= 9 1
    Feedback                      = 1
    QMC Status (BranchMode)       = 0000001111
====================================================
  QMC Execution time = 1.0624e+02 secs 
  Reusing DMC
BRANCH resetRun
 SimpleFixedNodeBranch::resetRun detected changes in <parameter>'s 
 BranchMode : 0000001111 0000001111
  WalkerControlBase parameters 
    maxCopy = 2
    Max Walkers per MPI rank 9
    Min Walkers per MPI rank 1
    Using non-blocking send/recv
 iParam (old):                  0                 1                23              4096                 9                 1                 1                 0
 iParam (new):                200                 1                23              4096                 9                 1                 1                 0
 vParam (old):   1.0000000000e-02  9.9888436371e-03 -3.7580250808e+00 -3.7599801156e+00 -3.7616088674e+00  1.5000000000e+01  1.0000000000e+01  2.0000000000e-01  1.2242788828e-02 -3.3467584638e+04  8.9010000000e+03  1.0000000000e+00  1.0000000000e+01  1.0000000000e+00  1.0000000000e+00  1.0000000000e+00  1.0000000000e+00
 vParam (new):   5.0000000000e-03  9.9888436371e-03 -3.7580250808e+00 -3.7599801156e+00 -3.7616088674e+00  1.5000000000e+01  1.0000000000e+01  2.0000000000e-01  1.2242788828e-02 -3.3467584638e+04  8.9010000000e+03  1.0000000000e+00  1.0000000000e+01  1.0000000000e+00  1.0000000000e+00  1.0000000000e+00  1.0000000000e+00

 Using branching cutoff scheme classic
SimpleFixedNodeBranch::checkParameters 
  Average Energy of a population  = -3.76152
  Energy Variance = 0.0121754

  Using Non-local T-moves v0, M. Casula, PRB 74, 161102(R) (2006)
===== Memory Usage after the buffer registration =====
Available memory on node 0, free + buffers : 83523 MB
Memory footprint by rank 0 on node 0       : 141 MB
==================================================

=========================================================
  Start DMC
  File Root Si.log.s024 append = no 
=========================================================
Using existing walkers 
  Resetting Properties of the walkers 1 x 13
  EstimatorManagerBase::add replace LocalEnergy estimator.
  Cannot make clones again. Use existing 1 clones
SimpleFixedNodeBranch::checkParameters 
  Average Energy of a population  = -3.76151
  Energy Variance = 0.012198

  Fluctuating population
  Persistent walkers are killed after 1 MC sweeps
  BranchInterval = 1
  Steps per block = 200
  Number of blocks = 110

  DMC Engine Initialization = 4.3392181396e-04 secs 

 Warmup is completed after 200

  TauEff     = 4.9979902178e-03
 TauEff/Tau = 9.9959804356e-01
  Etrial     = -3.7127386750e+00
 Running average of energy = -3.7616110673e+00
                  Variance = 1.2702926954e-02
branch cutoff = 1.0000000000e+01 1.5000000000e+01
====================================================
  SimpleFixedNodeBranch::finalize after a DMC block
    QMC counter                   = 24
    time step                     = 0.005
    effective time step           = 0.00499798
    trial energy                  = -3.76836
    reference energy              = -3.76009
    reference variance            = 0.0127029
    target walkers                = 4096
    branch cutoff                 = 10 15
    Max and minimum walkers per node= 9 1
    Feedback                      = 1
    QMC Status (BranchMode)       = 0000001111
====================================================
  QMC Execution time = 2.5962e+02 secs 
  Reusing DMC
BRANCH resetRun
 SimpleFixedNodeBranch::resetRun detected changes in <parameter>'s 
 BranchMode : 0000001111 0000001111
  WalkerControlBase parameters 
    maxCopy = 2
    Max Walkers per MPI rank 9
    Min Walkers per MPI rank 1
    Using non-blocking send/recv
 iParam (old):                  0                 1                24              4096                 9                 1                 1                 0
 iParam (new):                400                 1                24              4096                 9                 1                 1                 0
 vParam (old):   5.0000000000e-03  4.9979809682e-03 -3.7683590672e+00 -3.7600925479e+00 -3.7604808991e+00  1.5000000000e+01  1.0000000000e+01  2.0000000000e-01  1.2702926954e-02 -8.1973778026e+04  2.1801000000e+04  1.0000000000e+00  1.0000000000e+01  1.0000000000e+00  1.0000000000e+00  1.0000000000e+00  1.0000000000e+00
 vParam (new):   2.5000000000e-03  4.9979809682e-03 -3.7683590672e+00 -3.7600925479e+00 -3.7604808991e+00  1.5000000000e+01  1.0000000000e+01  2.0000000000e-01  1.2702926954e-02 -8.1973778026e+04  2.1801000000e+04  1.0000000000e+00  1.0000000000e+01  1.0000000000e+00  1.0000000000e+00  1.0000000000e+00  1.0000000000e+00

 Using branching cutoff scheme classic
SimpleFixedNodeBranch::checkParameters 
  Average Energy of a population  = -3.7604
  Energy Variance = 0.0159957

  Using Non-local T-moves v0, M. Casula, PRB 74, 161102(R) (2006)
===== Memory Usage after the buffer registration =====
Available memory on node 0, free + buffers : 83512 MB
Memory footprint by rank 0 on node 0       : 143 MB
==================================================

=========================================================
  Start DMC
  File Root Si.log.s025 append = no 
=========================================================
Using existing walkers 
  Resetting Properties of the walkers 1 x 13
  EstimatorManagerBase::add replace LocalEnergy estimator.
  Cannot make clones again. Use existing 1 clones
SimpleFixedNodeBranch::checkParameters 
  Average Energy of a population  = -3.76056
  Energy Variance = 0.0162041

  Fluctuating population
  Persistent walkers are killed after 1 MC sweeps
  BranchInterval = 1
  Steps per block = 400
  Number of blocks = 130

  DMC Engine Initialization = 2.1200180054e-03 secs 

 Warmup is completed after 400

  TauEff     = 2.4996697058e-03
 TauEff/Tau = 9.9986788233e-01
  Etrial     = -3.8610548821e+00
 Running average of energy = -3.7605861896e+00
                  Variance = 1.5341131577e-02
branch cutoff = 1.0000000000e+01 1.5000000000e+01
====================================================
  SimpleFixedNodeBranch::finalize after a DMC block
    QMC counter                   = 25
    time step                     = 0.0025
    effective time step           = 0.00249963
    trial energy                  = -3.7652
    reference energy              = -3.76033
    reference variance            = 0.0153411
    target walkers                = 4096
    branch cutoff                 = 10 15
    Max and minimum walkers per node= 9 1
    Feedback                      = 1
    QMC Status (BranchMode)       = 0000001111
====================================================
  QMC Execution time = 6.1232e+02 secs 
  Total Execution time = 1.1151e+03 secs

=========================================================
  A new xml input file : Si.log.s025.cont.xml
TACC:  Shutdown complete. Exiting. 
