 Entering Gaussian System, Link 0=g09
 Initial command:
 /usr/local/apps/g09.d01/g09/l1.exe "/home/aannabe/docs/gaussian/Gau-32331.inp" -scrdir="/home/aannabe/docs/gaussian/"
 Entering Link 1 = /usr/local/apps/g09.d01/g09/l1.exe PID=     32332.
  
 Copyright (c) 1988,1990,1992,1993,1995,1998,2003,2009,2013,
            Gaussian, Inc.  All Rights Reserved.
  
 This is part of the Gaussian(R) 09 program.  It is based on
 the Gaussian(R) 03 system (copyright 2003, Gaussian, Inc.),
 the Gaussian(R) 98 system (copyright 1998, Gaussian, Inc.),
 the Gaussian(R) 94 system (copyright 1995, Gaussian, Inc.),
 the Gaussian 92(TM) system (copyright 1992, Gaussian, Inc.),
 the Gaussian 90(TM) system (copyright 1990, Gaussian, Inc.),
 the Gaussian 88(TM) system (copyright 1988, Gaussian, Inc.),
 the Gaussian 86(TM) system (copyright 1986, Carnegie Mellon
 University), and the Gaussian 82(TM) system (copyright 1983,
 Carnegie Mellon University). Gaussian is a federally registered
 trademark of Gaussian, Inc.
  
 This software contains proprietary and confidential information,
 including trade secrets, belonging to Gaussian, Inc.
  
 This software is provided under written license and may be
 used, copied, transmitted, or stored only in accord with that
 written license.
  
 The following legend is applicable only to US Government
 contracts under FAR:
  
                    RESTRICTED RIGHTS LEGEND
  
 Use, reproduction and disclosure by the US Government is
 subject to restrictions as set forth in subparagraphs (a)
 and (c) of the Commercial Computer Software - Restricted
 Rights clause in FAR 52.227-19.
  
 Gaussian, Inc.
 340 Quinnipiac St., Bldg. 40, Wallingford CT 06492
  
  
 ---------------------------------------------------------------
 Warning -- This program may not be used in any manner that
 competes with the business of Gaussian, Inc. or will provide
 assistance to any competitor of Gaussian, Inc.  The licensee
 of this program is prohibited from giving any competitor of
 Gaussian, Inc. access to this program.  By using this program,
 the user acknowledges that Gaussian, Inc. is engaged in the
 business of creating and licensing software in the field of
 computational chemistry and represents and warrants to the
 licensee that it is not a competitor of Gaussian, Inc. and that
 it will not use this program in any manner prohibited above.
 ---------------------------------------------------------------
  

 Cite this work as:
 Gaussian 09, Revision D.01,
 M. J. Frisch, G. W. Trucks, H. B. Schlegel, G. E. Scuseria, 
 M. A. Robb, J. R. Cheeseman, G. Scalmani, V. Barone, B. Mennucci, 
 G. A. Petersson, H. Nakatsuji, M. Caricato, X. Li, H. P. Hratchian, 
 A. F. Izmaylov, J. Bloino, G. Zheng, J. L. Sonnenberg, M. Hada, 
 M. Ehara, K. Toyota, R. Fukuda, J. Hasegawa, M. Ishida, T. Nakajima, 
 Y. Honda, O. Kitao, H. Nakai, T. Vreven, J. A. Montgomery, Jr., 
 J. E. Peralta, F. Ogliaro, M. Bearpark, J. J. Heyd, E. Brothers, 
 K. N. Kudin, V. N. Staroverov, T. Keith, R. Kobayashi, J. Normand, 
 K. Raghavachari, A. Rendell, J. C. Burant, S. S. Iyengar, J. Tomasi, 
 M. Cossi, N. Rega, J. M. Millam, M. Klene, J. E. Knox, J. B. Cross, 
 V. Bakken, C. Adamo, J. Jaramillo, R. Gomperts, R. E. Stratmann, 
 O. Yazyev, A. J. Austin, R. Cammi, C. Pomelli, J. W. Ochterski, 
 R. L. Martin, K. Morokuma, V. G. Zakrzewski, G. A. Voth, 
 P. Salvador, J. J. Dannenberg, S. Dapprich, A. D. Daniels, 
 O. Farkas, J. B. Foresman, J. V. Ortiz, J. Cioslowski, 
 and D. J. Fox, Gaussian, Inc., Wallingford CT, 2013.
 
 ******************************************
 Gaussian 09:  ES64L-G09RevD.01 24-Apr-2013
                16-Dec-2018 
 ******************************************
 %MEM=1GB
 %NProcShared=4
 Will use up to    4 processors via shared memory.
 %NoSave
 %CHK=Fe
 ----------------------------------------------------------------------
 #P ROHF/Gen 5d 7f SCF=(maxcycles=300, VShift=100) GFPRINT Pop=Full Pse
 udo=Read Guess=Read IOp(5/15=2)
 ----------------------------------------------------------------------
 1/38=1/1;
 2/12=2,17=6,18=5,40=1/2;
 3/5=7,8=11,11=2,16=1,17=8,24=100,25=1,30=1,116=101/1,2,3;
 4/5=1/1;
 5/5=2,7=300,10=100,15=2,38=6/2;
 6/7=3,28=1/1;
 99/5=1,9=1/99;
 Leave Link    1 at Sun Dec 16 16:01:34 2018, MaxMem=   134217728 cpu:         0.4
 (Enter /usr/local/apps/g09.d01/g09/l101.exe)
 --
 Fe
 --
 Symbolic Z-matrix:
 Charge =  0 Multiplicity = 5
 Fe                    0.        0.        0. 
 
 NAtoms=      1 NQM=        1 NQMF=       0 NMMI=      0 NMMIF=      0
                NMic=       0 NMicF=      0.
                    Isotopes and Nuclear Properties:
 (Nuclear quadrupole moments (NQMom) in fm**2, nuclear magnetic moments (NMagM)
  in nuclear magnetons)

  Atom         1
 IAtWgt=          56
 AtmWgt=  55.9349393
 NucSpn=           0
 AtZEff=   0.0000000
 NQMom=    0.0000000
 NMagM=    0.0000000
 AtZNuc=  26.0000000
 Leave Link  101 at Sun Dec 16 16:01:34 2018, MaxMem=   134217728 cpu:         0.4
 (Enter /usr/local/apps/g09.d01/g09/l202.exe)
                          Input orientation:                          
 ---------------------------------------------------------------------
 Center     Atomic      Atomic             Coordinates (Angstroms)
 Number     Number       Type             X           Y           Z
 ---------------------------------------------------------------------
      1         26           0        0.000000    0.000000    0.000000
 ---------------------------------------------------------------------
 Stoichiometry    Fe(5)
 Framework group  OH[O(Fe)]
 Deg. of freedom     0
 Full point group                 OH      NOp  48
 Largest Abelian subgroup         D2H     NOp   8
 Largest concise Abelian subgroup C1      NOp   1
                         Standard orientation:                         
 ---------------------------------------------------------------------
 Center     Atomic      Atomic             Coordinates (Angstroms)
 Number     Number       Type             X           Y           Z
 ---------------------------------------------------------------------
      1         26           0        0.000000    0.000000    0.000000
 ---------------------------------------------------------------------
 Leave Link  202 at Sun Dec 16 16:01:35 2018, MaxMem=   134217728 cpu:         0.2
 (Enter /usr/local/apps/g09.d01/g09/l301.exe)
 General basis read from cards:  (5D, 7F)
 Centers:       1
 S 13 1.0
     Exponent=  8.4322332000D+01 Coefficients=  7.8500000000D-04
     Exponent=  4.4203528000D+01 Coefficients= -1.2781000000D-02
     Exponent=  2.3288963000D+01 Coefficients=  1.0463500000D-01
     Exponent=  1.3385163000D+01 Coefficients= -1.1938500000D-01
     Exponent=  7.5180520000D+00 Coefficients= -3.3980400000D-01
     Exponent=  4.1018350000D+00 Coefficients= -4.9994000000D-02
     Exponent=  2.2535710000D+00 Coefficients=  4.7695500000D-01
     Exponent=  1.1349240000D+00 Coefficients=  5.9322200000D-01
     Exponent=  5.6155000000D-01 Coefficients=  2.0015100000D-01
     Exponent=  2.0196100000D-01 Coefficients=  8.5910000000D-03
     Exponent=  1.0869800000D-01 Coefficients= -2.1880000000D-03
     Exponent=  5.3619000000D-02 Coefficients=  6.7700000000D-04
     Exponent=  2.5823000000D-02 Coefficients= -1.4400000000D-04
 S 13 1.0
     Exponent=  8.4322332000D+01 Coefficients= -1.6200000000D-04
     Exponent=  4.4203528000D+01 Coefficients=  2.9210000000D-03
     Exponent=  2.3288963000D+01 Coefficients= -2.5466000000D-02
     Exponent=  1.3385163000D+01 Coefficients=  3.1182000000D-02
     Exponent=  7.5180520000D+00 Coefficients=  8.6849000000D-02
     Exponent=  4.1018350000D+00 Coefficients=  6.8460000000D-03
     Exponent=  2.2535710000D+00 Coefficients= -1.3185600000D-01
     Exponent=  1.1349240000D+00 Coefficients= -2.2774600000D-01
     Exponent=  5.6155000000D-01 Coefficients= -1.7307900000D-01
     Exponent=  2.0196100000D-01 Coefficients=  1.3614200000D-01
     Exponent=  1.0869800000D-01 Coefficients=  4.3401300000D-01
     Exponent=  5.3619000000D-02 Coefficients=  4.7755500000D-01
     Exponent=  2.5823000000D-02 Coefficients=  1.2880400000D-01
 S 13 1.0
     Exponent=  8.4322332000D+01 Coefficients=  2.0000000000D-06
     Exponent=  4.4203528000D+01 Coefficients=  4.1030000000D-03
     Exponent=  2.3288963000D+01 Coefficients= -4.6840000000D-02
     Exponent=  1.3385163000D+01 Coefficients=  5.2833000000D-02
     Exponent=  7.5180520000D+00 Coefficients=  2.1809400000D-01
     Exponent=  4.1018350000D+00 Coefficients= -4.4999000000D-02
     Exponent=  2.2535710000D+00 Coefficients= -2.8738600000D-01
     Exponent=  1.1349240000D+00 Coefficients= -7.1322000000D-01
     Exponent=  5.6155000000D-01 Coefficients=  2.4917400000D-01
     Exponent=  2.0196100000D-01 Coefficients=  1.2998720000D+00
     Exponent=  1.0869800000D-01 Coefficients=  1.9211900000D-01
     Exponent=  5.3619000000D-02 Coefficients= -6.5861600000D-01
     Exponent=  2.5823000000D-02 Coefficients= -5.2104700000D-01
 S 13 1.0
     Exponent=  8.4322332000D+01 Coefficients=  1.2000000000D-05
     Exponent=  4.4203528000D+01 Coefficients=  7.5980000000D-03
     Exponent=  2.3288963000D+01 Coefficients= -9.4133000000D-02
     Exponent=  1.3385163000D+01 Coefficients=  1.2765500000D-01
     Exponent=  7.5180520000D+00 Coefficients=  4.3559800000D-01
     Exponent=  4.1018350000D+00 Coefficients= -1.4791100000D-01
     Exponent=  2.2535710000D+00 Coefficients= -1.0844770000D+00
     Exponent=  1.1349240000D+00 Coefficients= -8.8700300000D-01
     Exponent=  5.6155000000D-01 Coefficients=  2.4499460000D+00
     Exponent=  2.0196100000D-01 Coefficients=  1.6797600000D-01
     Exponent=  1.0869800000D-01 Coefficients= -2.1146680000D+00
     Exponent=  5.3619000000D-02 Coefficients=  4.5257900000D-01
     Exponent=  2.5823000000D-02 Coefficients=  8.0144400000D-01
 S 13 1.0
     Exponent=  8.4322332000D+01 Coefficients=  3.3010000000D-03
     Exponent=  4.4203528000D+01 Coefficients= -2.9197000000D-02
     Exponent=  2.3288963000D+01 Coefficients=  2.1322700000D-01
     Exponent=  1.3385163000D+01 Coefficients= -4.0810900000D-01
     Exponent=  7.5180520000D+00 Coefficients= -3.8565100000D-01
     Exponent=  4.1018350000D+00 Coefficients=  1.6809300000D-01
     Exponent=  2.2535710000D+00 Coefficients=  3.1025290000D+00
     Exponent=  1.1349240000D+00 Coefficients= -3.3604460000D+00
     Exponent=  5.6155000000D-01 Coefficients= -5.3161900000D-01
     Exponent=  2.0196100000D-01 Coefficients=  4.4939810000D+00
     Exponent=  1.0869800000D-01 Coefficients= -3.6897500000D+00
     Exponent=  5.3619000000D-02 Coefficients= -5.1060400000D-01
     Exponent=  2.5823000000D-02 Coefficients=  1.3010210000D+00
 S 13 1.0
     Exponent=  8.4322332000D+01 Coefficients= -1.2980000000D-03
     Exponent=  4.4203528000D+01 Coefficients= -5.5380000000D-03
     Exponent=  2.3288963000D+01 Coefficients=  1.8408000000D-01
     Exponent=  1.3385163000D+01 Coefficients= -3.3916500000D-01
     Exponent=  7.5180520000D+00 Coefficients= -1.4608390000D+00
     Exponent=  4.1018350000D+00 Coefficients=  3.3823030000D+00
     Exponent=  2.2535710000D+00 Coefficients=  8.4327700000D-01
     Exponent=  1.1349240000D+00 Coefficients= -7.0173710000D+00
     Exponent=  5.6155000000D-01 Coefficients=  7.2913720000D+00
     Exponent=  2.0196100000D-01 Coefficients= -4.2466800000D+00
     Exponent=  1.0869800000D-01 Coefficients=  8.9576000000D-02
     Exponent=  5.3619000000D-02 Coefficients=  3.2269240000D+00
     Exponent=  2.5823000000D-02 Coefficients= -1.9297190000D+00
 S 1 1.0
     Exponent=  2.5823000000D-02 Coefficients=  1.0000000000D+00
 S 1 1.0
     Exponent=  3.4053860000D+00 Coefficients=  1.0000000000D+00
 P 13 1.0
     Exponent=  1.2509277500D+02 Coefficients=  5.6000000000D-05
     Exponent=  6.5211589000D+01 Coefficients= -5.7200000000D-04
     Exponent=  3.4437599000D+01 Coefficients=  7.3880000000D-03
     Exponent=  1.8930704000D+01 Coefficients= -2.8481000000D-02
     Exponent=  1.0873415000D+01 Coefficients= -6.3005000000D-02
     Exponent=  6.0121720000D+00 Coefficients=  2.4855000000D-02
     Exponent=  3.3722050000D+00 Coefficients=  2.7747400000D-01
     Exponent=  1.7686410000D+00 Coefficients=  4.2538600000D-01
     Exponent=  9.1451600000D-01 Coefficients=  3.1414500000D-01
     Exponent=  4.6089500000D-01 Coefficients=  9.0422000000D-02
     Exponent=  2.0449000000D-01 Coefficients=  6.9770000000D-03
     Exponent=  7.4741000000D-02 Coefficients=  1.1540000000D-03
     Exponent=  3.5671000000D-02 Coefficients=  3.0300000000D-04
 P 13 1.0
     Exponent=  1.2509277500D+02 Coefficients=  2.5000000000D-05
     Exponent=  6.5211589000D+01 Coefficients= -7.0000000000D-05
     Exponent=  3.4437599000D+01 Coefficients= -1.0420000000D-03
     Exponent=  1.8930704000D+01 Coefficients=  5.1270000000D-03
     Exponent=  1.0873415000D+01 Coefficients=  1.8404000000D-02
     Exponent=  6.0121720000D+00 Coefficients= -1.4692000000D-02
     Exponent=  3.3722050000D+00 Coefficients= -6.1307000000D-02
     Exponent=  1.7686410000D+00 Coefficients= -1.2863800000D-01
     Exponent=  9.1451600000D-01 Coefficients= -7.0637000000D-02
     Exponent=  4.6089500000D-01 Coefficients= -1.6314000000D-02
     Exponent=  2.0449000000D-01 Coefficients=  3.8070200000D-01
     Exponent=  7.4741000000D-02 Coefficients=  5.2307100000D-01
     Exponent=  3.5671000000D-02 Coefficients=  2.3576500000D-01
 P 13 1.0
     Exponent=  1.2509277500D+02 Coefficients= -1.9700000000D-04
     Exponent=  6.5211589000D+01 Coefficients=  1.2510000000D-03
     Exponent=  3.4437599000D+01 Coefficients= -9.1540000000D-03
     Exponent=  1.8930704000D+01 Coefficients=  3.8201000000D-02
     Exponent=  1.0873415000D+01 Coefficients=  4.3097000000D-02
     Exponent=  6.0121720000D+00 Coefficients= -2.9475000000D-02
     Exponent=  3.3722050000D+00 Coefficients= -4.2699600000D-01
     Exponent=  1.7686410000D+00 Coefficients= -3.9484000000D-01
     Exponent=  9.1451600000D-01 Coefficients=  7.7230000000D-02
     Exponent=  4.6089500000D-01 Coefficients=  1.1198810000D+00
     Exponent=  2.0449000000D-01 Coefficients= -6.6494000000D-02
     Exponent=  7.4741000000D-02 Coefficients= -7.2158300000D-01
     Exponent=  3.5671000000D-02 Coefficients= -5.6950000000D-03
 P 13 1.0
     Exponent=  1.2509277500D+02 Coefficients=  2.6400000000D-04
     Exponent=  6.5211589000D+01 Coefficients= -1.0760000000D-03
     Exponent=  3.4437599000D+01 Coefficients= -2.5910000000D-03
     Exponent=  1.8930704000D+01 Coefficients=  3.5519000000D-02
     Exponent=  1.0873415000D+01 Coefficients=  1.1955400000D-01
     Exponent=  6.0121720000D+00 Coefficients= -2.0471400000D-01
     Exponent=  3.3722050000D+00 Coefficients= -7.6062700000D-01
     Exponent=  1.7686410000D+00 Coefficients= -2.6274000000D-01
     Exponent=  9.1451600000D-01 Coefficients=  1.7790300000D+00
     Exponent=  4.6089500000D-01 Coefficients= -4.6274200000D-01
     Exponent=  2.0449000000D-01 Coefficients= -1.2410300000D+00
     Exponent=  7.4741000000D-02 Coefficients=  9.4098700000D-01
     Exponent=  3.5671000000D-02 Coefficients=  8.3496000000D-02
 P 13 1.0
     Exponent=  1.2509277500D+02 Coefficients= -8.4000000000D-05
     Exponent=  6.5211589000D+01 Coefficients=  7.6800000000D-04
     Exponent=  3.4437599000D+01 Coefficients= -9.4850000000D-03
     Exponent=  1.8930704000D+01 Coefficients=  8.8062000000D-02
     Exponent=  1.0873415000D+01 Coefficients=  1.5619100000D-01
     Exponent=  6.0121720000D+00 Coefficients= -6.1916600000D-01
     Exponent=  3.3722050000D+00 Coefficients= -1.3855340000D+00
     Exponent=  1.7686410000D+00 Coefficients=  2.4921250000D+00
     Exponent=  9.1451600000D-01 Coefficients=  8.0760000000D-03
     Exponent=  4.6089500000D-01 Coefficients= -2.4995150000D+00
     Exponent=  2.0449000000D-01 Coefficients=  2.2655760000D+00
     Exponent=  7.4741000000D-02 Coefficients= -7.4834200000D-01
     Exponent=  3.5671000000D-02 Coefficients= -2.1159800000D-01
 P 13 1.0
     Exponent=  1.2509277500D+02 Coefficients= -2.5440000000D-03
     Exponent=  6.5211589000D+01 Coefficients=  1.3040000000D-02
     Exponent=  3.4437599000D+01 Coefficients= -3.9444000000D-02
     Exponent=  1.8930704000D+01 Coefficients= -2.4594000000D-02
     Exponent=  1.0873415000D+01 Coefficients= -5.2157100000D-01
     Exponent=  6.0121720000D+00 Coefficients=  2.7399930000D+00
     Exponent=  3.3722050000D+00 Coefficients= -1.7426490000D+00
     Exponent=  1.7686410000D+00 Coefficients= -2.8440060000D+00
     Exponent=  9.1451600000D-01 Coefficients=  5.8708260000D+00
     Exponent=  4.6089500000D-01 Coefficients= -4.9023060000D+00
     Exponent=  2.0449000000D-01 Coefficients=  2.1361760000D+00
     Exponent=  7.4741000000D-02 Coefficients= -1.2162600000D-01
     Exponent=  3.5671000000D-02 Coefficients= -4.8621900000D-01
 P 1 1.0
     Exponent=  3.5671000000D-02 Coefficients=  1.0000000000D+00
 P 1 1.0
     Exponent=  3.5241600000D+00 Coefficients=  1.0000000000D+00
 P 1 1.0
     Exponent=  8.8385020000D+00 Coefficients=  1.0000000000D+00
 D 11 1.0
     Exponent=  1.5273674200D+02 Coefficients=  2.9000000000D-05
     Exponent=  5.0772485000D+01 Coefficients=  5.2380000000D-03
     Exponent=  2.6253589000D+01 Coefficients=  2.9325000000D-02
     Exponent=  1.2137022000D+01 Coefficients=  7.4901000000D-02
     Exponent=  5.8537190000D+00 Coefficients=  1.6341100000D-01
     Exponent=  2.8562240000D+00 Coefficients=  2.5105700000D-01
     Exponent=  1.3861320000D+00 Coefficients=  2.8760300000D-01
     Exponent=  6.7080200000D-01 Coefficients=  2.5186200000D-01
     Exponent=  3.3028000000D-01 Coefficients=  1.8673600000D-01
     Exponent=  1.7090700000D-01 Coefficients=  9.3570000000D-02
     Exponent=  8.6794000000D-02 Coefficients=  7.3811000000D-02
 D 11 1.0
     Exponent=  1.5273674200D+02 Coefficients= -2.6000000000D-05
     Exponent=  5.0772485000D+01 Coefficients= -6.3290000000D-03
     Exponent=  2.6253589000D+01 Coefficients= -3.4398000000D-02
     Exponent=  1.2137022000D+01 Coefficients= -9.1765000000D-02
     Exponent=  5.8537190000D+00 Coefficients= -2.0159200000D-01
     Exponent=  2.8562240000D+00 Coefficients= -2.8393000000D-01
     Exponent=  1.3861320000D+00 Coefficients= -1.6198100000D-01
     Exponent=  6.7080200000D-01 Coefficients=  1.2882200000D-01
     Exponent=  3.3028000000D-01 Coefficients=  3.6016000000D-01
     Exponent=  1.7090700000D-01 Coefficients=  2.7759200000D-01
     Exponent=  8.6794000000D-02 Coefficients=  2.6140300000D-01
 D 11 1.0
     Exponent=  1.5273674200D+02 Coefficients=  5.1000000000D-05
     Exponent=  5.0772485000D+01 Coefficients=  8.7690000000D-03
     Exponent=  2.6253589000D+01 Coefficients=  4.7921000000D-02
     Exponent=  1.2137022000D+01 Coefficients=  1.3247500000D-01
     Exponent=  5.8537190000D+00 Coefficients=  2.9727900000D-01
     Exponent=  2.8562240000D+00 Coefficients=  2.7501800000D-01
     Exponent=  1.3861320000D+00 Coefficients= -2.2284200000D-01
     Exponent=  6.7080200000D-01 Coefficients= -6.1906700000D-01
     Exponent=  3.3028000000D-01 Coefficients= -7.6290000000D-02
     Exponent=  1.7090700000D-01 Coefficients=  2.5605600000D-01
     Exponent=  8.6794000000D-02 Coefficients=  5.4148200000D-01
 D 11 1.0
     Exponent=  1.5273674200D+02 Coefficients= -9.6000000000D-05
     Exponent=  5.0772485000D+01 Coefficients= -1.2144000000D-02
     Exponent=  2.6253589000D+01 Coefficients= -6.6971000000D-02
     Exponent=  1.2137022000D+01 Coefficients= -1.9602500000D-01
     Exponent=  5.8537190000D+00 Coefficients= -4.6900300000D-01
     Exponent=  2.8562240000D+00 Coefficients=  4.6560000000D-02
     Exponent=  1.3861320000D+00 Coefficients=  9.8594000000D-01
     Exponent=  6.7080200000D-01 Coefficients= -2.2043500000D-01
     Exponent=  3.3028000000D-01 Coefficients= -7.5248200000D-01
     Exponent=  1.7090700000D-01 Coefficients= -1.1112300000D-01
     Exponent=  8.6794000000D-02 Coefficients=  7.5310000000D-01
 D 11 1.0
     Exponent=  1.5273674200D+02 Coefficients= -3.2000000000D-05
     Exponent=  5.0772485000D+01 Coefficients= -1.6411000000D-02
     Exponent=  2.6253589000D+01 Coefficients= -8.1036000000D-02
     Exponent=  1.2137022000D+01 Coefficients= -2.9264100000D-01
     Exponent=  5.8537190000D+00 Coefficients= -5.7581900000D-01
     Exponent=  2.8562240000D+00 Coefficients=  1.1511560000D+00
     Exponent=  1.3861320000D+00 Coefficients=  1.6896300000D-01
     Exponent=  6.7080200000D-01 Coefficients= -1.4895450000D+00
     Exponent=  3.3028000000D-01 Coefficients=  7.4153600000D-01
     Exponent=  1.7090700000D-01 Coefficients=  9.7927900000D-01
     Exponent=  8.6794000000D-02 Coefficients= -1.0449050000D+00
 D 1 1.0
     Exponent=  8.6794000000D-02 Coefficients=  1.0000000000D+00
 D 1 1.0
     Exponent=  5.4977170000D+00 Coefficients=  1.0000000000D+00
 F 1 1.0
     Exponent=  3.3436700000D-01 Coefficients=  1.0000000000D+00
 F 1 1.0
     Exponent=  9.6565000000D-01 Coefficients=  1.0000000000D+00
 F 1 1.0
     Exponent=  2.7887930000D+00 Coefficients=  1.0000000000D+00
 F 1 1.0
     Exponent=  8.0540200000D+00 Coefficients=  1.0000000000D+00
 F 1 1.0
     Exponent=  4.2529840000D+00 Coefficients=  1.0000000000D+00
 G 1 1.0
     Exponent=  6.7344400000D-01 Coefficients=  1.0000000000D+00
 G 1 1.0
     Exponent=  1.9915500000D+00 Coefficients=  1.0000000000D+00
 G 1 1.0
     Exponent=  5.8895320000D+00 Coefficients=  1.0000000000D+00
 G 1 1.0
     Exponent=  4.7264580000D+00 Coefficients=  1.0000000000D+00
 H 1 1.0
     Exponent=  1.3448070000D+00 Coefficients=  1.0000000000D+00
 H 1 1.0
     Exponent=  4.3593710000D+00 Coefficients=  1.0000000000D+00
 H 1 1.0
     Exponent=  7.0085430000D+00 Coefficients=  1.0000000000D+00
 I 1 1.0
     Exponent=  3.1822220000D+00 Coefficients=  1.0000000000D+00
 I 1 1.0
     Exponent=  7.1108530000D+00 Coefficients=  1.0000000000D+00
 ****
 ======================================================================================================
                                       Pseudopotential Parameters
 ======================================================================================================
  Center     Atomic      Valence      Angular      Power
  Number     Number     Electrons     Momentum     of R      Exponent        Coefficient   SO-Coeffient
 ======================================================================================================
    1         26           16
                                      D and up 
                                                     1       23.2209171       16.00000000    0.00000000
                                                     3       23.5471468      371.53467418    0.00000000
                                                     2       23.4725634     -181.22603445    0.00000000
                                                     2        9.8523882       -2.37305236    0.00000000
                                      S - D
                                                     2       22.2106270      277.50032547    0.00000000
                                                     2        9.5151580       46.20495585    0.00000000
                                      P - D
                                                     2       24.5700087      194.99875057    0.00000000
                                                     2        8.8664878       31.67945133    0.00000000
 ======================================================================================================
 Ernie: Thresh=  0.10000D-02 Tol=  0.10000D-05 Strict=F.
 Ernie:  93 primitive shells out of 232 were deleted.
 AO basis set (Overlap normalization):
 Atom Fe1      Shell     1 S   7     bf    1 -     1          0.000000000000          0.000000000000          0.000000000000
      0.4420352800D+02 -0.1162782493D-02
      0.1338516300D+02  0.4067881159D-01
      0.4101835000D+01 -0.1359358431D+00
      0.2253571000D+01 -0.6980160873D+00
      0.1134924000D+01  0.6786516861D+00
      0.5615500000D+00  0.1278513447D+01
      0.2019610000D+00 -0.5010536100D+00
 Atom Fe1      Shell     2 S   7     bf    2 -     2          0.000000000000          0.000000000000          0.000000000000
      0.4420352800D+02 -0.4061004566D-04
      0.1338516300D+02  0.1489529706D-02
      0.4101835000D+01 -0.1208863668D-01
      0.1134924000D+01  0.5158411498D-01
      0.2019610000D+00 -0.7735460450D+00
      0.1086980000D+00 -0.2312010565D+00
      0.5361900000D-01  0.1575319397D+01
 Atom Fe1      Shell     3 S   7     bf    3 -     3          0.000000000000          0.000000000000          0.000000000000
      0.4420352800D+02 -0.7422097019D-04
      0.1338516300D+02  0.2705699591D-02
      0.4101835000D+01 -0.7307211528D-02
      0.1134924000D+01 -0.5041423245D-01
      0.5615500000D+00 -0.3206041563D+00
      0.2019610000D+00  0.4508701470D+00
      0.1086980000D+00  0.7881798192D+00
 Atom Fe1      Shell     4 S   7     bf    4 -     4          0.000000000000          0.000000000000          0.000000000000
      0.4420352800D+02  0.1842508232D-02
      0.1338516300D+02 -0.6049964848D-01
      0.7518052000D+01 -0.4818537531D-01
      0.4101835000D+01  0.5343740871D+00
      0.2253571000D+01  0.6533000001D+00
      0.1134924000D+01 -0.2209414770D+01
      0.2019610000D+00  0.1055814823D+01
 Atom Fe1      Shell     5 S   7     bf    5 -     5          0.000000000000          0.000000000000          0.000000000000
      0.8432233200D+02  0.1046809597D-02
      0.4420352800D+02 -0.1875444539D-01
      0.2328896300D+02  0.1713828087D+00
      0.1338516300D+02 -0.2309305326D+00
      0.7518052000D+01 -0.6277331945D+00
      0.4101835000D+01  0.2685324121D+00
      0.2253571000D+01  0.1230140091D+01
 Atom Fe1      Shell     6 S   7     bf    6 -     6          0.000000000000          0.000000000000          0.000000000000
      0.4420352800D+02 -0.6285322828D-02
      0.2328896300D+02  0.8026419444D-01
      0.1338516300D+02 -0.1146325203D+00
      0.7518052000D+01 -0.4042842983D+00
      0.4101835000D+01  0.3775067404D+00
      0.2253571000D+01  0.6473406610D+00
      0.2019610000D+00 -0.1078989003D+01
 Atom Fe1      Shell     7 S   1     bf    7 -     7          0.000000000000          0.000000000000          0.000000000000
      0.2582300000D-01  0.1000000000D+01
 Atom Fe1      Shell     8 S   1     bf    8 -     8          0.000000000000          0.000000000000          0.000000000000
      0.3405386000D+01  0.1000000000D+01
 Atom Fe1      Shell     9 P   7     bf    9 -    11          0.000000000000          0.000000000000          0.000000000000
      0.6521158900D+02 -0.1485395569D-04
      0.1893070400D+02  0.4566062588D-02
      0.6012172000D+01  0.1553611678D-01
      0.3372205000D+01 -0.2700678829D+00
      0.1768641000D+01  0.3052127541D-03
      0.9145160000D+00  0.9384646438D+00
      0.7474100000D-01  0.4395842685D+00
 Atom Fe1      Shell    10 P   7     bf   12 -    14          0.000000000000          0.000000000000          0.000000000000
      0.6521158900D+02 -0.1298361654D-04
      0.1893070400D+02  0.1682866386D-02
      0.6012172000D+01 -0.1632468753D-01
      0.1768641000D+01 -0.1023616061D+00
      0.4608950000D+00  0.5893243070D+00
      0.2044900000D+00  0.3243699695D+00
      0.7474100000D-01  0.2652373993D+00
 Atom Fe1      Shell    11 P   7     bf   15 -    17          0.000000000000          0.000000000000          0.000000000000
      0.6521158900D+02  0.5381445672D-05
      0.1893070400D+02  0.1345644973D-03
      0.6012172000D+01  0.2901210362D-03
      0.1768641000D+01 -0.1243698420D-01
      0.9145160000D+00  0.1378544317D+00
      0.2044900000D+00 -0.6304683628D+00
      0.7474100000D-01 -0.4918183907D+00
 Atom Fe1      Shell    12 P   7     bf   18 -    20          0.000000000000          0.000000000000          0.000000000000
      0.6521158900D+02  0.7196035149D-05
      0.1893070400D+02 -0.1657928078D-01
      0.1087341500D+02 -0.2437968989D-01
      0.6012172000D+01  0.2090890006D+00
      0.3372205000D+01  0.2126316430D+00
      0.1768641000D+01 -0.7811088010D+00
      0.7474100000D-01  0.9153507672D+00
 Atom Fe1      Shell    13 P   7     bf   21 -    23          0.000000000000          0.000000000000          0.000000000000
      0.6521158900D+02  0.4502684963D-03
      0.3443759900D+02 -0.1065425547D-01
      0.1893070400D+02  0.5858025445D-01
      0.1087341500D+02  0.1329286657D+00
      0.6012172000D+01 -0.2221786642D+00
      0.3372205000D+01 -0.7035410575D+00
      0.1768641000D+01 -0.2265239159D+00
 Atom Fe1      Shell    14 P   7     bf   24 -    26          0.000000000000          0.000000000000          0.000000000000
      0.1250927750D+03 -0.3689337234D-03
      0.6521158900D+02  0.2032547715D-02
      0.3443759900D+02 -0.8787431521D-02
      0.1893070400D+02 -0.2364496002D-02
      0.1087341500D+02 -0.5641889397D-01
      0.6012172000D+01  0.4607578569D+00
      0.1768641000D+01 -0.1225596688D+01
 Atom Fe1      Shell    15 P   1     bf   27 -    29          0.000000000000          0.000000000000          0.000000000000
      0.3567100000D-01  0.1000000000D+01
 Atom Fe1      Shell    16 P   1     bf   30 -    32          0.000000000000          0.000000000000          0.000000000000
      0.3524160000D+01  0.1000000000D+01
 Atom Fe1      Shell    17 P   1     bf   33 -    35          0.000000000000          0.000000000000          0.000000000000
      0.8838502000D+01  0.1000000000D+01
 Atom Fe1      Shell    18 D   7     bf   36 -    40          0.000000000000          0.000000000000          0.000000000000
      0.1527367420D+03 -0.1235709768D-04
      0.2625358900D+02 -0.5285203299D-03
      0.5853719000D+01 -0.1755179216D-01
      0.2856224000D+01 -0.6499058066D-01
      0.1386132000D+01  0.4760208866D+00
      0.6708020000D+00  0.6828796761D+00
      0.1709070000D+00 -0.1921677415D+00
 Atom Fe1      Shell    19 D   6     bf   41 -    45          0.000000000000          0.000000000000          0.000000000000
      0.1527367420D+03  0.3321275445D-05
      0.2625358900D+02  0.3407537273D-03
      0.5853719000D+01 -0.1104480655D-01
      0.1386132000D+01  0.1676132912D+00
      0.3302800000D+00  0.3884891948D+00
      0.1709070000D+00  0.5899305193D+00
 Atom Fe1      Shell    20 D   7     bf   46 -    50          0.000000000000          0.000000000000          0.000000000000
      0.1527367420D+03 -0.1752431854D-05
      0.2625358900D+02  0.1654354247D-02
      0.1213702200D+02 -0.1440672099D-01
      0.5853719000D+01 -0.3402140178D-01
      0.2856224000D+01  0.4463702341D+00
      0.1386132000D+01  0.6110584761D+00
      0.1709070000D+00  0.1006934246D+00
 Atom Fe1      Shell    21 D   7     bf   51 -    55          0.000000000000          0.000000000000          0.000000000000
      0.1527367420D+03 -0.1426996293D-04
      0.2625358900D+02 -0.1130842353D-02
      0.5853719000D+01 -0.9195763921D-02
      0.1386132000D+01  0.7871027284D-01
      0.6708020000D+00 -0.2711384896D+00
      0.3302800000D+00 -0.5552799898D+00
      0.1709070000D+00 -0.3038991180D+00
 Atom Fe1      Shell    22 D   7     bf   56 -    60          0.000000000000          0.000000000000          0.000000000000
      0.1527367420D+03 -0.7650365023D-04
      0.5077248500D+02 -0.1416310638D-01
      0.2625358900D+02 -0.7740206685D-01
      0.1213702200D+02 -0.2138984068D+00
      0.5853719000D+01 -0.4755421092D+00
      0.2856224000D+01 -0.3710826196D+00
      0.1709070000D+00  0.3897479068D-01
 Atom Fe1      Shell    23 D   1     bf   61 -    65          0.000000000000          0.000000000000          0.000000000000
      0.8679400000D-01  0.1000000000D+01
 Atom Fe1      Shell    24 D   1     bf   66 -    70          0.000000000000          0.000000000000          0.000000000000
      0.5497717000D+01  0.1000000000D+01
 Atom Fe1      Shell    25 F   1     bf   71 -    77          0.000000000000          0.000000000000          0.000000000000
      0.3343670000D+00  0.1000000000D+01
 Atom Fe1      Shell    26 F   1     bf   78 -    84          0.000000000000          0.000000000000          0.000000000000
      0.9656500000D+00  0.1000000000D+01
 Atom Fe1      Shell    27 F   1     bf   85 -    91          0.000000000000          0.000000000000          0.000000000000
      0.2788793000D+01  0.1000000000D+01
 Atom Fe1      Shell    28 F   1     bf   92 -    98          0.000000000000          0.000000000000          0.000000000000
      0.8054020000D+01  0.1000000000D+01
 Atom Fe1      Shell    29 F   1     bf   99 -   105          0.000000000000          0.000000000000          0.000000000000
      0.4252984000D+01  0.1000000000D+01
 Atom Fe1      Shell    30 G   1     bf  106 -   114          0.000000000000          0.000000000000          0.000000000000
      0.6734440000D+00  0.1000000000D+01
 Atom Fe1      Shell    31 G   1     bf  115 -   123          0.000000000000          0.000000000000          0.000000000000
      0.1991550000D+01  0.1000000000D+01
 Atom Fe1      Shell    32 G   1     bf  124 -   132          0.000000000000          0.000000000000          0.000000000000
      0.5889532000D+01  0.1000000000D+01
 Atom Fe1      Shell    33 G   1     bf  133 -   141          0.000000000000          0.000000000000          0.000000000000
      0.4726458000D+01  0.1000000000D+01
 Atom Fe1      Shell    34 H   1     bf  142 -   152          0.000000000000          0.000000000000          0.000000000000
      0.1344807000D+01  0.1000000000D+01
 Atom Fe1      Shell    35 H   1     bf  153 -   163          0.000000000000          0.000000000000          0.000000000000
      0.4359371000D+01  0.1000000000D+01
 Atom Fe1      Shell    36 H   1     bf  164 -   174          0.000000000000          0.000000000000          0.000000000000
      0.7008543000D+01  0.1000000000D+01
 Atom Fe1      Shell    37 I   1     bf  175 -   187          0.000000000000          0.000000000000          0.000000000000
      0.3182222000D+01  0.1000000000D+01
 Atom Fe1      Shell    38 I   1     bf  188 -   200          0.000000000000          0.000000000000          0.000000000000
      0.7110853000D+01  0.1000000000D+01
 There are    73 symmetry adapted cartesian basis functions of AG  symmetry.
 There are    31 symmetry adapted cartesian basis functions of B1G symmetry.
 There are    31 symmetry adapted cartesian basis functions of B2G symmetry.
 There are    31 symmetry adapted cartesian basis functions of B3G symmetry.
 There are    14 symmetry adapted cartesian basis functions of AU  symmetry.
 There are    42 symmetry adapted cartesian basis functions of B1U symmetry.
 There are    42 symmetry adapted cartesian basis functions of B2U symmetry.
 There are    42 symmetry adapted cartesian basis functions of B3U symmetry.
 There are    42 symmetry adapted basis functions of AG  symmetry.
 There are    21 symmetry adapted basis functions of B1G symmetry.
 There are    21 symmetry adapted basis functions of B2G symmetry.
 There are    21 symmetry adapted basis functions of B3G symmetry.
 There are    11 symmetry adapted basis functions of AU  symmetry.
 There are    28 symmetry adapted basis functions of B1U symmetry.
 There are    28 symmetry adapted basis functions of B2U symmetry.
 There are    28 symmetry adapted basis functions of B3U symmetry.
   200 basis functions,   624 primitive gaussians,   306 cartesian basis functions
    10 alpha electrons        6 beta electrons
       nuclear repulsion energy         0.0000000000 Hartrees.
 IExCor=    0 DFT=F Ex=HF Corr=None ExCW=0 ScaHFX=  1.000000
 ScaDFX=  1.000000  1.000000  1.000000  1.000000 ScalE2=  1.000000  1.000000
 IRadAn=      0 IRanWt=     -1 IRanGd=            0 ICorTp=0 IEmpDi=  4
 NAtoms=    1 NActive=    1 NUniq=    1 SFac= 1.00D+00 NAtFMM=   60 NAOKFM=F Big=F
 Integral buffers will be    131072 words long.
 Raffenetti 2 integral format.
 Two-electron integral symmetry is turned on.
 Leave Link  301 at Sun Dec 16 16:01:35 2018, MaxMem=   134217728 cpu:         1.3
 (Enter /usr/local/apps/g09.d01/g09/l302.exe)
 NPDir=0 NMtPBC=     1 NCelOv=     1 NCel=       1 NClECP=     1 NCelD=      1
         NCelK=      1 NCelE2=     1 NClLst=     1 CellRange=     0.0.
 One-electron integrals computed using PRISM.
 PrsmSu:  requested number of processors reduced to:   1 ShMem   1 Linda.
 PrsmSu:  requested number of processors reduced to:   2 ShMem   1 Linda.
   1 Symmetry operations used in ECPInt.
 ECPInt:  NShTT=     741 NPrTT=   10081 LenC2=     742 LenP2D=   10081.
 LDataN:  DoStor=T MaxTD1=12 Len= 1566
 NBasis=   200 RedAO= T EigKep=  9.80D-04  NBF=    42    21    21    21    11    28    28    28
 NBsUse=   200 1.00D-06 EigRej= -1.00D+00 NBFU=    42    21    21    21    11    28    28    28
 Leave Link  302 at Sun Dec 16 16:01:37 2018, MaxMem=   134217728 cpu:         8.1
 (Enter /usr/local/apps/g09.d01/g09/l303.exe)
 DipDrv:  MaxL=1.
 Leave Link  303 at Sun Dec 16 16:01:37 2018, MaxMem=   134217728 cpu:         0.4
 (Enter /usr/local/apps/g09.d01/g09/l401.exe)
 Initial guess from the checkpoint file:  "Fe.chk"
 B after Tr=     0.000000    0.000000    0.000000
         Rot=    1.000000    0.000000    0.000000    0.000000 Ang=   0.00 deg.
 Guess basis will be translated and rotated to current coordinates.
 JPrj=2 DoOrth=T DoCkMO=T.
 Initial guess orbital symmetries:
       Occupied  (A1G) (T1U) (T1U) (T1U) (?A) (?A) (?A) (T2G) (T2G)
                 (T2G)
       Virtual   (?B) (?B) (?B) (A1G) (?B) (?B) (?B) (?A) (T2G)
                 (T2G) (?A) (T2G) (A1G) (?B) (?B) (?B) (?A) (T2G)
                 (T2G) (?A) (T2G) (?A) (?C) (?C) (?C) (?C) (?C)
                 (?C) (A2U) (?C) (?C) (?C) (?A) (T2G) (T2G) (?A)
                 (T2G) (?D) (?E) (?E) (?E) (A2U) (?E) (?E) (?E)
                 (?E) (?E) (?E) (?D) (?F) (?F) (?D) (?F) (?D) (?F)
                 (?F) (?F) (?D) (?F) (?F) (?F) (?D) (?D) (?F) (?F)
                 (?F) (A2U) (?F) (?F) (?F) (?D) (?F) (?F) (?F)
                 (?D) (?F) (?F) (?F) (?D) (?F) (?F) (?F) (?D) (?F)
                 (?F) (?F) (?D) (T2G) (T2G) (T2G) (T2G) (T2G) (T2G)
                 (?F) (?F) (?F) (?F) (?F) (?F) (A2U) (?F) (?F)
                 (?F) (T2G) (?F) (?F) (?F) (T2G) (?F) (?F) (?F)
                 (T2G) (T2G) (T2G) (T2G) (?F) (?F) (?F) (?F) (?F)
                 (?F) (?F) (?F) (?F) (?F) (?F) (?F) (?F) (?F) (?F)
                 (?F) (?F) (?F) (?F) (?F) (?F) (?F) (?F) (?F) (?F)
                 (?F) (?F) (?F) (?F) (?F) (?F) (?F) (EU) (EU) (A2U)
                 (EU) (EU) (EU) (EU) (T1U) (?F) (?F) (?F) (?F)
                 (?F) (?F) (?F) (?F) (?F) (?F) (?F) (T1U) (?F)
                 (?F) (?F) (?F) (?F) (?F) (?F) (?F) (?F) (?F) (?F)
                 (T1U) (?F) (?F) (?F) (?F) (?F) (?F) (?F) (?F)
                 (?F) (?F) (?F)
 Leave Link  401 at Sun Dec 16 16:01:38 2018, MaxMem=   134217728 cpu:         2.1
 (Enter /usr/local/apps/g09.d01/g09/l502.exe)
 Restricted open shell SCF:
 Using DIIS extrapolation, IDIIS=  1040.
 Integral symmetry usage will be decided dynamically.
 IVT=      379660 IEndB=      379660 NGot=   134217728 MDV=   134022611
 LenX=   134022611 LenY=   133928534
 Requested convergence on RMS density matrix=1.00D-08 within 300 cycles.
 Requested convergence on MAX density matrix=1.00D-06.
 Requested convergence on             energy=1.00D-06.
 Virtual orbitals will be shifted by   0.100 hartree.
 No special actions if energy rises.
 Fock matrices will be formed incrementally for  20 cycles.

 Cycle   1  Pass 1  IDiag  1:
 Density matrix breaks symmetry, PCut= 1.00D-04
 Density has only Abelian symmetry.
 FoFJK:  IHMeth= 1 ICntrl=       0 DoSepK=F KAlg= 0 I1Cent=   0 FoldK=F
 IRaf= 990000000 NMat=   1 IRICut=       1 DoRegI=T DoRafI=F ISym2E= 1.
 FoFCou: FMM=F IPFlag=           0 FMFlag=      100000 FMFlg1=           0
         NFxFlg=           0 DoJE=F BraDBF=F KetDBF=F FulRan=T
         wScrn=  0.000000 ICntrl=       0 IOpCl=  1 I1Cent=           0 NGrid=           0
         NMat0=    1 NMatS0=      1 NMatT0=    0 NMatD0=    1 NMtDS0=    0 NMtDT0=    0
 Petite list used in FoFCou.
 CoulSu:  requested number of processors reduced to:   2 ShMem   1 Linda.
 E= -122.647289688879    
 DIIS: error= 9.72D-03 at cycle   1 NSaved=   1.
 NSaved= 1 IEnMin= 1 EnMin= -122.647289688879     IErMin= 1 ErrMin= 9.72D-03
 ErrMax= 9.72D-03  0.00D+00 EMaxC= 1.00D-01 BMatC= 1.26D-03 BMatP= 1.26D-03
 IDIUse=3 WtCom= 9.03D-01 WtEn= 9.72D-02
 Coeff-Com:  0.100D+01
 Coeff-En:   0.100D+01
 Coeff:      0.100D+01
 Gap=     0.345 Goal=   None    Shift=    0.100
 GapD=    0.345 DampG=1.000 DampE=1.000 DampFc=1.0000 IDamp=-1.
 RMSDP=1.30D-04 MaxDP=8.87D-03              OVMax= 9.73D-04

 Cycle   2  Pass 1  IDiag  1:
 Density matrix breaks symmetry, PCut= 1.00D-07
 Density has only Abelian symmetry.
 RMSU=  1.29D-04    CP:  1.00D+00
 CoulSu:  requested number of processors reduced to:   2 ShMem   1 Linda.
 E= -122.647351617144     Delta-E=       -0.000061928265 Rises=F Damp=F
 DIIS: error= 1.66D-04 at cycle   2 NSaved=   2.
 NSaved= 2 IEnMin= 2 EnMin= -122.647351617144     IErMin= 2 ErrMin= 1.66D-04
 ErrMax= 1.66D-04  0.00D+00 EMaxC= 1.00D-01 BMatC= 7.99D-07 BMatP= 1.26D-03
 IDIUse=3 WtCom= 9.98D-01 WtEn= 1.66D-03
 Coeff-Com: -0.194D-01 0.102D+01
 Coeff-En:   0.000D+00 0.100D+01
 Coeff:     -0.194D-01 0.102D+01
 Gap=     0.129 Goal=   None    Shift=    0.100
 RMSDP=1.54D-05 MaxDP=1.71D-03 DE=-6.19D-05 OVMax= 2.21D-04

 Cycle   3  Pass 1  IDiag  1:
 Density matrix breaks symmetry, PCut= 1.00D-07
 Density has only Abelian symmetry.
 RMSU=  1.24D-05    CP:  1.00D+00  1.06D+00
 CoulSu:  requested number of processors reduced to:   2 ShMem   1 Linda.
 E= -122.647351798067     Delta-E=       -0.000000180922 Rises=F Damp=F
 DIIS: error= 4.02D-05 at cycle   3 NSaved=   3.
 NSaved= 3 IEnMin= 3 EnMin= -122.647351798067     IErMin= 3 ErrMin= 4.02D-05
 ErrMax= 4.02D-05  0.00D+00 EMaxC= 1.00D-01 BMatC= 7.74D-08 BMatP= 7.99D-07
 IDIUse=1 WtCom= 1.00D+00 WtEn= 0.00D+00
 Coeff-Com: -0.573D-02 0.282D+00 0.724D+00
 Coeff:     -0.573D-02 0.282D+00 0.724D+00
 Gap=     0.130 Goal=   None    Shift=    0.100
 RMSDP=3.23D-06 MaxDP=3.62D-04 DE=-1.81D-07 OVMax= 7.16D-05

 Cycle   4  Pass 1  IDiag  1:
 Density matrix breaks symmetry, PCut= 1.00D-07
 Density has only Abelian symmetry.
 RMSU=  2.40D-06    CP:  1.00D+00  1.08D+00  1.06D+00
 CoulSu:  requested number of processors reduced to:   2 ShMem   1 Linda.
 E= -122.647351829700     Delta-E=       -0.000000031633 Rises=F Damp=F
 DIIS: error= 1.47D-05 at cycle   4 NSaved=   4.
 NSaved= 4 IEnMin= 4 EnMin= -122.647351829700     IErMin= 4 ErrMin= 1.47D-05
 ErrMax= 1.47D-05  0.00D+00 EMaxC= 1.00D-01 BMatC= 8.77D-09 BMatP= 7.74D-08
 IDIUse=1 WtCom= 1.00D+00 WtEn= 0.00D+00
 Coeff-Com: -0.417D-03 0.145D-01 0.238D+00 0.748D+00
 Coeff:     -0.417D-03 0.145D-01 0.238D+00 0.748D+00
 Gap=     0.130 Goal=   None    Shift=    0.100
 RMSDP=1.22D-06 MaxDP=1.42D-04 DE=-3.16D-08 OVMax= 2.76D-05

 Cycle   5  Pass 1  IDiag  1:
 Density matrix breaks symmetry, PCut= 1.00D-07
 Density has only Abelian symmetry.
 RMSU=  4.19D-07    CP:  1.00D+00  1.08D+00  1.09D+00  1.31D+00
 CoulSu:  requested number of processors reduced to:   2 ShMem   1 Linda.
 E= -122.647351833022     Delta-E=       -0.000000003322 Rises=F Damp=F
 DIIS: error= 2.79D-06 at cycle   5 NSaved=   5.
 NSaved= 5 IEnMin= 5 EnMin= -122.647351833022     IErMin= 5 ErrMin= 2.79D-06
 ErrMax= 2.79D-06  0.00D+00 EMaxC= 1.00D-01 BMatC= 3.99D-10 BMatP= 8.77D-09
 IDIUse=1 WtCom= 1.00D+00 WtEn= 0.00D+00
 Coeff-Com:  0.224D-03-0.130D-01 0.349D-01 0.152D+00 0.826D+00
 Coeff:      0.224D-03-0.130D-01 0.349D-01 0.152D+00 0.826D+00
 Gap=     0.130 Goal=   None    Shift=    0.100
 RMSDP=5.15D-07 MaxDP=5.82D-05 DE=-3.32D-09 OVMax= 1.46D-05

 Cycle   6  Pass 1  IDiag  1:
 Density matrix breaks symmetry, PCut= 1.00D-07
 Density has only Abelian symmetry.
 RMSU=  1.02D-07    CP:  1.00D+00  1.09D+00  1.13D+00  1.36D+00  1.14D+00
 CoulSu:  requested number of processors reduced to:   2 ShMem   1 Linda.
 E= -122.647351833712     Delta-E=       -0.000000000690 Rises=F Damp=F
 DIIS: error= 1.37D-06 at cycle   6 NSaved=   6.
 NSaved= 6 IEnMin= 6 EnMin= -122.647351833712     IErMin= 6 ErrMin= 1.37D-06
 ErrMax= 1.37D-06  0.00D+00 EMaxC= 1.00D-01 BMatC= 7.52D-11 BMatP= 3.99D-10
 IDIUse=1 WtCom= 1.00D+00 WtEn= 0.00D+00
 Coeff-Com:  0.236D-04-0.939D-03-0.930D-02-0.112D+00-0.468D-01 0.117D+01
 Coeff:      0.236D-04-0.939D-03-0.930D-02-0.112D+00-0.468D-01 0.117D+01
 Gap=     0.130 Goal=   None    Shift=    0.100
 RMSDP=2.27D-07 MaxDP=2.60D-05 DE=-6.90D-10 OVMax= 6.91D-06

 Cycle   7  Pass 1  IDiag  1:
 Density matrix breaks symmetry, PCut= 1.00D-07
 Density has only Abelian symmetry.
 RMSU=  5.65D-08    CP:  1.00D+00  1.09D+00  1.14D+00  1.42D+00  1.11D+00
                    CP:  1.11D+00
 CoulSu:  requested number of processors reduced to:   2 ShMem   1 Linda.
 E= -122.647351833821     Delta-E=       -0.000000000109 Rises=F Damp=F
 DIIS: error= 5.45D-07 at cycle   7 NSaved=   7.
 NSaved= 7 IEnMin= 7 EnMin= -122.647351833821     IErMin= 7 ErrMin= 5.45D-07
 ErrMax= 5.45D-07  0.00D+00 EMaxC= 1.00D-01 BMatC= 7.25D-12 BMatP= 7.52D-11
 IDIUse=1 WtCom= 1.00D+00 WtEn= 0.00D+00
 Coeff-Com: -0.108D-04 0.750D-03-0.711D-02-0.467D-01-0.851D-01 0.320D+00
 Coeff-Com:  0.818D+00
 Coeff:     -0.108D-04 0.750D-03-0.711D-02-0.467D-01-0.851D-01 0.320D+00
 Coeff:      0.818D+00
 Gap=     0.130 Goal=   None    Shift=    0.100
 RMSDP=9.20D-08 MaxDP=5.80D-06 DE=-1.09D-10 OVMax= 4.84D-06

 Cycle   8  Pass 1  IDiag  1:
 Density matrix breaks symmetry, PCut= 1.00D-07
 Density has only Abelian symmetry.
 RMSU=  1.97D-08    CP:  1.00D+00  1.09D+00  1.14D+00  1.42D+00  1.28D+00
                    CP:  1.24D+00  5.61D-01
 CoulSu:  requested number of processors reduced to:   2 ShMem   1 Linda.
 E= -122.647351833835     Delta-E=       -0.000000000014 Rises=F Damp=F
 DIIS: error= 2.79D-07 at cycle   8 NSaved=   8.
 NSaved= 8 IEnMin= 8 EnMin= -122.647351833835     IErMin= 8 ErrMin= 2.79D-07
 ErrMax= 2.79D-07  0.00D+00 EMaxC= 1.00D-01 BMatC= 1.79D-12 BMatP= 7.25D-12
 IDIUse=1 WtCom= 1.00D+00 WtEn= 0.00D+00
 Coeff-Com: -0.129D-04 0.709D-03-0.230D-02-0.305D-02-0.498D-01-0.420D-01
 Coeff-Com:  0.344D+00 0.752D+00
 Coeff:     -0.129D-04 0.709D-03-0.230D-02-0.305D-02-0.498D-01-0.420D-01
 Coeff:      0.344D+00 0.752D+00
 Gap=     0.130 Goal=   None    Shift=    0.100
 RMSDP=2.39D-08 MaxDP=1.43D-06 DE=-1.41D-11 OVMax= 1.24D-06

 Cycle   9  Pass 1  IDiag  1:
 Density matrix breaks symmetry, PCut= 1.00D-07
 Density has only Abelian symmetry.
 RMSU=  4.43D-09    CP:  1.00D+00  1.09D+00  1.14D+00  1.43D+00  1.24D+00
                    CP:  1.26D+00  7.47D-01  8.36D-01
 CoulSu:  requested number of processors reduced to:   2 ShMem   1 Linda.
 E= -122.647351833838     Delta-E=       -0.000000000003 Rises=F Damp=F
 DIIS: error= 6.33D-08 at cycle   9 NSaved=   9.
 NSaved= 9 IEnMin= 9 EnMin= -122.647351833838     IErMin= 9 ErrMin= 6.33D-08
 ErrMax= 6.33D-08  0.00D+00 EMaxC= 1.00D-01 BMatC= 1.32D-13 BMatP= 1.79D-12
 IDIUse=1 WtCom= 1.00D+00 WtEn= 0.00D+00
 Coeff-Com:  0.696D-06-0.511D-04 0.672D-03 0.262D-02 0.452D-02-0.294D-01
 Coeff-Com:  0.171D-01-0.254D+00 0.126D+01
 Coeff:      0.696D-06-0.511D-04 0.672D-03 0.262D-02 0.452D-02-0.294D-01
 Coeff:      0.171D-01-0.254D+00 0.126D+01
 Gap=     0.130 Goal=   None    Shift=    0.100
 RMSDP=4.77D-09 MaxDP=3.29D-07 DE=-3.35D-12 OVMax= 3.02D-07

 Density matrix breaks symmetry, PCut= 1.00D-07
 Density has only Abelian symmetry.
 SCF Done:  E(ROHF) =  -122.647351834     A.U. after    9 cycles
            NFock=  9  Conv=0.48D-08     -V/T= 2.7068
 <Sx>= 0.0000 <Sy>= 0.0000 <Sz>= 2.0000 <S**2>= 6.0000 S= 2.0000
 <L.S>= 0.000000000000E+00
 KE= 7.186000859622D+01 PE=-2.876645660636D+02 EE= 9.315720563354D+01
 Annihilation of the first spin contaminant:
 S**2 before annihilation     6.0000,   after     6.0000
 Leave Link  502 at Sun Dec 16 16:22:24 2018, MaxMem=   134217728 cpu:      2669.7
 (Enter /usr/local/apps/g09.d01/g09/l601.exe)
 Copying SCF densities to generalized density rwf, IOpCl= 0 IROHF=1.

 **********************************************************************

            Population analysis using the SCF density.

 **********************************************************************

 Orbital symmetries:
       Occupied  (A1G) (T1U) (T1U) (T1U) (?A) (?A) (?A) (T2G) (T2G)
                 (T2G)
       Virtual   (?B) (?B) (?B) (A1G) (?B) (?B) (?B) (?A) (T2G)
                 (T2G) (?A) (T2G) (?A) (?B) (?B) (?B) (?A) (T2G)
                 (T2G) (?A) (T2G) (?A) (?B) (?B) (?B) (A2U) (?B)
                 (?B) (?B) (T1U) (T1U) (T1U) (?A) (?C) (?C) (?A)
                 (?C) (?A) (?C) (?C) (?C) (?A) (?C) (?C) (?C) (?A)
                 (?A) (?D) (?D) (?D) (A2U) (?D) (?D) (?D) (?D)
                 (?D) (?D) (?A) (T2G) (T2G) (T2G) (?A) (?E) (?E)
                 (?E) (EU) (?E) (?E) (?E) (EU) (?E) (?E) (?E) (?F)
                 (?F) (?F) (A2U) (?F) (?F) (?F) (T2G) (?F) (?F)
                 (?F) (T2G) (?F) (?F) (?F) (T2G) (T2G) (T1U) (T1U)
                 (T1U) (T2G) (T2G) (T2G) (T2G) (T2G) (?F) (?F)
                 (?F) (A2U) (?F) (?F) (?F) (?F) (?F) (?F) (?F)
                 (?F) (?F) (?F) (?F) (?F) (?F) (?F) (?F) (?F) (?F)
                 (?F) (?F) (?F) (?F) (?F) (?F) (?F) (?F) (?F) (?F)
                 (?F) (EU) (?F) (?F) (?F) (EU) (?F) (?F) (?F) (T1U)
                 (T1U) (T1U) (?F) (?F) (?F) (?F) (?F) (?F) (?F)
                 (?F) (A2U) (?F) (?F) (?F) (?F) (?F) (?F) (?F)
                 (?F) (?F) (?F) (?F) (?F) (?F) (?F) (?F) (EU) (?F)
                 (?F) (?F) (EU) (?F) (?F) (?F) (?F) (?F) (?F) (?F)
                 (?F) (?F) (?F) (?F) (?F) (?F) (?F) (?F) (?F) (A1G)
                 (T1U) (T1U) (T1U)
 Unable to determine electronic state:  an orbital has unidentified symmetry.
 Alpha  occ. eigenvalues --   -4.21359  -2.69438  -2.69438  -2.67721  -0.52256
 Alpha  occ. eigenvalues --   -0.25695  -0.12591  -0.11798  -0.11798  -0.09439
 Alpha virt. eigenvalues --    0.03515   0.03851   0.03851   0.06647   0.17098
 Alpha virt. eigenvalues --    0.17590   0.17590   0.24094   0.24168   0.24168
 Alpha virt. eigenvalues --    0.24333   0.24401   0.33292   0.60810   0.61771
 Alpha virt. eigenvalues --    0.61771   0.80170   0.80432   0.80432   0.80794
 Alpha virt. eigenvalues --    0.81255   1.08039   1.16269   1.16361   1.16361
 Alpha virt. eigenvalues --    1.16640   1.16647   1.17122   1.17122   1.85648
 Alpha virt. eigenvalues --    1.87650   1.87650   2.23468   2.23973   2.23973
 Alpha virt. eigenvalues --    2.24960   2.25543   3.06887   3.06965   3.06965
 Alpha virt. eigenvalues --    3.07104   3.07587   3.08004   3.08004   3.08936
 Alpha virt. eigenvalues --    3.08954   3.33917   3.39788   3.40036   3.40036
 Alpha virt. eigenvalues --    3.40777   3.40854   3.42122   3.42122   5.11991
 Alpha virt. eigenvalues --    5.15491   5.15492   5.72529   5.73256   5.73256
 Alpha virt. eigenvalues --    5.75504   5.75794   7.54529   7.54570   7.54570
 Alpha virt. eigenvalues --    7.54623   7.55653   7.55991   7.55991   7.56850
 Alpha virt. eigenvalues --    7.56969   7.58383   7.58383   8.60770   8.61154
 Alpha virt. eigenvalues --    8.61154   8.62119   8.62829   8.64881   8.64881
 Alpha virt. eigenvalues --    8.99906   9.00054   9.00054   9.00301   9.01527
 Alpha virt. eigenvalues --    9.02397   9.02397   9.04448   9.04494  10.94407
 Alpha virt. eigenvalues --   13.05559  13.10460  13.10460  14.28674  14.29527
 Alpha virt. eigenvalues --   14.29527  14.32170  14.33613  19.44785  19.45196
 Alpha virt. eigenvalues --   19.45196  19.46110  19.47648  19.50155  19.50155
 Alpha virt. eigenvalues --   20.49922  20.49924  20.49924  20.49927  20.51719
 Alpha virt. eigenvalues --   20.51990  20.51990  20.52655  20.53034  20.54294
 Alpha virt. eigenvalues --   20.54294  20.56378  20.56383  21.14563  21.14730
 Alpha virt. eigenvalues --   21.14730  21.14996  21.16825  21.17936  21.17936
 Alpha virt. eigenvalues --   21.20681  21.20765  22.90640  22.90686  22.90686
 Alpha virt. eigenvalues --   22.90743  22.92699  22.93246  22.93246  22.94683
 Alpha virt. eigenvalues --   22.94927  22.97373  22.97373  32.12680  32.17950
 Alpha virt. eigenvalues --   32.17950  38.66715  38.67504  38.67504  38.69870
 Alpha virt. eigenvalues --   38.71549  39.12859  39.13254  39.13254  39.14108
 Alpha virt. eigenvalues --   39.15807  39.18323  39.18323  41.30790  41.30964
 Alpha virt. eigenvalues --   41.30964  41.31238  41.33133  41.34282  41.34282
 Alpha virt. eigenvalues --   41.37127  41.37219  49.39214  49.39270  49.39270
 Alpha virt. eigenvalues --   49.39338  49.41399  49.41995  49.41995  49.43551
 Alpha virt. eigenvalues --   49.43803  49.46431  49.46431  51.64359  51.64360
 Alpha virt. eigenvalues --   51.64360  51.64362  51.66570  51.66898  51.66898
 Alpha virt. eigenvalues --   51.67702  51.68174  51.69709  51.69709  51.72261
 Alpha virt. eigenvalues --   51.72267  77.01079  86.20450  86.23924  86.23924
     Molecular Orbital Coefficients:
                           1         2         3         4         5
                       (A1G)--O  (T1U)--O  (T1U)--O  (T1U)--O      O
     Eigenvalues --    -4.21359  -2.69438  -2.69438  -2.67721  -0.52256
   1 1   Fe 1S          0.15583   0.00000   0.00000   0.00000   0.00000
   2        2S          0.00058   0.00000   0.00000   0.00000   0.00000
   3        3S         -0.00233   0.00000   0.00000   0.00000   0.00000
   4        4S         -0.22055   0.00000   0.00000   0.00000   0.00000
   5        5S          0.74983   0.00000   0.00000   0.00000   0.00000
   6        6S         -0.29759   0.00000   0.00000   0.00000   0.00000
   7        7S         -0.00008   0.00000   0.00000   0.00000   0.00000
   8        8S          0.00000   0.00000   0.00000   0.00000   0.00000
   9        9PX         0.00000  -0.32569   0.00000   0.00000   0.00000
  10        9PY         0.00000   0.00000   0.00000  -0.32632   0.00000
  11        9PZ         0.00000   0.00000  -0.32569   0.00000   0.00000
  12       10PX         0.00000  -0.18196   0.00000   0.00000   0.00000
  13       10PY         0.00000   0.00000   0.00000  -0.17739   0.00000
  14       10PZ         0.00000   0.00000  -0.18196   0.00000   0.00000
  15       11PX         0.00000  -0.07818   0.00000   0.00000   0.00000
  16       11PY         0.00000   0.00000   0.00000  -0.07741   0.00000
  17       11PZ         0.00000   0.00000  -0.07818   0.00000   0.00000
  18       12PX         0.00000   0.16645   0.00000   0.00000   0.00000
  19       12PY         0.00000   0.00000   0.00000   0.16587   0.00000
  20       12PZ         0.00000   0.00000   0.16645   0.00000   0.00000
  21       13PX         0.00000   0.55960   0.00000   0.00000   0.00000
  22       13PY         0.00000   0.00000   0.00000   0.55942   0.00000
  23       13PZ         0.00000   0.00000   0.55960   0.00000   0.00000
  24       14PX         0.00000   0.14465   0.00000   0.00000   0.00000
  25       14PY         0.00000   0.00000   0.00000   0.14625   0.00000
  26       14PZ         0.00000   0.00000   0.14465   0.00000   0.00000
  27       15PX         0.00000   0.00001   0.00000   0.00000   0.00000
  28       15PY         0.00000   0.00000   0.00000   0.00001   0.00000
  29       15PZ         0.00000   0.00000   0.00001   0.00000   0.00000
  30       16PX         0.00000  -0.00120   0.00000   0.00000   0.00000
  31       16PY         0.00000   0.00000   0.00000  -0.00190   0.00000
  32       16PZ         0.00000   0.00000  -0.00120   0.00000   0.00000
  33       17PX         0.00000   0.00025   0.00000   0.00000   0.00000
  34       17PY         0.00000   0.00000   0.00000   0.00049   0.00000
  35       17PZ         0.00000   0.00000   0.00025   0.00000   0.00000
  36       18D 0        0.00118   0.00000   0.00000   0.00000  -0.23600
  37       18D+1        0.00000   0.00000   0.00000   0.00000   0.00000
  38       18D-1        0.00000   0.00000   0.00000   0.00000   0.00000
  39       18D+2        0.00204   0.00000   0.00000   0.00000   0.13626
  40       18D-2        0.00000   0.00000   0.00000   0.00000   0.00000
  41       19D 0        0.00067   0.00000   0.00000   0.00000  -0.03266
  42       19D+1        0.00000   0.00000   0.00000   0.00000   0.00000
  43       19D-1        0.00000   0.00000   0.00000   0.00000   0.00000
  44       19D+2        0.00117   0.00000   0.00000   0.00000   0.01886
  45       19D-2        0.00000   0.00000   0.00000   0.00000   0.00000
  46       20D 0       -0.00112   0.00000   0.00000   0.00000  -0.26674
  47       20D+1        0.00000   0.00000   0.00000   0.00000   0.00000
  48       20D-1        0.00000   0.00000   0.00000   0.00000   0.00000
  49       20D+2       -0.00195   0.00000   0.00000   0.00000   0.15400
  50       20D-2        0.00000   0.00000   0.00000   0.00000   0.00000
  51       21D 0       -0.00061   0.00000   0.00000   0.00000   0.23459
  52       21D+1        0.00000   0.00000   0.00000   0.00000   0.00000
  53       21D-1        0.00000   0.00000   0.00000   0.00000   0.00000
  54       21D+2       -0.00106   0.00000   0.00000   0.00000  -0.13544
  55       21D-2        0.00000   0.00000   0.00000   0.00000   0.00000
  56       22D 0       -0.00032   0.00000   0.00000   0.00000   0.34089
  57       22D+1        0.00000   0.00000   0.00000   0.00000   0.00000
  58       22D-1        0.00000   0.00000   0.00000   0.00000   0.00000
  59       22D+2       -0.00055   0.00000   0.00000   0.00000  -0.19682
  60       22D-2        0.00000   0.00000   0.00000   0.00000   0.00000
  61       23D 0        0.00002   0.00000   0.00000   0.00000  -0.01803
  62       23D+1        0.00000   0.00000   0.00000   0.00000   0.00000
  63       23D-1        0.00000   0.00000   0.00000   0.00000   0.00000
  64       23D+2        0.00004   0.00000   0.00000   0.00000   0.01041
  65       23D-2        0.00000   0.00000   0.00000   0.00000   0.00000
  66       24D 0       -0.00006   0.00000   0.00000   0.00000   0.00036
  67       24D+1        0.00000   0.00000   0.00000   0.00000   0.00000
  68       24D-1        0.00000   0.00000   0.00000   0.00000   0.00000
  69       24D+2       -0.00010   0.00000   0.00000   0.00000  -0.00021
  70       24D-2        0.00000   0.00000   0.00000   0.00000   0.00000
  71       25F 0        0.00000   0.00000  -0.00117   0.00000   0.00000
  72       25F+1        0.00000   0.00111   0.00000   0.00000   0.00000
  73       25F-1        0.00000   0.00000   0.00000   0.00000   0.00000
  74       25F+2        0.00000   0.00000   0.00050   0.00000   0.00000
  75       25F-2        0.00000   0.00000   0.00000   0.00000   0.00000
  76       25F+3        0.00000  -0.00062   0.00000   0.00000   0.00000
  77       25F-3        0.00000   0.00000   0.00000   0.00000   0.00000
  78       26F 0        0.00000   0.00000  -0.00227   0.00000   0.00000
  79       26F+1        0.00000   0.00345   0.00000   0.00000   0.00000
  80       26F-1        0.00000   0.00000   0.00000   0.00116   0.00000
  81       26F+2        0.00000   0.00000   0.00260   0.00000   0.00000
  82       26F-2        0.00000   0.00000   0.00000   0.00000   0.00000
  83       26F+3        0.00000  -0.00020   0.00000   0.00000   0.00000
  84       26F-3        0.00000   0.00000   0.00000   0.00149   0.00000
  85       27F 0        0.00000   0.00000  -0.00128   0.00000   0.00000
  86       27F+1        0.00000   0.00300   0.00000   0.00000   0.00000
  87       27F-1        0.00000   0.00000   0.00000   0.00160   0.00000
  88       27F+2        0.00000   0.00000   0.00280   0.00000   0.00000
  89       27F-2        0.00000   0.00000   0.00000   0.00000   0.00000
  90       27F+3        0.00000   0.00070   0.00000   0.00000   0.00000
  91       27F-3        0.00000   0.00000   0.00000   0.00207   0.00000
  92       28F 0        0.00000   0.00000  -0.00061   0.00000   0.00000
  93       28F+1        0.00000   0.00092   0.00000   0.00000   0.00000
  94       28F-1        0.00000   0.00000   0.00000   0.00031   0.00000
  95       28F+2        0.00000   0.00000   0.00069   0.00000   0.00000
  96       28F-2        0.00000   0.00000   0.00000   0.00000   0.00000
  97       28F+3        0.00000  -0.00006   0.00000   0.00000   0.00000
  98       28F-3        0.00000   0.00000   0.00000   0.00040   0.00000
  99       29F 0        0.00000   0.00000   0.00015   0.00000   0.00000
 100       29F+1        0.00000  -0.00020   0.00000   0.00000   0.00000
 101       29F-1        0.00000   0.00000   0.00000  -0.00005   0.00000
 102       29F+2        0.00000   0.00000  -0.00014   0.00000   0.00000
 103       29F-2        0.00000   0.00000   0.00000   0.00000   0.00000
 104       29F+3        0.00000   0.00004   0.00000   0.00000   0.00000
 105       29F-3        0.00000   0.00000   0.00000  -0.00006   0.00000
 106       30G 0        0.00041   0.00000   0.00000   0.00000   0.00058
 107       30G+1        0.00000   0.00000   0.00000   0.00000   0.00000
 108       30G-1        0.00000   0.00000   0.00000   0.00000   0.00000
 109       30G+2       -0.00030   0.00000   0.00000   0.00000   0.00052
 110       30G-2        0.00000   0.00000   0.00000   0.00000   0.00000
 111       30G+3        0.00000   0.00000   0.00000   0.00000   0.00000
 112       30G-3        0.00000   0.00000   0.00000   0.00000   0.00000
 113       30G+4        0.00012   0.00000   0.00000   0.00000  -0.00068
 114       30G-4        0.00000   0.00000   0.00000   0.00000   0.00000
 115       31G 0        0.00047   0.00000   0.00000   0.00000   0.00061
 116       31G+1        0.00000   0.00000   0.00000   0.00000   0.00000
 117       31G-1        0.00000   0.00000   0.00000   0.00000   0.00000
 118       31G+2       -0.00034   0.00000   0.00000   0.00000   0.00054
 119       31G-2        0.00000   0.00000   0.00000   0.00000   0.00000
 120       31G+3        0.00000   0.00000   0.00000   0.00000   0.00000
 121       31G-3        0.00000   0.00000   0.00000   0.00000   0.00000
 122       31G+4        0.00014   0.00000   0.00000   0.00000  -0.00072
 123       31G-4        0.00000   0.00000   0.00000   0.00000   0.00000
 124       32G 0        0.00037   0.00000   0.00000   0.00000   0.00018
 125       32G+1        0.00000   0.00000   0.00000   0.00000   0.00000
 126       32G-1        0.00000   0.00000   0.00000   0.00000   0.00000
 127       32G+2       -0.00026   0.00000   0.00000   0.00000   0.00017
 128       32G-2        0.00000   0.00000   0.00000   0.00000   0.00000
 129       32G+3        0.00000   0.00000   0.00000   0.00000   0.00000
 130       32G-3        0.00000   0.00000   0.00000   0.00000   0.00000
 131       32G+4        0.00011   0.00000   0.00000   0.00000  -0.00022
 132       32G-4        0.00000   0.00000   0.00000   0.00000   0.00000
 133       33G 0       -0.00026   0.00000   0.00000   0.00000   0.00003
 134       33G+1        0.00000   0.00000   0.00000   0.00000   0.00000
 135       33G-1        0.00000   0.00000   0.00000   0.00000   0.00000
 136       33G+2        0.00018   0.00000   0.00000   0.00000   0.00003
 137       33G-2        0.00000   0.00000   0.00000   0.00000   0.00000
 138       33G+3        0.00000   0.00000   0.00000   0.00000   0.00000
 139       33G-3        0.00000   0.00000   0.00000   0.00000   0.00000
 140       33G+4       -0.00008   0.00000   0.00000   0.00000  -0.00003
 141       33G-4        0.00000   0.00000   0.00000   0.00000   0.00000
 142       34H 0        0.00000   0.00000   0.00004   0.00000   0.00000
 143       34H+1        0.00000   0.00004   0.00000   0.00000   0.00000
 144       34H-1        0.00000   0.00000   0.00000   0.00002   0.00000
 145       34H+2        0.00000   0.00000  -0.00003   0.00000   0.00000
 146       34H-2        0.00000   0.00000   0.00000   0.00000   0.00000
 147       34H+3        0.00000  -0.00003   0.00000   0.00000   0.00000
 148       34H-3        0.00000   0.00000   0.00000  -0.00002   0.00000
 149       34H+4        0.00000   0.00000   0.00000   0.00000   0.00000
 150       34H-4        0.00000   0.00000   0.00000   0.00000   0.00000
 151       34H+5        0.00000   0.00001   0.00000   0.00000   0.00000
 152       34H-5        0.00000   0.00000   0.00000   0.00001   0.00000
 153       35H 0        0.00000   0.00000   0.00017   0.00000   0.00000
 154       35H+1        0.00000   0.00018   0.00000   0.00000   0.00000
 155       35H-1        0.00000   0.00000   0.00000   0.00009   0.00000
 156       35H+2        0.00000   0.00000  -0.00011   0.00000   0.00000
 157       35H-2        0.00000   0.00000   0.00000   0.00000   0.00000
 158       35H+3        0.00000  -0.00010   0.00000   0.00000   0.00000
 159       35H-3        0.00000   0.00000   0.00000  -0.00009   0.00000
 160       35H+4        0.00000   0.00000   0.00003   0.00000   0.00000
 161       35H-4        0.00000   0.00000   0.00000   0.00000   0.00000
 162       35H+5        0.00000   0.00005   0.00000   0.00000   0.00000
 163       35H-5        0.00000   0.00000   0.00000   0.00005   0.00000
 164       36H 0        0.00000   0.00000  -0.00001   0.00000   0.00000
 165       36H+1        0.00000  -0.00001   0.00000   0.00000   0.00000
 166       36H-1        0.00000   0.00000   0.00000   0.00000   0.00000
 167       36H+2        0.00000   0.00000   0.00001   0.00000   0.00000
 168       36H-2        0.00000   0.00000   0.00000   0.00000   0.00000
 169       36H+3        0.00000   0.00000   0.00000   0.00000   0.00000
 170       36H-3        0.00000   0.00000   0.00000   0.00000   0.00000
 171       36H+4        0.00000   0.00000   0.00000   0.00000   0.00000
 172       36H-4        0.00000   0.00000   0.00000   0.00000   0.00000
 173       36H+5        0.00000   0.00000   0.00000   0.00000   0.00000
 174       36H-5        0.00000   0.00000   0.00000   0.00000   0.00000
 175       37I 0        0.00000   0.00000   0.00000   0.00000   0.00026
 176       37I+1        0.00000   0.00000   0.00000   0.00000   0.00000
 177       37I-1        0.00000   0.00000   0.00000   0.00000   0.00000
 178       37I+2        0.00000   0.00000   0.00000   0.00000  -0.00022
 179       37I-2        0.00000   0.00000   0.00000   0.00000   0.00000
 180       37I+3        0.00000   0.00000   0.00000   0.00000   0.00000
 181       37I-3        0.00000   0.00000   0.00000   0.00000   0.00000
 182       37I+4        0.00000   0.00000   0.00000   0.00000   0.00010
 183       37I-4        0.00000   0.00000   0.00000   0.00000   0.00000
 184       37I+5        0.00000   0.00000   0.00000   0.00000   0.00000
 185       37I-5        0.00000   0.00000   0.00000   0.00000   0.00000
 186       37I+6        0.00000   0.00000   0.00000   0.00000  -0.00004
 187       37I-6        0.00000   0.00000   0.00000   0.00000   0.00000
 188       38I 0        0.00000   0.00000   0.00000   0.00000   0.00006
 189       38I+1        0.00000   0.00000   0.00000   0.00000   0.00000
 190       38I-1        0.00000   0.00000   0.00000   0.00000   0.00000
 191       38I+2        0.00000   0.00000   0.00000   0.00000  -0.00005
 192       38I-2        0.00000   0.00000   0.00000   0.00000   0.00000
 193       38I+3        0.00000   0.00000   0.00000   0.00000   0.00000
 194       38I-3        0.00000   0.00000   0.00000   0.00000   0.00000
 195       38I+4        0.00000   0.00000   0.00000   0.00000   0.00002
 196       38I-4        0.00000   0.00000   0.00000   0.00000   0.00000
 197       38I+5        0.00000   0.00000   0.00000   0.00000   0.00000
 198       38I-5        0.00000   0.00000   0.00000   0.00000   0.00000
 199       38I+6        0.00000   0.00000   0.00000   0.00000  -0.00001
 200       38I-6        0.00000   0.00000   0.00000   0.00000   0.00000
                           6         7         8         9        10
                           O         O     (T2G)--O  (T2G)--O  (T2G)--O
     Eigenvalues --    -0.25695  -0.12591  -0.11798  -0.11798  -0.09439
   1 1   Fe 1S          0.02498  -0.00025   0.00000   0.00000   0.00000
   2        2S          0.30287  -0.00348   0.00000   0.00000   0.00000
   3        3S          0.63989  -0.00563   0.00000   0.00000   0.00000
   4        4S          0.10351  -0.00204   0.00000   0.00000   0.00000
   5        5S         -0.15503   0.00262   0.00000   0.00000   0.00000
   6        6S          0.01297   0.00155   0.00000   0.00000   0.00000
   7        7S          0.12812  -0.00106   0.00000   0.00000   0.00000
   8        8S          0.00001  -0.00002   0.00000   0.00000   0.00000
   9        9PX         0.00000   0.00000   0.00000   0.00000   0.00000
  10        9PY         0.00000   0.00000   0.00000   0.00000   0.00000
  11        9PZ         0.00000   0.00000   0.00000   0.00000   0.00000
  12       10PX         0.00000   0.00000   0.00000   0.00000   0.00000
  13       10PY         0.00000   0.00000   0.00000   0.00000   0.00000
  14       10PZ         0.00000   0.00000   0.00000   0.00000   0.00000
  15       11PX         0.00000   0.00000   0.00000   0.00000   0.00000
  16       11PY         0.00000   0.00000   0.00000   0.00000   0.00000
  17       11PZ         0.00000   0.00000   0.00000   0.00000   0.00000
  18       12PX         0.00000   0.00000   0.00000   0.00000   0.00000
  19       12PY         0.00000   0.00000   0.00000   0.00000   0.00000
  20       12PZ         0.00000   0.00000   0.00000   0.00000   0.00000
  21       13PX         0.00000   0.00000   0.00000   0.00000   0.00000
  22       13PY         0.00000   0.00000   0.00000   0.00000   0.00000
  23       13PZ         0.00000   0.00000   0.00000   0.00000   0.00000
  24       14PX         0.00000   0.00000   0.00000   0.00000   0.00000
  25       14PY         0.00000   0.00000   0.00000   0.00000   0.00000
  26       14PZ         0.00000   0.00000   0.00000   0.00000   0.00000
  27       15PX         0.00000   0.00000   0.00000   0.00000   0.00000
  28       15PY         0.00000   0.00000   0.00000   0.00000   0.00000
  29       15PZ         0.00000   0.00000   0.00000   0.00000   0.00000
  30       16PX         0.00000   0.00000   0.00000   0.00000   0.00000
  31       16PY         0.00000   0.00000   0.00000   0.00000   0.00000
  32       16PZ         0.00000   0.00000   0.00000   0.00000   0.00000
  33       17PX         0.00000   0.00000   0.00000   0.00000   0.00000
  34       17PY         0.00000   0.00000   0.00000   0.00000   0.00000
  35       17PZ         0.00000   0.00000   0.00000   0.00000   0.00000
  36       18D 0       -0.00069  -0.13996   0.00000   0.00000   0.00000
  37       18D+1        0.00000   0.00000   0.00000   0.00000  -0.27850
  38       18D-1        0.00000   0.00000  -0.27960   0.00000   0.00000
  39       18D+2       -0.00120  -0.24242   0.00000   0.00000   0.00000
  40       18D-2        0.00000   0.00000   0.00000  -0.27960   0.00000
  41       19D 0       -0.00242  -0.00771   0.00000   0.00000   0.00000
  42       19D+1        0.00000   0.00000   0.00000   0.00000  -0.01998
  43       19D-1        0.00000   0.00000  -0.01654   0.00000   0.00000
  44       19D+2       -0.00419  -0.01336   0.00000   0.00000   0.00000
  45       19D-2        0.00000   0.00000   0.00000  -0.01654   0.00000
  46       20D 0       -0.00019  -0.16230   0.00000   0.00000   0.00000
  47       20D+1        0.00000   0.00000   0.00000   0.00000  -0.32114
  48       20D-1        0.00000   0.00000  -0.32372   0.00000   0.00000
  49       20D+2       -0.00034  -0.28111   0.00000   0.00000   0.00000
  50       20D-2        0.00000   0.00000   0.00000  -0.32372   0.00000
  51       21D 0        0.00410   0.12279   0.00000   0.00000   0.00000
  52       21D+1        0.00000   0.00000   0.00000   0.00000   0.25158
  53       21D-1        0.00000   0.00000   0.24716   0.00000   0.00000
  54       21D+2        0.00711   0.21268   0.00000   0.00000   0.00000
  55       21D-2        0.00000   0.00000   0.00000   0.24716   0.00000
  56       22D 0        0.00072   0.20336   0.00000   0.00000   0.00000
  57       22D+1        0.00000   0.00000   0.00000   0.00000   0.40389
  58       22D-1        0.00000   0.00000   0.40603   0.00000   0.00000
  59       22D+2        0.00125   0.35222   0.00000   0.00000   0.00000
  60       22D-2        0.00000   0.00000   0.00000   0.40603   0.00000
  61       23D 0       -0.00298  -0.00469   0.00000   0.00000   0.00000
  62       23D+1        0.00000   0.00000   0.00000   0.00000  -0.01139
  63       23D-1        0.00000   0.00000  -0.00988   0.00000   0.00000
  64       23D+2       -0.00516  -0.00812   0.00000   0.00000   0.00000
  65       23D-2        0.00000   0.00000   0.00000  -0.00988   0.00000
  66       24D 0        0.00002  -0.00014   0.00000   0.00000   0.00000
  67       24D+1        0.00000   0.00000   0.00000   0.00000  -0.00008
  68       24D-1        0.00000   0.00000  -0.00023   0.00000   0.00000
  69       24D+2        0.00003  -0.00024   0.00000   0.00000   0.00000
  70       24D-2        0.00000   0.00000   0.00000  -0.00023   0.00000
  71       25F 0        0.00000   0.00000   0.00000   0.00000   0.00000
  72       25F+1        0.00000   0.00000   0.00000   0.00000   0.00000
  73       25F-1        0.00000   0.00000   0.00000   0.00000   0.00000
  74       25F+2        0.00000   0.00000   0.00000   0.00000   0.00000
  75       25F-2        0.00000   0.00000   0.00000   0.00000   0.00000
  76       25F+3        0.00000   0.00000   0.00000   0.00000   0.00000
  77       25F-3        0.00000   0.00000   0.00000   0.00000   0.00000
  78       26F 0        0.00000   0.00000   0.00000   0.00000   0.00000
  79       26F+1        0.00000   0.00000   0.00000   0.00000   0.00000
  80       26F-1        0.00000   0.00000   0.00000   0.00000   0.00000
  81       26F+2        0.00000   0.00000   0.00000   0.00000   0.00000
  82       26F-2        0.00000   0.00000   0.00000   0.00000   0.00000
  83       26F+3        0.00000   0.00000   0.00000   0.00000   0.00000
  84       26F-3        0.00000   0.00000   0.00000   0.00000   0.00000
  85       27F 0        0.00000   0.00000   0.00000   0.00000   0.00000
  86       27F+1        0.00000   0.00000   0.00000   0.00000   0.00000
  87       27F-1        0.00000   0.00000   0.00000   0.00000   0.00000
  88       27F+2        0.00000   0.00000   0.00000   0.00000   0.00000
  89       27F-2        0.00000   0.00000   0.00000   0.00000   0.00000
  90       27F+3        0.00000   0.00000   0.00000   0.00000   0.00000
  91       27F-3        0.00000   0.00000   0.00000   0.00000   0.00000
  92       28F 0        0.00000   0.00000   0.00000   0.00000   0.00000
  93       28F+1        0.00000   0.00000   0.00000   0.00000   0.00000
  94       28F-1        0.00000   0.00000   0.00000   0.00000   0.00000
  95       28F+2        0.00000   0.00000   0.00000   0.00000   0.00000
  96       28F-2        0.00000   0.00000   0.00000   0.00000   0.00000
  97       28F+3        0.00000   0.00000   0.00000   0.00000   0.00000
  98       28F-3        0.00000   0.00000   0.00000   0.00000   0.00000
  99       29F 0        0.00000   0.00000   0.00000   0.00000   0.00000
 100       29F+1        0.00000   0.00000   0.00000   0.00000   0.00000
 101       29F-1        0.00000   0.00000   0.00000   0.00000   0.00000
 102       29F+2        0.00000   0.00000   0.00000   0.00000   0.00000
 103       29F-2        0.00000   0.00000   0.00000   0.00000   0.00000
 104       29F+3        0.00000   0.00000   0.00000   0.00000   0.00000
 105       29F-3        0.00000   0.00000   0.00000   0.00000   0.00000
 106       30G 0       -0.00007   0.00155   0.00000   0.00000   0.00000
 107       30G+1        0.00000   0.00000   0.00000   0.00000   0.00052
 108       30G-1        0.00000   0.00000   0.00207   0.00000   0.00000
 109       30G+2        0.00010   0.00073   0.00000   0.00000   0.00000
 110       30G-2        0.00000   0.00000   0.00000   0.00027   0.00000
 111       30G+3        0.00000   0.00000   0.00000   0.00000   0.00138
 112       30G-3        0.00000   0.00000   0.00107   0.00000   0.00000
 113       30G+4        0.00001   0.00187   0.00000   0.00000   0.00000
 114       30G-4        0.00000   0.00000   0.00000   0.00231   0.00000
 115       31G 0        0.00011   0.00201   0.00000   0.00000   0.00000
 116       31G+1        0.00000   0.00000   0.00000   0.00000   0.00055
 117       31G-1        0.00000   0.00000   0.00247   0.00000   0.00000
 118       31G+2       -0.00007   0.00058   0.00000   0.00000   0.00000
 119       31G-2        0.00000   0.00000   0.00000   0.00009   0.00000
 120       31G+3        0.00000   0.00000   0.00000   0.00000   0.00146
 121       31G-3        0.00000   0.00000   0.00103   0.00000   0.00000
 122       31G+4        0.00004   0.00214   0.00000   0.00000   0.00000
 123       31G-4        0.00000   0.00000   0.00000   0.00268   0.00000
 124       32G 0       -0.00004   0.00061   0.00000   0.00000   0.00000
 125       32G+1        0.00000   0.00000   0.00000   0.00000   0.00018
 126       32G-1        0.00000   0.00000   0.00078   0.00000   0.00000
 127       32G+2        0.00003   0.00023   0.00000   0.00000   0.00000
 128       32G-2        0.00000   0.00000   0.00000   0.00007   0.00000
 129       32G+3        0.00000   0.00000   0.00000   0.00000   0.00048
 130       32G-3        0.00000   0.00000   0.00036   0.00000   0.00000
 131       32G+4       -0.00001   0.00069   0.00000   0.00000   0.00000
 132       32G-4        0.00000   0.00000   0.00000   0.00085   0.00000
 133       33G 0        0.00007   0.00014   0.00000   0.00000   0.00000
 134       33G+1        0.00000   0.00000   0.00000   0.00000   0.00002
 135       33G-1        0.00000   0.00000   0.00014   0.00000   0.00000
 136       33G+2       -0.00005  -0.00003   0.00000   0.00000   0.00000
 137       33G-2        0.00000   0.00000   0.00000  -0.00004   0.00000
 138       33G+3        0.00000   0.00000   0.00000   0.00000   0.00005
 139       33G-3        0.00000   0.00000   0.00001   0.00000   0.00000
 140       33G+4        0.00002   0.00009   0.00000   0.00000   0.00000
 141       33G-4        0.00000   0.00000   0.00000   0.00013   0.00000
 142       34H 0        0.00000   0.00000   0.00000   0.00000   0.00000
 143       34H+1        0.00000   0.00000   0.00000   0.00000   0.00000
 144       34H-1        0.00000   0.00000   0.00000   0.00000   0.00000
 145       34H+2        0.00000   0.00000   0.00000   0.00000   0.00000
 146       34H-2        0.00000   0.00000   0.00000   0.00000   0.00000
 147       34H+3        0.00000   0.00000   0.00000   0.00000   0.00000
 148       34H-3        0.00000   0.00000   0.00000   0.00000   0.00000
 149       34H+4        0.00000   0.00000   0.00000   0.00000   0.00000
 150       34H-4        0.00000   0.00000   0.00000   0.00000   0.00000
 151       34H+5        0.00000   0.00000   0.00000   0.00000   0.00000
 152       34H-5        0.00000   0.00000   0.00000   0.00000   0.00000
 153       35H 0        0.00000   0.00000   0.00000   0.00000   0.00000
 154       35H+1        0.00000   0.00000   0.00000   0.00000   0.00000
 155       35H-1        0.00000   0.00000   0.00000   0.00000   0.00000
 156       35H+2        0.00000   0.00000   0.00000   0.00000   0.00000
 157       35H-2        0.00000   0.00000   0.00000   0.00000   0.00000
 158       35H+3        0.00000   0.00000   0.00000   0.00000   0.00000
 159       35H-3        0.00000   0.00000   0.00000   0.00000   0.00000
 160       35H+4        0.00000   0.00000   0.00000   0.00000   0.00000
 161       35H-4        0.00000   0.00000   0.00000   0.00000   0.00000
 162       35H+5        0.00000   0.00000   0.00000   0.00000   0.00000
 163       35H-5        0.00000   0.00000   0.00000   0.00000   0.00000
 164       36H 0        0.00000   0.00000   0.00000   0.00000   0.00000
 165       36H+1        0.00000   0.00000   0.00000   0.00000   0.00000
 166       36H-1        0.00000   0.00000   0.00000   0.00000   0.00000
 167       36H+2        0.00000   0.00000   0.00000   0.00000   0.00000
 168       36H-2        0.00000   0.00000   0.00000   0.00000   0.00000
 169       36H+3        0.00000   0.00000   0.00000   0.00000   0.00000
 170       36H-3        0.00000   0.00000   0.00000   0.00000   0.00000
[...]
 147       34H+3        0.00000   0.00000   0.00000   0.00000
 148       34H-3        0.00000   0.00000   0.00000   0.00000
 149       34H+4        0.00000   0.00000   0.00000   0.00000
 150       34H-4        0.00000   0.00000   0.00000   0.00000
 151       34H+5        0.00000   0.00000   0.00000   0.00000
 152       34H-5        0.00000   0.00000   0.00000   0.00000
 153       35H 0        0.00000   0.00000   0.00000   0.00000
 154       35H+1        0.00000   0.00000   0.00000   0.00000
 155       35H-1        0.00000   0.00000   0.00000   0.00000
 156       35H+2        0.00000   0.00000   0.00000   0.00000
 157       35H-2        0.00000   0.00000   0.00000   0.00000
 158       35H+3        0.00000   0.00000   0.00000   0.00000
 159       35H-3        0.00000   0.00000   0.00000   0.00000
 160       35H+4        0.00000   0.00000   0.00000   0.00000
 161       35H-4        0.00000   0.00000   0.00000   0.00000
 162       35H+5        0.00000   0.00000   0.00000   0.00000
 163       35H-5        0.00000   0.00000   0.00000   0.00000
 164       36H 0        0.00000   0.00000   0.00000   0.00000
 165       36H+1        0.00000   0.00000   0.00000   0.00000
 166       36H-1        0.00000   0.00000   0.00000   0.00000
 167       36H+2        0.00000   0.00000   0.00000   0.00000
 168       36H-2        0.00000   0.00000   0.00000   0.00000
 169       36H+3        0.00000   0.00000   0.00000   0.00000
 170       36H-3        0.00000   0.00000   0.00000   0.00000
 171       36H+4        0.00000   0.00000   0.00000   0.00000
 172       36H-4        0.00000   0.00000   0.00000   0.00000
 173       36H+5        0.00000   0.00000   0.00000   0.00000
 174       36H-5        0.00000   0.00000   0.00000   0.00000
 175       37I 0        0.00000   0.00000   0.00000   0.00000
 176       37I+1        0.00000   0.00000   0.00000   0.00000
 177       37I-1        0.00000   0.00000   0.00000   0.00000
 178       37I+2        0.00000   0.00000   0.00000   0.00000
 179       37I-2        0.00000   0.00000   0.00000   0.00000
 180       37I+3        0.00000   0.00000   0.00000   0.00000
 181       37I-3        0.00000   0.00000   0.00000   0.00000
 182       37I+4        0.00000   0.00000   0.00000   0.00000
 183       37I-4        0.00000   0.00000   0.00000   0.00000
 184       37I+5        0.00000   0.00000   0.00000   0.00000
 185       37I-5        0.00000   0.00000   0.00000   0.00000
 186       37I+6        0.00000   0.00000   0.00000   0.00000
 187       37I-6        0.00000   0.00000   0.00000   0.00000
 188       38I 0        0.00000   0.00000   0.00000   0.00000
 189       38I+1        0.00000   0.00000   0.00000   0.00000
 190       38I-1        0.00000   0.00000   0.00000   0.00000
 191       38I+2        0.00000   0.00000   0.00000   0.00000
 192       38I-2        0.00000   0.00000   0.00000   0.00000
 193       38I+3        0.00000   0.00000   0.00000   0.00000
 194       38I-3        0.00000   0.00000   0.00000   0.00000
 195       38I+4        0.00000   0.00000   0.00000   0.00000
 196       38I-4        0.00000   0.00000   0.00000   0.00000
 197       38I+5        0.00000   0.00000   0.00000   0.00000
 198       38I-5        0.00000   0.00000   0.00000   0.00000
 199       38I+6        0.00000   0.00000   0.00000   0.00000
 200       38I-6        0.00000   0.00000   0.00000   0.00000
          Condensed to atoms (all electrons):
               1
     1  Fe  16.000000
          Atomic-Atomic Spin Densities.
               1
     1  Fe   4.000000
 Mulliken charges and spin densities:
               1          2
     1  Fe   0.000000   4.000000
 Sum of Mulliken charges =   0.00000   4.00000
 Mulliken charges and spin densities with hydrogens summed into heavy atoms:
               1          2
     1  Fe   0.000000   4.000000
 Electronic spatial extent (au):  <R**2>=             40.1353
 Charge=              0.0000 electrons
 Dipole moment (field-independent basis, Debye):
    X=              0.0000    Y=              0.0000    Z=              0.0000  Tot=              0.0000
 Quadrupole moment (field-independent basis, Debye-Ang):
   XX=            -18.0869   YY=            -17.8096   ZZ=            -18.0869
   XY=              0.0000   XZ=              0.0000   YZ=              0.0000
 Traceless Quadrupole moment (field-independent basis, Debye-Ang):
   XX=             -0.0924   YY=              0.1849   ZZ=             -0.0924
   XY=              0.0000   XZ=              0.0000   YZ=              0.0000
 Octapole moment (field-independent basis, Debye-Ang**2):
  XXX=              0.0000  YYY=              0.0000  ZZZ=              0.0000  XYY=              0.0000
  XXY=              0.0000  XXZ=              0.0000  XZZ=              0.0000  YZZ=              0.0000
  YYZ=              0.0000  XYZ=              0.0000
 Hexadecapole moment (field-independent basis, Debye-Ang**3):
 XXXX=            -42.0846 YYYY=            -42.8580 ZZZZ=            -42.0846 XXXY=              0.0000
 XXXZ=              0.0000 YYYX=              0.0000 YYYZ=              0.0000 ZZZX=              0.0000
 ZZZY=              0.0000 XXYY=            -14.1018 XXZZ=            -13.8135 YYZZ=            -14.1018
 XXYZ=              0.0000 YYXZ=              0.0000 ZZXY=              0.0000
 N-N= 0.000000000000D+00 E-N=-2.876645659002D+02  KE= 7.186000859622D+01
 Symmetry AG   KE= 2.661743819055D+01
 Symmetry B1G  KE= 7.378413856278D+00
 Symmetry B2G  KE= 7.309856461721D+00
 Symmetry B3G  KE= 7.378414108985D+00
 Symmetry AU   KE= 6.877680633361D-36
 Symmetry B1U  KE= 7.718219340393D+00
 Symmetry B2U  KE= 7.739447390776D+00
 Symmetry B3U  KE= 7.718219247519D+00
 Orbital energies and kinetic energies (alpha):
                                 1                 2
   1         (A1G)--O         -4.213591          2.277880
   2         (T1U)--O         -2.694377          3.859110
   3         (T1U)--O         -2.694377          3.859110
   4         (T1U)--O         -2.677209          3.869724
   5         O                -0.522556          6.979701
   6         O                -0.256952          0.350754
   7         O                -0.125915          7.400767
   8         (T2G)--O         -0.117977          7.378414
   9         (T2G)--O         -0.117977          7.378414
  10         (T2G)--O         -0.094393          7.309856
  11         V                 0.035151          0.152015
  12         V                 0.038513          0.143098
  13         V                 0.038513          0.143098
  14         (A1G)--V          0.066468          0.124353
  15         V                 0.170982          0.371406
  16         V                 0.175899          0.372575
  17         V                 0.175899          0.372575
  18         V                 0.240942          0.413428
  19         (T2G)--V          0.241678          0.414941
  20         (T2G)--V          0.241678          0.414941
  21         V                 0.243328          0.487220
  22         (T2G)--V          0.244011          0.419577
  23         V                 0.332920          0.579644
  24         V                 0.608102          1.095222
  25         V                 0.617707          1.098256
  26         V                 0.617707          1.098256
  27         V                 0.801703          1.865303
  28         (T2G)--V          0.804322          1.871687
  29         (T2G)--V          0.804322          1.871688
  30         V                 0.807938          2.074895
  31         (T2G)--V          0.812548          1.890844
  32         V                 1.080387          1.658538
  33         V                 1.162693          1.453777
  34         V                 1.163609          1.453744
  35         V                 1.163609          1.453744
  36         (A2U)--V          1.166400          1.453122
  37         V                 1.166474          1.454113
  38         V                 1.171222          1.453704
  39         V                 1.171222          1.453704
  40         (T1U)--V          1.856484          3.060590
  41         (T1U)--V          1.876501          3.066412
  42         (T1U)--V          1.876501          3.066412
  43         V                 2.234678          5.375232
  44         V                 2.239730          5.383694
  45         V                 2.239731          5.383694
  46         V                 2.249600          5.526582
  47         V                 2.255429          5.408545
  48         V                 3.068868          3.560346
  49         V                 3.069650          3.560319
  50         V                 3.069650          3.560319
  51         V                 3.071040          3.560266
  52         V                 3.075866          3.560298
  53         V                 3.080040          3.560057
  54         V                 3.080040          3.560057
  55         V                 3.089358          3.559805
  56         V                 3.089539          3.559797
  57         V                 3.339175          4.977949
  58         V                 3.397882          4.897548
  59         V                 3.400363          4.897400
  60         V                 3.400363          4.897400
  61         (A2U)--V          3.407768          4.895860
  62         V                 3.408536          4.898386
  63         V                 3.421215          4.897438
  64         V                 3.421215          4.897438
  65         V                 5.119908          7.562373
  66         V                 5.154915          7.568501
  67         V                 5.154915          7.568502
  68         V                 5.725294         12.857316
  69         (T2G)--V          5.732564         12.863365
  70         (T2G)--V          5.732564         12.863365
  71         (T2G)--V          5.755036         12.880745
  72         V                 5.757940         12.884410
  73         V                 7.545288          8.531115
  74         V                 7.545700          8.531120
  75         V                 7.545700          8.531120
  76         (EU)--V           7.546230          8.531128
  77         V                 7.556533          8.531027
  78         V                 7.559912          8.531021
  79         V                 7.559912          8.531021
  80         (EU)--V           7.568502          8.530983
  81         V                 7.569690          8.530963
  82         V                 7.583833          8.530849
  83         V                 7.583833          8.530849
  84         V                 8.607700         13.093253
  85         V                 8.611537         13.093392
  86         V                 8.611537         13.093392
  87         (A2U)--V          8.621194         13.093582
  88         V                 8.628287         13.094494
  89         V                 8.648813         13.095180
  90         V                 8.648813         13.095180
  91         (T2G)--V          8.999063         11.091317
  92         V                 9.000542         11.091274
  93         V                 9.000542         11.091274
  94         V                 9.003013         11.091189
  95         (T2G)--V          9.015266         11.091370
  96         V                 9.023974         11.091181
  97         V                 9.023974         11.091181
  98         V                 9.044478         11.090970
  99         (T2G)--V          9.044944         11.090949
 100         (T2G)--V         10.944074         13.454596
 101         (T1U)--V         13.055590         17.094351
 102         (T1U)--V         13.104596         17.096341
 103         (T1U)--V         13.104596         17.096341
 104         (T2G)--V         14.286738         28.435787
 105         (T2G)--V         14.295267         28.438677
 106         (T2G)--V         14.295267         28.438677
 107         (T2G)--V         14.321701         28.444886
 108         (T2G)--V         14.336134         28.419762
 109         V                19.447849         27.578086
 110         V                19.451962         27.578440
 111         V                19.451962         27.578440
 112         (A2U)--V         19.461099         27.579451
 113         V                19.476482         27.578596
 114         V                19.501549         27.579466
 115         V                19.501549         27.579466
 116         V                20.499219         22.848036
 117         V                20.499242         22.848013
 118         V                20.499242         22.848013
 119         V                20.499267         22.847988
 120         V                20.517195         22.848109
 121         V                20.519901         22.848025
 122         V                20.519902         22.848025
 123         V                20.526547         22.847789
 124         V                20.530335         22.847953
 125         V                20.542941         22.847720
 126         V                20.542941         22.847720
 127         V                20.563781         22.847608
 128         V                20.563830         22.847626
 129         V                21.145625         26.301086
 130         V                21.147302         26.301163
 131         V                21.147302         26.301163
 132         V                21.149957         26.301308
 133         V                21.168246         26.301499
 134         V                21.179363         26.301804
 135         V                21.179363         26.301804
 136         V                21.206811         26.302384
 137         V                21.207651         26.302337
 138         V                22.906402         26.811893
 139         V                22.906863         26.811890
 140         V                22.906863         26.811890
 141         (EU)--V          22.907428         26.811885
 142         V                22.926992         26.811927
 143         V                22.932460         26.811931
 144         V                22.932460         26.811931
 145         (EU)--V          22.946830         26.811949
 146         V                22.949265         26.811939
 147         V                22.973734         26.811947
 148         V                22.973734         26.811947
 149         (T1U)--V         32.126804         36.715690
 150         (T1U)--V         32.179495         36.714437
 151         (T1U)--V         32.179496         36.714437
 152         V                38.667154         74.996272
 153         V                38.675040         74.995310
 154         V                38.675040         74.995310
 155         V                38.698701         74.992140
 156         V                38.715489         74.973386
 157         V                39.128587         55.717115
 158         V                39.132536         55.717402
 159         V                39.132536         55.717402
 160         (A2U)--V         39.141081         55.718434
 161         V                39.158074         55.714935
 162         V                39.183230         55.714031
 163         V                39.183230         55.714031
 164         V                41.307905         52.629857
 165         V                41.309640         52.629769
 166         V                41.309640         52.629769
 167         V                41.312383         52.629574
 168         V                41.331332         52.629645
 169         V                41.342824         52.629200
 170         V                41.342824         52.629200
 171         V                41.371270         52.629006
 172         V                41.372194         52.629310
 173         V                49.392140         59.333841
 174         V                49.392695         59.333862
 175         V                49.392695         59.333862
 176         (EU)--V          49.393384         59.333891
 177         V                49.413993         59.333877
 178         V                49.419953         59.333940
 179         V                49.419953         59.333940
 180         (EU)--V          49.435506         59.334073
 181         V                49.438030         59.334042
 182         V                49.464313         59.334174
 183         V                49.464313         59.334174
 184         V                51.643586         59.332663
 185         V                51.643602         59.332666
 186         V                51.643602         59.332666
 187         V                51.643620         59.332671
 188         V                51.665696         59.332691
 189         V                51.668975         59.332712
 190         V                51.668976         59.332712
 191         V                51.677016         59.332770
 192         V                51.681738         59.332751
 193         V                51.697092         59.332826
 194         V                51.697092         59.332826
 195         V                51.722611         59.332896
 196         V                51.722673         59.332898
 197         (A1G)--V         77.010788         23.605768
 198         (T1U)--V         86.204499         73.258156
 199         (T1U)--V         86.239242         73.260790
 200         (T1U)--V         86.239242         73.260790
 Total kinetic energy from orbitals= 1.013274603071D+02
                          Isotropic Fermi Contact Couplings
        Atom                 a.u.       MegaHertz       Gauss      10(-4) cm-1
     1  Fe(57)             0.00000       0.00000       0.00000       0.00000
 PrsmSu:  requested number of processors reduced to:   2 ShMem   1 Linda.
 --------------------------------------------------------
       Center         ----  Spin Dipole Couplings  ----
                      3XX-RR        3YY-RR        3ZZ-RR
 --------------------------------------------------------
     1   Atom       -1.463071      2.926125     -1.463054
 --------------------------------------------------------
                        XY            XZ            YZ
 --------------------------------------------------------
     1   Atom        0.000000      0.000000      0.000000
 --------------------------------------------------------


 ---------------------------------------------------------------------------------
              Anisotropic Spin Dipole Couplings in Principal Axis System
 ---------------------------------------------------------------------------------

       Atom             a.u.   MegaHertz   Gauss  10(-4) cm-1        Axes

              Baa    -1.4631   -25.330    -9.038    -8.449  1.0000  0.0000  0.0000
     1 Fe(57) Bbb    -1.4631   -25.330    -9.038    -8.449  0.0000  0.0000  1.0000
              Bcc     2.9261    50.660    18.077    16.898  0.0000  1.0000  0.0000
 

 ---------------------------------------------------------------------------------

 PrsmSu:  requested number of processors reduced to:   2 ShMem   1 Linda.
 No NMR shielding tensors so no spin-rotation constants.
 Leave Link  601 at Sun Dec 16 16:22:26 2018, MaxMem=   134217728 cpu:         4.9
 (Enter /usr/local/apps/g09.d01/g09/l9999.exe)

 Test job not archived.
 1\1\GINC-N2E4-5\SP\ROHF\Gen\Fe1(5)\AANNABE\16-Dec-2018\0\\#P ROHF/Gen 
 5d 7f SCF=(maxcycles=300, VShift=100) GFPRINT Pop=Full Pseudo=Read Gue
 ss=Read IOp(5/15=2)\\Fe\\0,5\Fe,0,0.,0.,0.\\Version=ES64L-G09RevD.01\H
 F=-122.6473518\RMSD=4.773e-09\Dipole=0.,0.,0.\Quadrupole=-0.0687226,0.
 1374463,-0.0687237,0.,0.,0.\PG=OH [O(Fe1)]\\@


 AS FAR AS THE LAWS OF MATHEMATICS REFER TO REALITY,
 THEY ARE NOT CERTAIN; AND AS FAR AS THEY ARE CERTAIN,
 THEY DO NOT REFER TO REALITY.

                                         -- ALBERT EINSTEIN
 Job cpu time:       0 days  0 hours 44 minutes 48.6 seconds.
 File lengths (MBytes):  RWF=     33 Int=      0 D2E=      0 Chk=      6 Scr=      1
 Normal termination of Gaussian 09 at Sun Dec 16 16:22:27 2018.
