TACC:  Starting up job 3995536 
TACC:  Starting parallel tasks... 
  Input file(s): V.log.qmc.in-wfj.xml 

=====================================================
                    QMCPACK 3.7.9

       (c) Copyright 2003-  QMCPACK developers

                    Please cite:
 J. Kim et al. J. Phys. Cond. Mat. 30 195901 (2018)
      https://doi.org/10.1088/1361-648X/aab9c3

  Git branch: develop
  Last git commit: 046f6a02c6281a8ad6b4aefd01e110fb5d46833d
  Last git commit date: Tue Jul 16 11:20:50 2019 -0400
  Last git commit subject: Merge pull request #1732 from ye-luo/add-qe641
=====================================================
  Global options 

  Total number of MPI ranks = 1024
  Number of MPI groups      = 1
  MPI group ID              = 0
  Number of ranks in group  = 1024
  MPI ranks per node        = 64
  OMP 1st level threads     = 1
  OMP nested threading disabled or only 1 thread on the 2nd level

  Precision used in this calculation, see definitions in the manual:
  Base precision      = double
  Full precision      = double

  Structure-of-arrays (SoA) optimization enabled

  Input XML = V.log.qmc.in-wfj.xml

  Project = V.log
  date    = 2019-07-16 14:31:35 CDT
  host    = c455-013.stampede2.tacc.utexas.edu

 Random Number
 -------------
  Offset for the random number seeds based on time: 535

  Range of prime numbers to use as seeds over processors and threads = 3877-13121


 Particle Set 
 ------------
  Name: ion0
  All the species have the same mass 1
  Particle set size: 1

 Particle Set 
 ------------
  Name: e
  All the species have the same mass 1
  Particle set size: 13

 Wavefunction setup: 
 ------------------- 
  Name: psi0
  LCAO: SoaAtomicBasisSet<MultiQuintic,1>
Reading BasisSet from HDF5 file:V.log.h5
<input node="atomicBasisSet" name="gaussian" expandYlm="pyscf" angular="spherical" elementType="V" normalized="no" type="Numerical" expM="0" />
  AO BasisSet for V
   Spherical Harmonics contain (-1)^m factor
   Angular momentum m expanded as -l, ... ,l, with the exception of L=1 (1,-1,0)
   Grid is created by the input paremters in h5
    Using log grid ri = 1e-06 rf = 100 npts = 1001
   R(n,l,m,s) 0 0 0 0
   R(n,l,m,s) 1 0 0 0
   R(n,l,m,s) 2 1 0 0
   R(n,l,m,s) 3 2 0 0
Expanding Ylm as L=1 as (1,-1,0) and L>1 as -l,-l+1,...,l-1,l
   Adding 1 spherical orbitals
   Adding 1 spherical orbitals
   Adding 3 spherical orbitals
   Adding 5 spherical orbitals
  Setting cutoff radius 20.893

   Maximum Angular Momentum  = 2
   Number of Radial functors = 4
   Basis size                = 10

  Created SPOSet builder named 'LCAOBSet' of type molecularorbital
Reuse SPOSetBuilder "LCAOBSet" type MolecularOrbital
  Building SPOSet '' with '' basis set.
Reuse SPOSetBuilder "LCAOBSet" type MolecularOrbital
  Building SPOSet '' with '' basis set.
  Creating a determinant updet group=0 sposet=updet
  Reusing a SPO set updet
Using DiracDeterminant with DelayedUpdate engine
Using rank-1 Sherman-Morrison Fahy update

  Creating a determinant downdet group=1 sposet=downdet
  Reusing a SPO set downdet
Using DiracDeterminant with DelayedUpdate engine
Using rank-1 Sherman-Morrison Fahy update

  Added a fermionic WaveFunctionComponent SlaterDet

   Jastrow
   -------
    Name: J2   Type: Two-Body   Function: Bspline

    Radial function for species: u - u
     Number of parameters: 10
     Cusp: -0.25
     Cutoff radius: 12

     Name                        Value Type Recompute Use Index
     ---- ---------------------------- ---- --------- --- -----
     uu_0                 2.624195e-01    1         1  ON     0
     uu_1                 6.531622e-02    1         1  ON     1
     uu_2                -2.222589e-02    1         1  ON     2
     uu_3                -7.589250e-02    1         1  ON     3
     uu_4                -1.017655e-01    1         1  ON     4
     uu_5                -1.256229e-01    1         1  ON     5
     uu_6                -1.296870e-01    1         1  ON     6
     uu_7                -1.169342e-01    1         1  ON     7
     uu_8                -7.058930e-02    1         1  ON     8
     uu_9                -3.887992e-03    1         1  ON     9

    Radial function for species: u - d
     Number of parameters: 10
     Cusp: -0.5
     Cutoff radius: 12

     Name                        Value Type Recompute Use Index
     ---- ---------------------------- ---- --------- --- -----
     ud_0                 4.801898e-01    1         1  ON     0
     ud_1                 2.290838e-01    1         1  ON     1
     ud_2                 1.386044e-01    1         1  ON     2
     ud_3                 7.247598e-02    1         1  ON     3
     ud_4                 2.887685e-02    1         1  ON     4
     ud_5                -2.033216e-02    1         1  ON     5
     ud_6                -5.361516e-02    1         1  ON     6
     ud_7                -7.746677e-02    1         1  ON     7
     ud_8                -6.904855e-02    1         1  ON     8
     ud_9                -3.833317e-02    1         1  ON     9


   Jastrow
   -------
    Name: J1   Type: One-Body   Function: Bspline

    Radial function for element: V
     Number of parameters: 10
     Cusp: 0
     Cutoff radius: 12

     Name                        Value Type Recompute Use Index
     ---- ---------------------------- ---- --------- --- -----
     eV_0                -2.323790e+00    1         1  ON     0
     eV_1                -1.482365e+00    1         1  ON     1
     eV_2                -6.383384e-01    1         1  ON     2
     eV_3                -4.916825e-02    1         1  ON     3
     eV_4                 4.442083e-01    1         1  ON     4
     eV_5                 8.279487e-01    1         1  ON     5
     eV_6                 1.095151e+00    1         1  ON     6
     eV_7                 1.113193e+00    1         1  ON     7
     eV_8                 7.775472e-01    1         1  ON     8
     eV_9                 2.448850e-01    1         1  ON     9


   Jastrow
   -------
    Name: J3   Type: eeI   Function: polynomial

     Ion: V   electron-electron: u - u
      Number of parameters for e-e: 3, for e-I: 3
      Cutoff radius: 12

Expected 26 parameters, but found 0 in PolynomialFunctor3D.
        Name                        Value Type Recompute Use Index
      ------ ---------------------------- ---- --------- --- -----
       uuV_0                 0.000000e+00    1         1  ON     0
       uuV_1                 0.000000e+00    1         1  ON     1
       uuV_2                 0.000000e+00    1         1  ON     2
       uuV_3                 0.000000e+00    1         1  ON     3
       uuV_4                 0.000000e+00    1         1  ON     4
       uuV_5                 0.000000e+00    1         1  ON     5
       uuV_6                 0.000000e+00    1         1  ON     6
       uuV_7                 0.000000e+00    1         1  ON     7
       uuV_8                 0.000000e+00    1         1  ON     8
       uuV_9                 0.000000e+00    1         1  ON     9
      uuV_10                 0.000000e+00    1         1  ON    10
      uuV_11                 0.000000e+00    1         1  ON    11
      uuV_12                 0.000000e+00    1         1  ON    12
      uuV_13                 0.000000e+00    1         1  ON    13
      uuV_14                 0.000000e+00    1         1  ON    14
      uuV_15                 0.000000e+00    1         1  ON    15
      uuV_16                 0.000000e+00    1         1  ON    16
      uuV_17                 0.000000e+00    1         1  ON    17
      uuV_18                 0.000000e+00    1         1  ON    18
      uuV_19                 0.000000e+00    1         1  ON    19
      uuV_20                 0.000000e+00    1         1  ON    20
      uuV_21                 0.000000e+00    1         1  ON    21
      uuV_22                 0.000000e+00    1         1  ON    22
      uuV_23                 0.000000e+00    1         1  ON    23
      uuV_24                 0.000000e+00    1         1  ON    24
      uuV_25                 0.000000e+00    1         1  ON    25

     Ion: V   electron-electron: u - d
      Number of parameters for e-e: 3, for e-I: 3
      Cutoff radius: 12

Expected 26 parameters, but found 0 in PolynomialFunctor3D.
        Name                        Value Type Recompute Use Index
      ------ ---------------------------- ---- --------- --- -----
       udV_0                 0.000000e+00    1         1  ON     0
       udV_1                 0.000000e+00    1         1  ON     1
       udV_2                 0.000000e+00    1         1  ON     2
       udV_3                 0.000000e+00    1         1  ON     3
       udV_4                 0.000000e+00    1         1  ON     4
       udV_5                 0.000000e+00    1         1  ON     5
       udV_6                 0.000000e+00    1         1  ON     6
       udV_7                 0.000000e+00    1         1  ON     7
       udV_8                 0.000000e+00    1         1  ON     8
       udV_9                 0.000000e+00    1         1  ON     9
      udV_10                 0.000000e+00    1         1  ON    10
      udV_11                 0.000000e+00    1         1  ON    11
      udV_12                 0.000000e+00    1         1  ON    12
      udV_13                 0.000000e+00    1         1  ON    13
      udV_14                 0.000000e+00    1         1  ON    14
      udV_15                 0.000000e+00    1         1  ON    15
      udV_16                 0.000000e+00    1         1  ON    16
      udV_17                 0.000000e+00    1         1  ON    17
      udV_18                 0.000000e+00    1         1  ON    18
      udV_19                 0.000000e+00    1         1  ON    19
      udV_20                 0.000000e+00    1         1  ON    20
      udV_21                 0.000000e+00    1         1  ON    21
      udV_22                 0.000000e+00    1         1  ON    22
      udV_23                 0.000000e+00    1         1  ON    23
      udV_24                 0.000000e+00    1         1  ON    24
      udV_25                 0.000000e+00    1         1  ON    25

  QMCHamiltonian::addOperator Kinetic to H, physical Hamiltonian 
  QMCHamiltonian::addOperator ElecElec to H, physical Hamiltonian 
QMCHamiltonian::addOperatorType added type coulomb named ElecElec
  CoulombAA for ion0 is not created.  Number of particles == 1 and nonPeriodic

  ECPotential builder for pseudopotential 

  Adding pseudopotential for V
   Linear grid  ri=0 rf=10 npts = 10001
    ECPComponentBuilder::buildSemiLocalAndLocal 
    Assuming Hartree unit
   Number of angular momentum channels 3
   Maximum angular momentum channel 2
   Creating a Linear Grid Rmax=1.57
  Using global grid with delta = 0.001
   Making L=2 a local potential with a radial cutoff of 9.999
    Non-local pseudopotential parameters
    Maximum angular mementum = 1
    Number of non-local channels = 2
       l(0)=0
       l(1)=1
    Cutoff radius = 1.57
    Spherical grids and weights: 
                        1                 0                 0       0.08333333333
                       -1   1.224646799e-16                 0       0.08333333333
             0.4472135955       0.894427191                 0       0.08333333333
            -0.4472135955      0.7236067977      0.5257311121       0.08333333333
             0.4472135955      0.2763932023      0.8506508084       0.08333333333
            -0.4472135955     -0.2763932023      0.8506508084       0.08333333333
             0.4472135955     -0.7236067977      0.5257311121       0.08333333333
            -0.4472135955      -0.894427191   1.095357397e-16       0.08333333333
             0.4472135955     -0.7236067977     -0.5257311121       0.08333333333
            -0.4472135955     -0.2763932023     -0.8506508084       0.08333333333
             0.4472135955      0.2763932023     -0.8506508084       0.08333333333
            -0.4472135955      0.7236067977     -0.5257311121       0.08333333333
    Maximum cutoff radius 1.57
  QMCHamiltonian::addOperator LocalECP to H, physical Hamiltonian 

  Using NonLocalECP potential 
    Maximum grid on a sphere for NonLocalECPotential: 12
  QMCHamiltonian::addOperator NonLocalECP to H, physical Hamiltonian 
QMCHamiltonian::addOperatorType added type pseudo named PseudoPot

  QMCHamiltonian::add2WalkerProperty added
    4 to P::PropertyList 
    0 to P::Collectables 
    starting Index of the observables in P::PropertyList = 9
ParticleSetPool::randomize 
<init source="ion0" target="e">
</init>
  Initialization Execution time = 0.3357 secs
=========================================================
 Summary of QMC systems 
=========================================================
ParticleSetPool has: 

  ParticleSet 'e' contains 13 particles :  u(8) d(5)

    u -1.2506145212e+00  3.6726302748e-01 -7.8988038211e-01
    u -4.0867827199e-01 -7.0280106215e-01 -3.6134344412e+00
    u -6.1110258776e-01 -5.9139963442e-01  8.4438970613e-01
    u  3.0256287542e+00  3.7979431819e+00 -1.1825890069e-01
    u -1.1721893174e+00 -1.2999950589e+00 -1.8688851998e+00
    u -6.0527330797e-01  1.2242701898e+00 -3.8978571088e-01
    u -2.2403580294e+00 -3.4881546098e+00 -1.0465080826e+00
    u  8.2826206367e-01 -2.2520182142e+00  2.0520271327e+00
    d  1.8412088310e+00 -6.3972028569e-01 -5.0661824642e-01
    d  2.1578554490e-01 -1.4915839269e+00 -2.1635371461e+00
    (... and 3 more particle positions ...)

  Distance table for dissimilar particles (A-B):
    source: ion0  target: e
    Using structure-of-arrays (SoA) data layout
    Distance computations use open boundary conditions in 3D.

  Distance table for similar particles (A-A):
    source/target: e
    Using structure-of-arrays (SoA) data layout
    Distance computations use open boundary conditions in 3D.


  ParticleSet 'ion0' contains 1 particles :  V(1)

    V  0.0000000000e+00  0.0000000000e+00  0.0000000000e+00


  Hamiltonian h0
  Kinetic         Kinetic energy
  ElecElec        CoulombAB source=e

  LocalECP        LocalECPotential: ion0
  NonLocalECP     NonLocalECPotential: ion0


=========================================================
  Start VMC
  File Root V.log.s000 append = no 
=========================================================
  Adding 1 walkers to 0 existing sets
  Total number of walkers: 1.0240000000e+03
  Total weight: 1.0240000000e+03
  Resetting Properties of the walkers 1 x 13

<vmc function="put">
  qmc_counter=0  my_counter=0
  time step      = 1.0000000000e-01
  blocks         = 200
  steps          = 1
  substeps       = 5
  current        = 0
  target samples = 1.0240000000e+03
  walkers/mpi    = 1

  stepsbetweensamples = 200
<parameter name="blocks" condition="int">200</parameter>
<parameter name="blocks_between_recompute" condition="int">0</parameter>
<parameter name="check_properties" condition="int">100</parameter>
<parameter name="checkproperties" condition="int">100</parameter>
<parameter name="current" condition="int">0</parameter>
<parameter name="dmcwalkersperthread" condition="real">1.0000000000e+00</parameter>
<parameter name="maxcpusecs" condition="real">3.6000000000e+05</parameter>
<parameter name="record_configs" condition="int">0</parameter>
<parameter name="record_walkers" condition="int">200</parameter>
<parameter name="recordconfigs" condition="int">0</parameter>
<parameter name="recordwalkers" condition="int">200</parameter>
<parameter name="rewind" condition="int">0</parameter>
<parameter name="samples" condition="real">1.0240000000e+03</parameter>
<parameter name="samplesperthread" condition="real">1.0000000000e+00</parameter>
<parameter name="steps" condition="int">1</parameter>
<parameter name="stepsbetweensamples" condition="int">200</parameter>
<parameter name="store_configs" condition="int">0</parameter>
<parameter name="storeconfigs" condition="int">0</parameter>
<parameter name="sub_steps" condition="int">5</parameter>
<parameter name="substeps" condition="int">5</parameter>
<parameter name="tau" condition="au">1.0000000000e-01</parameter>
<parameter name="time_step" condition="au">1.0000000000e-01</parameter>
<parameter name="timestep" condition="au">1.0000000000e-01</parameter>
<parameter name="use_drift" condition="string">no</parameter>
<parameter name="usedrift" condition="string">no</parameter>
<parameter name="walkers" condition="int">1</parameter>
<parameter name="warmup_steps" condition="int">100</parameter>
<parameter name="warmupsteps" condition="int">100</parameter>
  DumpConfig==false Nothing (configurations, state) will be saved.
  Walker Samples are dumped every 200 steps.
</vmc>
  Set drift_modifier UNR parameter a = 1.0000000000e+00
  Initial partition of walkers 0 1 

  Using Particle by Particle moves
  Walker moves without drift
  Total Sample Size   =1024
  Walker distribution on root = 0 1 
  Using Locality Approximation
===== Memory Usage after the buffer registration =====
Available memory on node 0, free + buffers : 52115 MB
Memory footprint by rank 0 on node 0       : 572 MB
==================================================
  Anonymous Buffer size per walker : 6464 Bytes.
MEMORY increase 0 MB VMC::resetRun
====================================================
  SimpleFixedNodeBranch::finalize after a VMC block
    QMC counter        = 0
    time step          = 0.1
    reference energy   = -71.3586
    reference variance = 1.01117
====================================================
  QMC Execution time = 1.8213e+00 secs
Loop execution max-interations = 20

=========================================================
  Start QMCFixedSampleLinearOptimize
  File Root V.log.s001 append = no 
=========================================================
  Skip QMCDriver::putQMCInfo 
  Resetting Properties of the walkers 1 x 13

=========================================================
  Start VMC
  File Root V.log.s001 append = no 
=========================================================
  Using the current 1 walkers.
  Total number of walkers: 1.0240e+03
  Total weight: 1.0240e+03
  Resetting Properties of the walkers 1 x 13

<vmc function="put">
  qmc_counter=0  my_counter=0
  time step      = 1.0000e-01
  blocks         = 500
  steps          = 1
  substeps       = 5
  current        = 0
  target samples = 5.1200e+05
  walkers/mpi    = 1

  stepsbetweensamples = 1
<parameter name="blocks" condition="int">500</parameter>
<parameter name="blocks_between_recompute" condition="int">0</parameter>
<parameter name="check_properties" condition="int">100</parameter>
<parameter name="checkproperties" condition="int">100</parameter>
<parameter name="current" condition="int">0</parameter>
<parameter name="dmcwalkersperthread" condition="real">5.0000e+02</parameter>
<parameter name="maxcpusecs" condition="real">3.6000e+05</parameter>
<parameter name="record_configs" condition="int">0</parameter>
<parameter name="record_walkers" condition="int">1</parameter>
<parameter name="recordconfigs" condition="int">0</parameter>
<parameter name="recordwalkers" condition="int">1</parameter>
<parameter name="rewind" condition="int">0</parameter>
<parameter name="samples" condition="real">5.1200e+05</parameter>
<parameter name="samplesperthread" condition="real">5.0000e+02</parameter>
<parameter name="steps" condition="int">1</parameter>
<parameter name="stepsbetweensamples" condition="int">1</parameter>
<parameter name="store_configs" condition="int">0</parameter>
<parameter name="storeconfigs" condition="int">0</parameter>
<parameter name="sub_steps" condition="int">5</parameter>
<parameter name="substeps" condition="int">5</parameter>
<parameter name="tau" condition="au">1.0000e-01</parameter>
<parameter name="time_step" condition="au">1.0000e-01</parameter>
<parameter name="timestep" condition="au">1.0000e-01</parameter>
<parameter name="use_drift" condition="string">no</parameter>
<parameter name="usedrift" condition="string">no</parameter>
<parameter name="walkers" condition="int">1</parameter>
<parameter name="warmup_steps" condition="int">0</parameter>
<parameter name="warmupsteps" condition="int">0</parameter>
  DumpConfig==false Nothing (configurations, state) will be saved.
  Walker Samples are dumped every 1 steps.
</vmc>
    Restarting, cummulative properties:
      energy     = -7.1359e+01
      variance   = 0.0000e+00
      r2accepted = 1.0000e-10
      r2proposed = 1.0000e-10
  Set drift_modifier UNR parameter a = 1.0000e+00
 Using QMCCostFunction::QMCCostFunction
  Set drift_modifier UNR parameter a = 1.0000e+00
  EstimatorManagerBase::add replace LocalEnergy estimator.
<optimization-report>
<vmc stage="main" blocks="500">
  Cannot make clones again. Use existing 1 clones
  Initial partition of walkers 0 1 

  Using Particle by Particle moves
  Walker moves without drift
  Total Sample Size   =512000
  Walker distribution on root = 0 1 
  Using Locality Approximation
===== Memory Usage after the buffer registration =====
Available memory on node 0, free + buffers : 52102 MB
Memory footprint by rank 0 on node 0       : 572 MB
==================================================
  Anonymous Buffer size per walker : 6464 Bytes.
MEMORY increase 0 MB VMC::resetRun
====================================================
  SimpleFixedNodeBranch::finalize after a VMC block
    QMC counter        = 1
    time step          = 0.1
    reference energy   = -71.3389
    reference variance = 0.780559
====================================================
  Execution time = 3.0883e+00
</vmc>
<opt stage="setup">
  <log>
   Reading configurations from h5FileRoot V.log.s001
  QMCCostFunction is created with 1 threads.
  Using Nonlocal PP in Opt: NonLocalECP
   Number of samples loaded to each thread : 500 
  VMC Eavg = -7.1328e+01
  VMC Evar = 1.1168e+00
  Total weights = 5.1200e+05
  Execution time = 1.4578e+00
  </log>
</opt>
<opt stage="main" walkers="512000">
  <log>

*****************************************
Building overlap and Hamiltonian matrices
*****************************************

Among totally 82 optimized parameters, largest LM parameter change : 1.3055e-01 at parameter 21

******************************************************************************
Init Cost =  -6.7706e+01    New Cost =  -6.7730e+01  Delta Cost =  -2.3577e-02
******************************************************************************

The new set of parameters is valid. Updating the trial wave function!

*****************************************************************************
Applying the update for shift_i =   1.0000e-02     and shift_s =   2.5000e-01
*****************************************************************************
  Execution time = 5.1856e+00
  </log>
  <optVariables href="V.log.s001.opt.xml">
  uu_0                 2.532180e-01 1 1  ON 0
  uu_1                 8.359288e-02 1 1  ON 1
  uu_2                -2.232584e-02 1 1  ON 2
  uu_3                -7.021047e-02 1 1  ON 3
  uu_4                -9.694215e-02 1 1  ON 4
  uu_5                -1.206168e-01 1 1  ON 5
  uu_6                -1.286119e-01 1 1  ON 6
  uu_7                -1.191690e-01 1 1  ON 7
  uu_8                -7.675173e-02 1 1  ON 8
  uu_9                -6.504509e-03 1 1  ON 9
  ud_0                 5.786708e-01 1 1  ON 10
  ud_1                 2.906928e-01 1 1  ON 11
  ud_2                 1.432421e-01 1 1  ON 12
  ud_3                 6.851609e-02 1 1  ON 13
  ud_4                 1.827088e-02 1 1  ON 14
  ud_5                -3.283805e-02 1 1  ON 15
  ud_6                -6.328212e-02 1 1  ON 16
  ud_7                -8.626751e-02 1 1  ON 17
  ud_8                -8.097370e-02 1 1  ON 18
  ud_9                -5.109946e-02 1 1  ON 19
  eV_0                -2.292502e+00 1 1  ON 20
  eV_1                -1.612920e+00 1 1  ON 21
  eV_2                -5.922527e-01 1 1  ON 22
  eV_3                -5.612658e-03 1 1  ON 23
  eV_4                 4.557841e-01 1 1  ON 24
  eV_5                 8.064066e-01 1 1  ON 25
  eV_6                 1.078406e+00 1 1  ON 26
  eV_7                 1.109985e+00 1 1  ON 27
  eV_8                 8.027784e-01 1 1  ON 28
  eV_9                 2.629442e-01 1 1  ON 29
 uuV_0                 1.593838e-06 1 1  ON 30
 uuV_1                 5.838170e-06 1 1  ON 31
 uuV_2                 1.464961e-06 1 1  ON 32
 uuV_3                -2.828779e-06 1 1  ON 33
 uuV_4                -5.742416e-07 1 1  ON 34
 uuV_5                -1.613489e-08 1 1  ON 35
 uuV_6                 6.313093e-06 1 1  ON 36
 uuV_7                 3.439022e-06 1 1  ON 37
 uuV_8                 1.657269e-06 1 1  ON 38
 uuV_9                -7.484052e-06 1 1  ON 39
uuV_10                -1.737649e-06 1 1  ON 40
uuV_11                -2.199499e-06 1 1  ON 41
uuV_12                -4.412274e-08 1 1  ON 42
uuV_13                 1.045423e-06 1 1  ON 43
uuV_14                 7.043182e-08 1 1  ON 44
uuV_15                -5.717608e-09 1 1  ON 45
uuV_16                 8.223505e-06 1 1  ON 46
uuV_17                -1.165828e-06 1 1  ON 47
uuV_18                 1.057846e-06 1 1  ON 48
uuV_19                -1.785007e-07 1 1  ON 49
uuV_20                -7.987864e-07 1 1  ON 50
uuV_21                -2.760639e-08 1 1  ON 51
uuV_22                 2.159334e-08 1 1  ON 52
uuV_23                 1.531689e-07 1 1  ON 53
uuV_24                -9.103452e-09 1 1  ON 54
uuV_25                -2.873905e-09 1 1  ON 55
 udV_0                 2.700545e-06 1 1  ON 56
 udV_1                 1.366864e-05 1 1  ON 57
 udV_2                 5.845633e-06 1 1  ON 58
 udV_3                -5.345716e-06 1 1  ON 59
 udV_4                -1.472428e-06 1 1  ON 60
 udV_5                -8.093872e-07 1 1  ON 61
 udV_6                 2.122892e-05 1 1  ON 62
 udV_7                 2.144848e-08 1 1  ON 63
 udV_8                 4.745134e-06 1 1  ON 64
 udV_9                -2.010132e-05 1 1  ON 65
udV_10                -3.311656e-06 1 1  ON 66
udV_11                -3.606175e-06 1 1  ON 67
udV_12                -4.740704e-07 1 1  ON 68
udV_13                 5.168550e-06 1 1  ON 69
udV_14                 1.750213e-07 1 1  ON 70
udV_15                 1.781888e-08 1 1  ON 71
udV_16                 2.197335e-05 1 1  ON 72
udV_17                -1.050652e-06 1 1  ON 73
udV_18                 1.304464e-06 1 1  ON 74
udV_19                -1.362296e-07 1 1  ON 75
udV_20                -4.488282e-06 1 1  ON 76
udV_21                 1.725756e-07 1 1  ON 77
udV_22                -2.475187e-09 1 1  ON 78
udV_23                 1.125432e-06 1 1  ON 79
udV_24                -9.550760e-08 1 1  ON 80
udV_25                 7.167522e-09 1 1  ON 81
  </optVariables>
   Restore the number of walkers to 1, removing 0 walkers.
</opt>
</optimization-report>
  QMC Execution time = 5.198 secs
  Reusing QMCFixedSampleLinearOptimize
 Using QMCCostFunction::QMCCostFunction

=========================================================
  Start QMCFixedSampleLinearOptimize
  File Root V.log.s002 append = no 
=========================================================
  Skip QMCDriver::putQMCInfo 
  Resetting Properties of the walkers 1 x 13

=========================================================
  Start VMC
  File Root V.log.s002 append = no 
=========================================================
Using existing walkers 
  Resetting Properties of the walkers 1 x 13

<vmc function="put">
  qmc_counter=1  my_counter=1
  time step      = 1.0000e-01
  blocks         = 500
  steps          = 1
  substeps       = 5
  current        = 0
  target samples = 5.1200e+05
  walkers/mpi    = 1

  stepsbetweensamples = 1
<parameter name="blocks" condition="int">500</parameter>
<parameter name="blocks_between_recompute" condition="int">0</parameter>
<parameter name="check_properties" condition="int">100</parameter>
<parameter name="checkproperties" condition="int">100</parameter>
<parameter name="current" condition="int">0</parameter>
<parameter name="dmcwalkersperthread" condition="real">5.0000e+02</parameter>
<parameter name="maxcpusecs" condition="real">3.6000e+05</parameter>
<parameter name="record_configs" condition="int">0</parameter>
<parameter name="record_walkers" condition="int">1</parameter>
<parameter name="recordconfigs" condition="int">0</parameter>
<parameter name="recordwalkers" condition="int">1</parameter>
<parameter name="rewind" condition="int">0</parameter>
<parameter name="samples" condition="real">5.1200e+05</parameter>
<parameter name="samplesperthread" condition="real">5.0000e+02</parameter>
<parameter name="steps" condition="int">1</parameter>
<parameter name="stepsbetweensamples" condition="int">1</parameter>
<parameter name="store_configs" condition="int">0</parameter>
<parameter name="storeconfigs" condition="int">0</parameter>
<parameter name="sub_steps" condition="int">5</parameter>
<parameter name="substeps" condition="int">5</parameter>
<parameter name="tau" condition="au">1.0000e-01</parameter>
<parameter name="time_step" condition="au">1.0000e-01</parameter>
<parameter name="timestep" condition="au">1.0000e-01</parameter>
<parameter name="use_drift" condition="string">no</parameter>
<parameter name="usedrift" condition="string">no</parameter>
<parameter name="walkers" condition="int">1</parameter>
<parameter name="warmup_steps" condition="int">0</parameter>
<parameter name="warmupsteps" condition="int">0</parameter>
  DumpConfig==false Nothing (configurations, state) will be saved.
  Walker Samples are dumped every 1 steps.
</vmc>
  Set drift_modifier UNR parameter a = 1.0000e+00
  EstimatorManagerBase::add replace LocalEnergy estimator.
  Set drift_modifier UNR parameter a = 1.0000e+00
  EstimatorManagerBase::add replace LocalEnergy estimator.
<optimization-report>
<vmc stage="main" blocks="500">
  Cannot make clones again. Use existing 1 clones
  Initial partition of walkers 0 1 
  Using Particle by Particle moves
  Walker moves without drift
  Total Sample Size   =512000
  Walker distribution on root = 0 1 
  Using Locality Approximation
===== Memory Usage after the buffer registration =====
Available memory on node 0, free + buffers : 51383 MB
Memory footprint by rank 0 on node 0       : 586 MB
==================================================
====================================================
  SimpleFixedNodeBranch::finalize after a VMC block
    QMC counter        = 2
    time step          = 0.1
    reference energy   = -71.3677
    reference variance = 0.96191
====================================================
  Execution time = 3.0805e+00
</vmc>
<opt stage="setup">
  <log>
   Reading configurations from h5FileRoot V.log.s002
  QMCCostFunction is created with 1 threads.
  Using Nonlocal PP in Opt: NonLocalECP
   Number of samples loaded to each thread : 500 
  VMC Eavg = -7.1350e+01
  VMC Evar = 1.0378e+00
  Total weights = 5.1200e+05
  Execution time = 1.4568e+00
  </log>
</opt>
<opt stage="main" walkers="512000">
  <log>

*****************************************
Building overlap and Hamiltonian matrices
*****************************************

Among totally 82 optimized parameters, largest LM parameter change : 8.2162e-02 at parameter 10

******************************************************************************
Init Cost =  -6.7730e+01    New Cost =  -6.7730e+01  Delta Cost =  -7.7684e-05
******************************************************************************

The new set of parameters is valid. Updating the trial wave function!

*****************************************************************************
Applying the update for shift_i =   1.0000e-02     and shift_s =   6.2500e-02
*****************************************************************************
  Execution time = 5.1330e+00
  </log>
  <optVariables href="V.log.s002.opt.xml">
  uu_0                 2.519264e-01 1 1  ON 0
  uu_1                 8.663436e-02 1 1  ON 1
  uu_2                -1.764250e-02 1 1  ON 2
  uu_3                -6.732695e-02 1 1  ON 3
  uu_4                -1.008549e-01 1 1  ON 4
  uu_5                -1.255446e-01 1 1  ON 5
  uu_6                -1.349353e-01 1 1  ON 6
  uu_7                -1.252031e-01 1 1  ON 7
  uu_8                -8.576543e-02 1 1  ON 8
  uu_9                -6.552189e-03 1 1  ON 9
  ud_0                 6.608328e-01 1 1  ON 10
  ud_1                 3.474697e-01 1 1  ON 11
  ud_2                 1.639938e-01 1 1  ON 12
  ud_3                 6.806206e-02 1 1  ON 13
  ud_4                 4.402737e-03 1 1  ON 14
  ud_5                -4.929061e-02 1 1  ON 15
  ud_6                -7.786527e-02 1 1  ON 16
  ud_7                -1.013372e-01 1 1  ON 17
  ud_8                -9.390052e-02 1 1  ON 18
  ud_9                -6.905459e-02 1 1  ON 19
  eV_0                -2.288051e+00 1 1  ON 20
  eV_1                -1.691849e+00 1 1  ON 21
  eV_2                -5.797585e-01 1 1  ON 22
  eV_3                 5.130485e-02 1 1  ON 23
  eV_4                 4.625722e-01 1 1  ON 24
  eV_5                 7.708272e-01 1 1  ON 25
  eV_6                 1.066710e+00 1 1  ON 26
  eV_7                 1.109935e+00 1 1  ON 27
  eV_8                 8.264295e-01 1 1  ON 28
  eV_9                 2.814796e-01 1 1  ON 29
 uuV_0                 2.466529e-06 1 1  ON 30
 uuV_1                 6.961257e-06 1 1  ON 31
 uuV_2                 1.168924e-06 1 1  ON 32
 uuV_3                -3.663968e-06 1 1  ON 33
 uuV_4                -6.288648e-07 1 1  ON 34
 uuV_5                -2.627931e-08 1 1  ON 35
 uuV_6                 6.804746e-06 1 1  ON 36
 uuV_7                 3.365273e-06 1 1  ON 37
 uuV_8                 1.936197e-06 1 1  ON 38
 uuV_9                -8.798451e-06 1 1  ON 39
uuV_10                -2.143081e-06 1 1  ON 40
uuV_11                -2.280520e-06 1 1  ON 41
uuV_12                -1.070458e-07 1 1  ON 42
uuV_13                 1.873621e-06 1 1  ON 43
uuV_14                 1.704863e-07 1 1  ON 44
uuV_15                -9.686160e-09 1 1  ON 45
uuV_16                 9.835157e-06 1 1  ON 46
uuV_17                -5.605692e-07 1 1  ON 47
uuV_18                 9.163155e-07 1 1  ON 48
uuV_19                -1.609264e-07 1 1  ON 49
uuV_20                -1.428234e-06 1 1  ON 50
uuV_21                 3.773346e-09 1 1  ON 51
uuV_22                 2.008093e-08 1 1  ON 52
uuV_23                 3.606539e-07 1 1  ON 53
uuV_24                -2.656010e-08 1 1  ON 54
uuV_25                -1.996920e-09 1 1  ON 55
 udV_0                 3.592586e-06 1 1  ON 56
 udV_1                 1.537864e-05 1 1  ON 57
 udV_2                 6.610694e-06 1 1  ON 58
 udV_3                -6.352867e-06 1 1  ON 59
 udV_4                -1.665524e-06 1 1  ON 60
 udV_5                -1.329381e-06 1 1  ON 61
 udV_6                 2.350746e-05 1 1  ON 62
 udV_7                 6.782912e-07 1 1  ON 63
 udV_8                 5.456301e-06 1 1  ON 64
 udV_9                -2.297400e-05 1 1  ON 65
udV_10                -3.669411e-06 1 1  ON 66
udV_11                -4.454737e-06 1 1  ON 67
udV_12                -5.242764e-07 1 1  ON 68
udV_13                 5.886738e-06 1 1  ON 69
udV_14                 2.457301e-07 1 1  ON 70
udV_15                 1.449944e-08 1 1  ON 71
udV_16                 2.567918e-05 1 1  ON 72
udV_17                -1.291785e-06 1 1  ON 73
udV_18                 1.770852e-06 1 1  ON 74
udV_19                -2.042045e-07 1 1  ON 75
udV_20                -5.562671e-06 1 1  ON 76
udV_21                 1.683141e-07 1 1  ON 77
udV_22                 6.244317e-09 1 1  ON 78
udV_23                 1.514391e-06 1 1  ON 79
udV_24                -1.108019e-07 1 1  ON 80
udV_25                 6.333843e-09 1 1  ON 81
  </optVariables>
   Restore the number of walkers to 1, removing 0 walkers.
</opt>
</optimization-report>
  QMC Execution time = 5.145 secs
  Reusing QMCFixedSampleLinearOptimize
 Using QMCCostFunction::QMCCostFunction

=========================================================
  Start QMCFixedSampleLinearOptimize
  File Root V.log.s003 append = no 
=========================================================
  Skip QMCDriver::putQMCInfo 
  Resetting Properties of the walkers 1 x 13

=========================================================
  Start VMC
  File Root V.log.s003 append = no 
=========================================================
Using existing walkers 
  Resetting Properties of the walkers 1 x 13

<vmc function="put">
  qmc_counter=2  my_counter=2
  time step      = 1.0000e-01
  blocks         = 500
  steps          = 1
  substeps       = 5
  current        = 0
  target samples = 5.1200e+05
  walkers/mpi    = 1

  stepsbetweensamples = 1
<parameter name="blocks" condition="int">500</parameter>
<parameter name="blocks_between_recompute" condition="int">0</parameter>
<parameter name="check_properties" condition="int">100</parameter>
<parameter name="checkproperties" condition="int">100</parameter>
<parameter name="current" condition="int">0</parameter>
<parameter name="dmcwalkersperthread" condition="real">5.0000e+02</parameter>
<parameter name="maxcpusecs" condition="real">3.6000e+05</parameter>
<parameter name="record_configs" condition="int">0</parameter>
<parameter name="record_walkers" condition="int">1</parameter>
<parameter name="recordconfigs" condition="int">0</parameter>
<parameter name="recordwalkers" condition="int">1</parameter>
<parameter name="rewind" condition="int">0</parameter>
<parameter name="samples" condition="real">5.1200e+05</parameter>
<parameter name="samplesperthread" condition="real">5.0000e+02</parameter>
<parameter name="steps" condition="int">1</parameter>
<parameter name="stepsbetweensamples" condition="int">1</parameter>
<parameter name="store_configs" condition="int">0</parameter>
<parameter name="storeconfigs" condition="int">0</parameter>
<parameter name="sub_steps" condition="int">5</parameter>
<parameter name="substeps" condition="int">5</parameter>
<parameter name="tau" condition="au">1.0000e-01</parameter>
<parameter name="time_step" condition="au">1.0000e-01</parameter>
<parameter name="timestep" condition="au">1.0000e-01</parameter>
<parameter name="use_drift" condition="string">no</parameter>
<parameter name="usedrift" condition="string">no</parameter>
<parameter name="walkers" condition="int">1</parameter>
<parameter name="warmup_steps" condition="int">0</parameter>
<parameter name="warmupsteps" condition="int">0</parameter>
  DumpConfig==false Nothing (configurations, state) will be saved.
  Walker Samples are dumped every 1 steps.
</vmc>
  Set drift_modifier UNR parameter a = 1.0000e+00
  EstimatorManagerBase::add replace LocalEnergy estimator.
  Set drift_modifier UNR parameter a = 1.0000e+00
  EstimatorManagerBase::add replace LocalEnergy estimator.
<optimization-report>
<vmc stage="main" blocks="500">
  Cannot make clones again. Use existing 1 clones
  Initial partition of walkers 0 1 
  Using Particle by Particle moves
  Walker moves without drift
  Total Sample Size   =512000
  Walker distribution on root = 0 1 
  Using Locality Approximation
===== Memory Usage after the buffer registration =====
Available memory on node 0, free + buffers : 51376 MB
Memory footprint by rank 0 on node 0       : 589 MB
==================================================
====================================================
  SimpleFixedNodeBranch::finalize after a VMC block
    QMC counter        = 3
    time step          = 0.1
    reference energy   = -71.3933
    reference variance = 0.876372
====================================================
  Execution time = 3.0634e+00
</vmc>
<opt stage="setup">
  <log>
   Reading configurations from h5FileRoot V.log.s003
  QMCCostFunction is created with 1 threads.
  Using Nonlocal PP in Opt: NonLocalECP
   Number of samples loaded to each thread : 500 
  VMC Eavg = -7.1349e+01
  VMC Evar = 1.0246e+00
  Total weights = 5.1200e+05
  Execution time = 1.4537e+00
  </log>
</opt>
<opt stage="main" walkers="512000">
  <log>

*****************************************
Building overlap and Hamiltonian matrices
*****************************************

Among totally 82 optimized parameters, largest LM parameter change : 5.2134e-02 at parameter 21

******************************************************************************
Init Cost =  -6.7730e+01    New Cost =  -6.7730e+01  Delta Cost =   3.4889e-04
******************************************************************************

The new set of parameters is valid. Updating the trial wave function!

*****************************************************************************
Applying the update for shift_i =   1.0000e-02     and shift_s =   1.5625e-02
*****************************************************************************
  Execution time = 5.1134e+00
  </log>
  <optVariables href="V.log.s003.opt.xml">
  uu_0                 2.499399e-01 1 1  ON 0
  uu_1                 8.678671e-02 1 1  ON 1
  uu_2                -1.461634e-02 1 1  ON 2
  uu_3                -6.209926e-02 1 1  ON 3
  uu_4                -9.526702e-02 1 1  ON 4
  uu_5                -1.217929e-01 1 1  ON 5
  uu_6                -1.330587e-01 1 1  ON 6
  uu_7                -1.253463e-01 1 1  ON 7
  uu_8                -8.655322e-02 1 1  ON 8
  uu_9                -1.387481e-02 1 1  ON 9
  ud_0                 7.107797e-01 1 1  ON 10
  ud_1                 3.802458e-01 1 1  ON 11
  ud_2                 1.739302e-01 1 1  ON 12
  ud_3                 6.639367e-02 1 1  ON 13
  ud_4                 1.336947e-03 1 1  ON 14
  ud_5                -5.254081e-02 1 1  ON 15
  ud_6                -8.083831e-02 1 1  ON 16
  ud_7                -1.057220e-01 1 1  ON 17
  ud_8                -9.897674e-02 1 1  ON 18
  ud_9                -6.665439e-02 1 1  ON 19
  eV_0                -2.292093e+00 1 1  ON 20
  eV_1                -1.743983e+00 1 1  ON 21
  eV_2                -5.787751e-01 1 1  ON 22
  eV_3                 9.741556e-02 1 1  ON 23
  eV_4                 4.729977e-01 1 1  ON 24
  eV_5                 7.409291e-01 1 1  ON 25
  eV_6                 1.046927e+00 1 1  ON 26
  eV_7                 1.117582e+00 1 1  ON 27
  eV_8                 8.507535e-01 1 1  ON 28
  eV_9                 3.001576e-01 1 1  ON 29
 uuV_0                 2.585532e-06 1 1  ON 30
 uuV_1                 7.187507e-06 1 1  ON 31
 uuV_2                 1.304742e-06 1 1  ON 32
 uuV_3                -3.520125e-06 1 1  ON 33
 uuV_4                -5.672423e-07 1 1  ON 34
 uuV_5                 2.983405e-08 1 1  ON 35
 uuV_6                 7.008997e-06 1 1  ON 36
 uuV_7                 3.661204e-06 1 1  ON 37
 uuV_8                 1.930823e-06 1 1  ON 38
 uuV_9                -9.183317e-06 1 1  ON 39
uuV_10                -1.877345e-06 1 1  ON 40
uuV_11                -2.842835e-06 1 1  ON 41
uuV_12                -2.196077e-08 1 1  ON 42
uuV_13                 1.547419e-06 1 1  ON 43
uuV_14                 1.106650e-07 1 1  ON 44
uuV_15                -1.181500e-08 1 1  ON 45
uuV_16                 1.090866e-05 1 1  ON 46
uuV_17                -1.481093e-06 1 1  ON 47
uuV_18                 1.621051e-06 1 1  ON 48
uuV_19                -2.617699e-07 1 1  ON 49
uuV_20                -1.511519e-06 1 1  ON 50
uuV_21                -7.485408e-08 1 1  ON 51
uuV_22                 3.553169e-08 1 1  ON 52
uuV_23                 3.879297e-07 1 1  ON 53
uuV_24                -1.428186e-08 1 1  ON 54
uuV_25                -4.998551e-09 1 1  ON 55
 udV_0                 4.123801e-06 1 1  ON 56
 udV_1                 1.567885e-05 1 1  ON 57
 udV_2                 6.515040e-06 1 1  ON 58
 udV_3                -6.543134e-06 1 1  ON 59
 udV_4                -1.610713e-06 1 1  ON 60
 udV_5                -1.631331e-06 1 1  ON 61
 udV_6                 2.382367e-05 1 1  ON 62
 udV_7                 8.468386e-07 1 1  ON 63
 udV_8                 5.168321e-06 1 1  ON 64
 udV_9                -2.374963e-05 1 1  ON 65
udV_10                -3.635533e-06 1 1  ON 66
udV_11                -4.539314e-06 1 1  ON 67
udV_12                -3.765200e-07 1 1  ON 68
udV_13                 5.769047e-06 1 1  ON 69
udV_14                 1.202239e-07 1 1  ON 70
udV_15                 1.203782e-08 1 1  ON 71
udV_16                 2.706641e-05 1 1  ON 72
udV_17                -1.889676e-06 1 1  ON 73
udV_18                 2.019389e-06 1 1  ON 74
udV_19                -3.095963e-07 1 1  ON 75
udV_20                -5.854901e-06 1 1  ON 76
udV_21                 1.923915e-07 1 1  ON 77
udV_22                 1.266294e-08 1 1  ON 78
udV_23                 1.606927e-06 1 1  ON 79
udV_24                -1.228549e-07 1 1  ON 80
udV_25                 6.870105e-09 1 1  ON 81
  </optVariables>
   Restore the number of walkers to 1, removing 0 walkers.
</opt>
</optimization-report>
  QMC Execution time = 5.126 secs
  Reusing QMCFixedSampleLinearOptimize
 Using QMCCostFunction::QMCCostFunction

=========================================================
  Start QMCFixedSampleLinearOptimize
  File Root V.log.s004 append = no 
=========================================================
  Skip QMCDriver::putQMCInfo 
  Resetting Properties of the walkers 1 x 13

=========================================================
  Start VMC
  File Root V.log.s004 append = no 
=========================================================
Using existing walkers 
  Resetting Properties of the walkers 1 x 13

<vmc function="put">
  qmc_counter=3  my_counter=3
  time step      = 1.0000e-01
  blocks         = 500
  steps          = 1
  substeps       = 5
  current        = 0
  target samples = 5.1200e+05
  walkers/mpi    = 1

  stepsbetweensamples = 1
<parameter name="blocks" condition="int">500</parameter>
<parameter name="blocks_between_recompute" condition="int">0</parameter>
<parameter name="check_properties" condition="int">100</parameter>
<parameter name="checkproperties" condition="int">100</parameter>
<parameter name="current" condition="int">0</parameter>
<parameter name="dmcwalkersperthread" condition="real">5.0000e+02</parameter>
<parameter name="maxcpusecs" condition="real">3.6000e+05</parameter>
<parameter name="record_configs" condition="int">0</parameter>
<parameter name="record_walkers" condition="int">1</parameter>
<parameter name="recordconfigs" condition="int">0</parameter>
<parameter name="recordwalkers" condition="int">1</parameter>
<parameter name="rewind" condition="int">0</parameter>
<parameter name="samples" condition="real">5.1200e+05</parameter>
<parameter name="samplesperthread" condition="real">5.0000e+02</parameter>
<parameter name="steps" condition="int">1</parameter>
<parameter name="stepsbetweensamples" condition="int">1</parameter>
<parameter name="store_configs" condition="int">0</parameter>
<parameter name="storeconfigs" condition="int">0</parameter>
<parameter name="sub_steps" condition="int">5</parameter>
<parameter name="substeps" condition="int">5</parameter>
<parameter name="tau" condition="au">1.0000e-01</parameter>
<parameter name="time_step" condition="au">1.0000e-01</parameter>
<parameter name="timestep" condition="au">1.0000e-01</parameter>
<parameter name="use_drift" condition="string">no</parameter>
<parameter name="usedrift" condition="string">no</parameter>
<parameter name="walkers" condition="int">1</parameter>
<parameter name="warmup_steps" condition="int">0</parameter>
<parameter name="warmupsteps" condition="int">0</parameter>
  DumpConfig==false Nothing (configurations, state) will be saved.
  Walker Samples are dumped every 1 steps.
</vmc>
  Set drift_modifier UNR parameter a = 1.0000e+00
  EstimatorManagerBase::add replace LocalEnergy estimator.
  Set drift_modifier UNR parameter a = 1.0000e+00
  EstimatorManagerBase::add replace LocalEnergy estimator.
<optimization-report>
<vmc stage="main" blocks="500">
  Cannot make clones again. Use existing 1 clones
  Initial partition of walkers 0 1 
  Using Particle by Particle moves
  Walker moves without drift
  Total Sample Size   =512000
  Walker distribution on root = 0 1 
  Using Locality Approximation
===== Memory Usage after the buffer registration =====
Available memory on node 0, free + buffers : 51372 MB
Memory footprint by rank 0 on node 0       : 592 MB
==================================================
====================================================
  SimpleFixedNodeBranch::finalize after a VMC block
    QMC counter        = 4
    time step          = 0.1
    reference energy   = -71.3725
    reference variance = 1.18437
====================================================
  Execution time = 3.1540e+00
</vmc>
<opt stage="setup">
  <log>
   Reading configurations from h5FileRoot V.log.s004
  QMCCostFunction is created with 1 threads.
  Using Nonlocal PP in Opt: NonLocalECP
   Number of samples loaded to each thread : 500 
  VMC Eavg = -7.1352e+01
  VMC Evar = 1.0677e+00
  Total weights = 5.1200e+05
  Execution time = 1.4493e+00
  </log>
</opt>
<opt stage="main" walkers="512000">
  <log>

*****************************************
Building overlap and Hamiltonian matrices
*****************************************

Among totally 82 optimized parameters, largest LM parameter change : 4.1655e-02 at parameter 21

******************************************************************************
Init Cost =  -6.7731e+01    New Cost =  -6.7732e+01  Delta Cost =  -3.8888e-04
******************************************************************************

The new set of parameters is valid. Updating the trial wave function!

*****************************************************************************
Applying the update for shift_i =   1.0000e-02     and shift_s =   3.9062e-03
*****************************************************************************
  Execution time = 5.2182e+00
  </log>
  <optVariables href="V.log.s004.opt.xml">
  uu_0                 2.525228e-01 1 1  ON 0
  uu_1                 8.628353e-02 1 1  ON 1
  uu_2                -1.592519e-02 1 1  ON 2
  uu_3                -6.305098e-02 1 1  ON 3
  uu_4                -9.653649e-02 1 1  ON 4
  uu_5                -1.250225e-01 1 1  ON 5
  uu_6                -1.338125e-01 1 1  ON 6
  uu_7                -1.303827e-01 1 1  ON 7
  uu_8                -8.821987e-02 1 1  ON 8
  uu_9                -1.095506e-02 1 1  ON 9
  ud_0                 7.377002e-01 1 1  ON 10
  ud_1                 3.998467e-01 1 1  ON 11
  ud_2                 1.842477e-01 1 1  ON 12
  ud_3                 6.887959e-02 1 1  ON 13
  ud_4                 7.951637e-04 1 1  ON 14
  ud_5                -4.993435e-02 1 1  ON 15
  ud_6                -7.385193e-02 1 1  ON 16
  ud_7                -1.022772e-01 1 1  ON 17
  ud_8                -9.877122e-02 1 1  ON 18
  ud_9                -6.894854e-02 1 1  ON 19
  eV_0                -2.305988e+00 1 1  ON 20
  eV_1                -1.785637e+00 1 1  ON 21
  eV_2                -5.742853e-01 1 1  ON 22
  eV_3                 1.348461e-01 1 1  ON 23
  eV_4                 4.812198e-01 1 1  ON 24
  eV_5                 7.220357e-01 1 1  ON 25
  eV_6                 1.028154e+00 1 1  ON 26
  eV_7                 1.119521e+00 1 1  ON 27
  eV_8                 8.729628e-01 1 1  ON 28
  eV_9                 3.203186e-01 1 1  ON 29
 uuV_0                 2.781739e-06 1 1  ON 30
 uuV_1                 7.530546e-06 1 1  ON 31
 uuV_2                 1.193487e-06 1 1  ON 32
 uuV_3                -3.761436e-06 1 1  ON 33
 uuV_4                -5.958158e-07 1 1  ON 34
 uuV_5                 1.747700e-08 1 1  ON 35
 uuV_6                 7.350309e-06 1 1  ON 36
 uuV_7                 3.507089e-06 1 1  ON 37
 uuV_8                 1.879773e-06 1 1  ON 38
 uuV_9                -9.575746e-06 1 1  ON 39
uuV_10                -2.072607e-06 1 1  ON 40
uuV_11                -2.607570e-06 1 1  ON 41
uuV_12                -1.242595e-08 1 1  ON 42
uuV_13                 1.790449e-06 1 1  ON 43
uuV_14                 9.641852e-08 1 1  ON 44
uuV_15                -1.166598e-08 1 1  ON 45
uuV_16                 1.136477e-05 1 1  ON 46
uuV_17                -1.181255e-06 1 1  ON 47
uuV_18                 1.305870e-06 1 1  ON 48
uuV_19                -2.430903e-07 1 1  ON 49
uuV_20                -1.661165e-06 1 1  ON 50
uuV_21                -1.693260e-08 1 1  ON 51
uuV_22                 2.890781e-08 1 1  ON 52
uuV_23                 4.197556e-07 1 1  ON 53
uuV_24                -2.735266e-08 1 1  ON 54
uuV_25                -3.080186e-09 1 1  ON 55
 udV_0                 4.416295e-06 1 1  ON 56
 udV_1                 1.586172e-05 1 1  ON 57
 udV_2                 6.796252e-06 1 1  ON 58
 udV_3                -6.606632e-06 1 1  ON 59
 udV_4                -1.605945e-06 1 1  ON 60
 udV_5                -1.722906e-06 1 1  ON 61
 udV_6                 2.428704e-05 1 1  ON 62
 udV_7                 6.182285e-07 1 1  ON 63
 udV_8                 5.540141e-06 1 1  ON 64
 udV_9                -2.441398e-05 1 1  ON 65
udV_10                -3.487774e-06 1 1  ON 66
udV_11                -5.061811e-06 1 1  ON 67
udV_12                -4.502380e-07 1 1  ON 68
udV_13                 5.914762e-06 1 1  ON 69
udV_14                 1.900590e-07 1 1  ON 70
udV_15                 1.310965e-08 1 1  ON 71
udV_16                 2.805757e-05 1 1  ON 72
udV_17                -2.212449e-06 1 1  ON 73
udV_18                 2.575950e-06 1 1  ON 74
udV_19                -3.200487e-07 1 1  ON 75
udV_20                -6.085496e-06 1 1  ON 76
udV_21                 1.070565e-07 1 1  ON 77
udV_22                 1.956297e-08 1 1  ON 78
udV_23                 1.623151e-06 1 1  ON 79
udV_24                -1.078436e-07 1 1  ON 80
udV_25                 4.878733e-09 1 1  ON 81
  </optVariables>
   Restore the number of walkers to 1, removing 0 walkers.
</opt>
</optimization-report>
  QMC Execution time = 5.231 secs
  Reusing QMCFixedSampleLinearOptimize
 Using QMCCostFunction::QMCCostFunction

=========================================================
  Start QMCFixedSampleLinearOptimize
  File Root V.log.s005 append = no 
=========================================================
  Skip QMCDriver::putQMCInfo 
  Resetting Properties of the walkers 1 x 13

=========================================================
  Start VMC
  File Root V.log.s005 append = no 
=========================================================
Using existing walkers 
  Resetting Properties of the walkers 1 x 13

<vmc function="put">
  qmc_counter=4  my_counter=4
  time step      = 1.0000e-01
  blocks         = 500
  steps          = 1
  substeps       = 5
  current        = 0
  target samples = 5.1200e+05
  walkers/mpi    = 1

  stepsbetweensamples = 1
<parameter name="blocks" condition="int">500</parameter>
<parameter name="blocks_between_recompute" condition="int">0</parameter>
<parameter name="check_properties" condition="int">100</parameter>
<parameter name="checkproperties" condition="int">100</parameter>
<parameter name="current" condition="int">0</parameter>
<parameter name="dmcwalkersperthread" condition="real">5.0000e+02</parameter>
<parameter name="maxcpusecs" condition="real">3.6000e+05</parameter>
<parameter name="record_configs" condition="int">0</parameter>
<parameter name="record_walkers" condition="int">1</parameter>
<parameter name="recordconfigs" condition="int">0</parameter>
<parameter name="recordwalkers" condition="int">1</parameter>
<parameter name="rewind" condition="int">0</parameter>
<parameter name="samples" condition="real">5.1200e+05</parameter>
<parameter name="samplesperthread" condition="real">5.0000e+02</parameter>
<parameter name="steps" condition="int">1</parameter>
<parameter name="stepsbetweensamples" condition="int">1</parameter>
<parameter name="store_configs" condition="int">0</parameter>
<parameter name="storeconfigs" condition="int">0</parameter>
<parameter name="sub_steps" condition="int">5</parameter>
<parameter name="substeps" condition="int">5</parameter>
<parameter name="tau" condition="au">1.0000e-01</parameter>
<parameter name="time_step" condition="au">1.0000e-01</parameter>
<parameter name="timestep" condition="au">1.0000e-01</parameter>
<parameter name="use_drift" condition="string">no</parameter>
<parameter name="usedrift" condition="string">no</parameter>
<parameter name="walkers" condition="int">1</parameter>
<parameter name="warmup_steps" condition="int">0</parameter>
<parameter name="warmupsteps" condition="int">0</parameter>
  DumpConfig==false Nothing (configurations, state) will be saved.
  Walker Samples are dumped every 1 steps.
</vmc>
  Set drift_modifier UNR parameter a = 1.0000e+00
  EstimatorManagerBase::add replace LocalEnergy estimator.
  Set drift_modifier UNR parameter a = 1.0000e+00
  EstimatorManagerBase::add replace LocalEnergy estimator.
<optimization-report>
<vmc stage="main" blocks="500">
  Cannot make clones again. Use existing 1 clones
  Initial partition of walkers 0 1 
  Using Particle by Particle moves
  Walker moves without drift
  Total Sample Size   =512000
  Walker distribution on root = 0 1 
  Using Locality Approximation
===== Memory Usage after the buffer registration =====
Available memory on node 0, free + buffers : 51369 MB
Memory footprint by rank 0 on node 0       : 595 MB
==================================================
====================================================
  SimpleFixedNodeBranch::finalize after a VMC block
    QMC counter        = 5
    time step          = 0.1
    reference energy   = -71.3579
    reference variance = 0.860693
====================================================
  Execution time = 3.0796e+00
</vmc>
<opt stage="setup">
  <log>
   Reading configurations from h5FileRoot V.log.s005
  QMCCostFunction is created with 1 threads.
  Using Nonlocal PP in Opt: NonLocalECP
   Number of samples loaded to each thread : 500 
  VMC Eavg = -7.1350e+01
  VMC Evar = 1.0952e+00
  Total weights = 5.1200e+05
  Execution time = 1.4465e+00
  </log>
</opt>
<opt stage="main" walkers="512000">
  <log>

*****************************************
Building overlap and Hamiltonian matrices
*****************************************

Among totally 82 optimized parameters, largest LM parameter change : 3.4916e-02 at parameter 21

******************************************************************************
Init Cost =  -6.7728e+01    New Cost =  -6.7727e+01  Delta Cost =   9.8904e-05
******************************************************************************

The new set of parameters is valid. Updating the trial wave function!

*****************************************************************************
Applying the update for shift_i =   1.0000e-02     and shift_s =   3.9062e-03
*****************************************************************************
  Execution time = 5.1136e+00
  </log>
  <optVariables href="V.log.s005.opt.xml">
  uu_0                 2.542588e-01 1 1  ON 0
  uu_1                 8.908413e-02 1 1  ON 1
  uu_2                -1.311583e-02 1 1  ON 2
  uu_3                -5.945054e-02 1 1  ON 3
  uu_4                -9.494760e-02 1 1  ON 4
  uu_5                -1.225308e-01 1 1  ON 5
  uu_6                -1.317203e-01 1 1  ON 6
  uu_7                -1.287295e-01 1 1  ON 7
  uu_8                -9.477346e-02 1 1  ON 8
  uu_9                -1.676184e-02 1 1  ON 9
  ud_0                 7.554226e-01 1 1  ON 10
  ud_1                 4.121736e-01 1 1  ON 11
  ud_2                 1.906751e-01 1 1  ON 12
  ud_3                 7.261954e-02 1 1  ON 13
  ud_4                 3.104028e-03 1 1  ON 14
  ud_5                -4.926921e-02 1 1  ON 15
  ud_6                -7.648876e-02 1 1  ON 16
  ud_7                -1.048323e-01 1 1  ON 17
  ud_8                -1.031547e-01 1 1  ON 18
  ud_9                -6.682664e-02 1 1  ON 19
  eV_0                -2.322237e+00 1 1  ON 20
  eV_1                -1.820553e+00 1 1  ON 21
  eV_2                -5.697449e-01 1 1  ON 22
  eV_3                 1.657576e-01 1 1  ON 23
  eV_4                 4.871651e-01 1 1  ON 24
  eV_5                 6.894977e-01 1 1  ON 25
  eV_6                 1.023384e+00 1 1  ON 26
  eV_7                 1.123784e+00 1 1  ON 27
  eV_8                 8.956894e-01 1 1  ON 28
  eV_9                 3.400960e-01 1 1  ON 29
 uuV_0                 2.787004e-06 1 1  ON 30
 uuV_1                 7.650345e-06 1 1  ON 31
 uuV_2                 1.412349e-06 1 1  ON 32
 uuV_3                -3.686527e-06 1 1  ON 33
 uuV_4                -6.198641e-07 1 1  ON 34
 uuV_5                 1.063697e-08 1 1  ON 35
 uuV_6                 7.686622e-06 1 1  ON 36
 uuV_7                 3.629982e-06 1 1  ON 37
 uuV_8                 2.075788e-06 1 1  ON 38
 uuV_9                -9.903464e-06 1 1  ON 39
uuV_10                -1.986953e-06 1 1  ON 40
uuV_11                -2.956644e-06 1 1  ON 41
uuV_12                -3.764805e-08 1 1  ON 42
uuV_13                 1.667084e-06 1 1  ON 43
uuV_14                 1.155286e-07 1 1  ON 44
uuV_15                -1.080017e-08 1 1  ON 45
uuV_16                 1.196998e-05 1 1  ON 46
uuV_17                -1.511382e-06 1 1  ON 47
uuV_18                 1.577204e-06 1 1  ON 48
uuV_19                -2.534183e-07 1 1  ON 49
uuV_20                -1.676109e-06 1 1  ON 50
uuV_21                -4.599772e-08 1 1  ON 51
uuV_22                 3.099928e-08 1 1  ON 52
uuV_23                 3.778988e-07 1 1  ON 53
uuV_24                -1.858569e-08 1 1  ON 54
uuV_25                -4.110012e-09 1 1  ON 55
 udV_0                 4.585754e-06 1 1  ON 56
 udV_1                 1.574751e-05 1 1  ON 57
 udV_2                 6.405471e-06 1 1  ON 58
 udV_3                -6.746345e-06 1 1  ON 59
 udV_4                -1.591815e-06 1 1  ON 60
 udV_5                -1.809834e-06 1 1  ON 61
 udV_6                 2.367184e-05 1 1  ON 62
 udV_7                 7.860872e-07 1 1  ON 63
 udV_8                 5.205625e-06 1 1  ON 64
 udV_9                -2.403280e-05 1 1  ON 65
udV_10                -3.599329e-06 1 1  ON 66
udV_11                -4.582278e-06 1 1  ON 67
udV_12                -4.013302e-07 1 1  ON 68
udV_13                 5.951255e-06 1 1  ON 69
udV_14                 1.701444e-07 1 1  ON 70
udV_15                 9.804589e-09 1 1  ON 71
udV_16                 2.738883e-05 1 1  ON 72
udV_17                -1.703957e-06 1 1  ON 73
udV_18                 2.023786e-06 1 1  ON 74
udV_19                -2.926394e-07 1 1  ON 75
udV_20                -6.041299e-06 1 1  ON 76
udV_21                 1.843434e-07 1 1  ON 77
udV_22                 1.200012e-08 1 1  ON 78
udV_23                 1.641822e-06 1 1  ON 79
udV_24                -1.252976e-07 1 1  ON 80
udV_25                 7.267605e-09 1 1  ON 81
  </optVariables>
   Restore the number of walkers to 1, removing 0 walkers.
</opt>
</optimization-report>
  QMC Execution time = 5.126 secs
  Reusing QMCFixedSampleLinearOptimize
 Using QMCCostFunction::QMCCostFunction

=========================================================
  Start QMCFixedSampleLinearOptimize
  File Root V.log.s006 append = no 
=========================================================
  Skip QMCDriver::putQMCInfo 
  Resetting Properties of the walkers 1 x 13

=========================================================
  Start VMC
  File Root V.log.s006 append = no 
=========================================================
Using existing walkers 
  Resetting Properties of the walkers 1 x 13

<vmc function="put">
  qmc_counter=5  my_counter=5
  time step      = 1.0000e-01
  blocks         = 500
  steps          = 1
  substeps       = 5
  current        = 0
  target samples = 5.1200e+05
  walkers/mpi    = 1

  stepsbetweensamples = 1
<parameter name="blocks" condition="int">500</parameter>
<parameter name="blocks_between_recompute" condition="int">0</parameter>
<parameter name="check_properties" condition="int">100</parameter>
<parameter name="checkproperties" condition="int">100</parameter>
<parameter name="current" condition="int">0</parameter>
<parameter name="dmcwalkersperthread" condition="real">5.0000e+02</parameter>
<parameter name="maxcpusecs" condition="real">3.6000e+05</parameter>
<parameter name="record_configs" condition="int">0</parameter>
<parameter name="record_walkers" condition="int">1</parameter>
<parameter name="recordconfigs" condition="int">0</parameter>
<parameter name="recordwalkers" condition="int">1</parameter>
<parameter name="rewind" condition="int">0</parameter>
<parameter name="samples" condition="real">5.1200e+05</parameter>
<parameter name="samplesperthread" condition="real">5.0000e+02</parameter>
<parameter name="steps" condition="int">1</parameter>
<parameter name="stepsbetweensamples" condition="int">1</parameter>
<parameter name="store_configs" condition="int">0</parameter>
<parameter name="storeconfigs" condition="int">0</parameter>
<parameter name="sub_steps" condition="int">5</parameter>
<parameter name="substeps" condition="int">5</parameter>
<parameter name="tau" condition="au">1.0000e-01</parameter>
<parameter name="time_step" condition="au">1.0000e-01</parameter>
<parameter name="timestep" condition="au">1.0000e-01</parameter>
<parameter name="use_drift" condition="string">no</parameter>
<parameter name="usedrift" condition="string">no</parameter>
<parameter name="walkers" condition="int">1</parameter>
<parameter name="warmup_steps" condition="int">0</parameter>
<parameter name="warmupsteps" condition="int">0</parameter>
  DumpConfig==false Nothing (configurations, state) will be saved.
  Walker Samples are dumped every 1 steps.
</vmc>
  Set drift_modifier UNR parameter a = 1.0000e+00
  EstimatorManagerBase::add replace LocalEnergy estimator.
  Set drift_modifier UNR parameter a = 1.0000e+00
  EstimatorManagerBase::add replace LocalEnergy estimator.
<optimization-report>
<vmc stage="main" blocks="500">
  Cannot make clones again. Use existing 1 clones
  Initial partition of walkers 0 1 
  Using Particle by Particle moves
  Walker moves without drift
  Total Sample Size   =512000
  Walker distribution on root = 0 1 
  Using Locality Approximation
===== Memory Usage after the buffer registration =====
Available memory on node 0, free + buffers : 51365 MB
Memory footprint by rank 0 on node 0       : 598 MB
==================================================
====================================================
  SimpleFixedNodeBranch::finalize after a VMC block
    QMC counter        = 6
    time step          = 0.1
    reference energy   = -71.3212
    reference variance = 0.942147
====================================================
  Execution time = 3.1026e+00
</vmc>
<opt stage="setup">
  <log>
   Reading configurations from h5FileRoot V.log.s006
  QMCCostFunction is created with 1 threads.
  Using Nonlocal PP in Opt: NonLocalECP
   Number of samples loaded to each thread : 500 
  VMC Eavg = -7.1350e+01
  VMC Evar = 1.0210e+00
  Total weights = 5.1200e+05
  Execution time = 1.4595e+00
  </log>
</opt>
<opt stage="main" walkers="512000">
  <log>

*****************************************
Building overlap and Hamiltonian matrices
*****************************************

Among totally 82 optimized parameters, largest LM parameter change : 2.4869e-02 at parameter 28

******************************************************************************
Init Cost =  -6.7731e+01    New Cost =  -6.7732e+01  Delta Cost =  -2.0566e-04
******************************************************************************

The new set of parameters is valid. Updating the trial wave function!

*****************************************************************************
Applying the update for shift_i =   1.0000e-02     and shift_s =   3.9062e-03
*****************************************************************************
  Execution time = 5.1563e+00
  </log>
  <optVariables href="V.log.s006.opt.xml">
  uu_0                 2.561503e-01 1 1  ON 0
  uu_1                 8.811321e-02 1 1  ON 1
  uu_2                -1.550758e-02 1 1  ON 2
  uu_3                -6.068190e-02 1 1  ON 3
  uu_4                -9.355555e-02 1 1  ON 4
  uu_5                -1.224299e-01 1 1  ON 5
  uu_6                -1.311045e-01 1 1  ON 6
  uu_7                -1.286429e-01 1 1  ON 7
  uu_8                -9.128234e-02 1 1  ON 8
  uu_9                -1.477488e-02 1 1  ON 9
  ud_0                 7.686130e-01 1 1  ON 10
  ud_1                 4.199562e-01 1 1  ON 11
  ud_2                 1.948574e-01 1 1  ON 12
  ud_3                 7.751108e-02 1 1  ON 13
  ud_4                 8.525610e-03 1 1  ON 14
  ud_5                -4.382926e-02 1 1  ON 15
  ud_6                -7.252873e-02 1 1  ON 16
  ud_7                -1.023121e-01 1 1  ON 17
  ud_8                -1.059777e-01 1 1  ON 18
  ud_9                -6.906967e-02 1 1  ON 19
  eV_0                -2.338218e+00 1 1  ON 20
  eV_1                -1.843700e+00 1 1  ON 21
  eV_2                -5.711362e-01 1 1  ON 22
  eV_3                 1.905316e-01 1 1  ON 23
  eV_4                 4.893983e-01 1 1  ON 24
  eV_5                 6.676985e-01 1 1  ON 25
  eV_6                 1.015724e+00 1 1  ON 26
  eV_7                 1.124665e+00 1 1  ON 27
  eV_8                 9.205580e-01 1 1  ON 28
  eV_9                 3.574428e-01 1 1  ON 29
 uuV_0                 2.980510e-06 1 1  ON 30
 uuV_1                 8.000897e-06 1 1  ON 31
 uuV_2                 1.260631e-06 1 1  ON 32
 uuV_3                -4.142503e-06 1 1  ON 33
 uuV_4                -7.124746e-07 1 1  ON 34
 uuV_5                 9.887148e-09 1 1  ON 35
 uuV_6                 7.965468e-06 1 1  ON 36
 uuV_7                 3.102569e-06 1 1  ON 37
 uuV_8                 2.113686e-06 1 1  ON 38
 uuV_9                -1.020529e-05 1 1  ON 39
uuV_10                -2.387856e-06 1 1  ON 40
uuV_11                -2.362959e-06 1 1  ON 41
uuV_12                -1.304485e-07 1 1  ON 42
uuV_13                 2.401778e-06 1 1  ON 43
uuV_14                 1.805710e-07 1 1  ON 44
uuV_15                -8.699969e-09 1 1  ON 45
uuV_16                 1.183455e-05 1 1  ON 46
uuV_17                -4.797786e-07 1 1  ON 47
uuV_18                 9.059513e-07 1 1  ON 48
uuV_19                -1.568458e-07 1 1  ON 49
uuV_20                -1.959934e-06 1 1  ON 50
uuV_21                 2.886565e-08 1 1  ON 51
uuV_22                 1.788401e-08 1 1  ON 52
uuV_23                 4.704955e-07 1 1  ON 53
uuV_24                -3.847116e-08 1 1  ON 54
uuV_25                -9.936468e-10 1 1  ON 55
 udV_0                 4.603117e-06 1 1  ON 56
 udV_1                 1.546330e-05 1 1  ON 57
 udV_2                 6.506564e-06 1 1  ON 58
 udV_3                -6.506012e-06 1 1  ON 59
 udV_4                -1.548907e-06 1 1  ON 60
 udV_5                -1.831135e-06 1 1  ON 61
 udV_6                 2.335184e-05 1 1  ON 62
 udV_7                 1.320935e-06 1 1  ON 63
 udV_8                 5.296420e-06 1 1  ON 64
 udV_9                -2.384272e-05 1 1  ON 65
udV_10                -3.348056e-06 1 1  ON 66
udV_11                -5.155831e-06 1 1  ON 67
udV_12                -3.608539e-07 1 1  ON 68
udV_13                 5.528031e-06 1 1  ON 69
udV_14                 1.638658e-07 1 1  ON 70
udV_15                 6.893933e-09 1 1  ON 71
udV_16                 2.765772e-05 1 1  ON 72
udV_17                -2.387099e-06 1 1  ON 73
udV_18                 2.670765e-06 1 1  ON 74
udV_19                -3.786722e-07 1 1  ON 75
udV_20                -5.957813e-06 1 1  ON 76
udV_21                 9.578583e-08 1 1  ON 77
udV_22                 2.782166e-08 1 1  ON 78
udV_23                 1.601811e-06 1 1  ON 79
udV_24                -1.032904e-07 1 1  ON 80
udV_25                 3.102951e-09 1 1  ON 81
  </optVariables>
   Restore the number of walkers to 1, removing 0 walkers.
</opt>
</optimization-report>
  QMC Execution time = 5.182 secs
  Reusing QMCFixedSampleLinearOptimize
 Using QMCCostFunction::QMCCostFunction

=========================================================
  Start QMCFixedSampleLinearOptimize
  File Root V.log.s007 append = no 
=========================================================
  Skip QMCDriver::putQMCInfo 
  Resetting Properties of the walkers 1 x 13

=========================================================
  Start VMC
  File Root V.log.s007 append = no 
=========================================================
Using existing walkers 
  Resetting Properties of the walkers 1 x 13

<vmc function="put">
  qmc_counter=6  my_counter=6
  time step      = 1.0000e-01
  blocks         = 500
  steps          = 1
  substeps       = 5
  current        = 0
  target samples = 5.1200e+05
  walkers/mpi    = 1

  stepsbetweensamples = 1
<parameter name="blocks" condition="int">500</parameter>
<parameter name="blocks_between_recompute" condition="int">0</parameter>
<parameter name="check_properties" condition="int">100</parameter>
<parameter name="checkproperties" condition="int">100</parameter>
<parameter name="current" condition="int">0</parameter>
<parameter name="dmcwalkersperthread" condition="real">5.0000e+02</parameter>
<parameter name="maxcpusecs" condition="real">3.6000e+05</parameter>
<parameter name="record_configs" condition="int">0</parameter>
<parameter name="record_walkers" condition="int">1</parameter>
<parameter name="recordconfigs" condition="int">0</parameter>
<parameter name="recordwalkers" condition="int">1</parameter>
<parameter name="rewind" condition="int">0</parameter>
<parameter name="samples" condition="real">5.1200e+05</parameter>
<parameter name="samplesperthread" condition="real">5.0000e+02</parameter>
<parameter name="steps" condition="int">1</parameter>
<parameter name="stepsbetweensamples" condition="int">1</parameter>
<parameter name="store_configs" condition="int">0</parameter>
<parameter name="storeconfigs" condition="int">0</parameter>
<parameter name="sub_steps" condition="int">5</parameter>
<parameter name="substeps" condition="int">5</parameter>
<parameter name="tau" condition="au">1.0000e-01</parameter>
<parameter name="time_step" condition="au">1.0000e-01</parameter>
<parameter name="timestep" condition="au">1.0000e-01</parameter>
<parameter name="use_drift" condition="string">no</parameter>
<parameter name="usedrift" condition="string">no</parameter>
<parameter name="walkers" condition="int">1</parameter>
<parameter name="warmup_steps" condition="int">0</parameter>
<parameter name="warmupsteps" condition="int">0</parameter>
  DumpConfig==false Nothing (configurations, state) will be saved.
  Walker Samples are dumped every 1 steps.
</vmc>
  Set drift_modifier UNR parameter a = 1.0000e+00
  EstimatorManagerBase::add replace LocalEnergy estimator.
  Set drift_modifier UNR parameter a = 1.0000e+00
  EstimatorManagerBase::add replace LocalEnergy estimator.
<optimization-report>
<vmc stage="main" blocks="500">
  Cannot make clones again. Use existing 1 clones
  Initial partition of walkers 0 1 
  Using Particle by Particle moves
  Walker moves without drift
  Total Sample Size   =512000
  Walker distribution on root = 0 1 
  Using Locality Approximation
===== Memory Usage after the buffer registration =====
Available memory on node 0, free + buffers : 51362 MB
Memory footprint by rank 0 on node 0       : 602 MB
==================================================
====================================================
  SimpleFixedNodeBranch::finalize after a VMC block
    QMC counter        = 7
    time step          = 0.1
    reference energy   = -71.3811
    reference variance = 0.927645
====================================================
  Execution time = 3.0859e+00
</vmc>
<opt stage="setup">
  <log>
   Reading configurations from h5FileRoot V.log.s007
  QMCCostFunction is created with 1 threads.
  Using Nonlocal PP in Opt: NonLocalECP
   Number of samples loaded to each thread : 500 
  VMC Eavg = -7.1354e+01
  VMC Evar = 1.1067e+00
  Total weights = 5.1200e+05
  Execution time = 1.4533e+00
  </log>
</opt>
<opt stage="main" walkers="512000">
  <log>

*****************************************
Building overlap and Hamiltonian matrices
*****************************************

Among totally 82 optimized parameters, largest LM parameter change : 2.3949e-02 at parameter 21

******************************************************************************
Init Cost =  -6.7731e+01    New Cost =  -6.7731e+01  Delta Cost =  -1.8419e-04
******************************************************************************

The new set of parameters is valid. Updating the trial wave function!

*****************************************************************************
Applying the update for shift_i =   1.0000e-02     and shift_s =   3.9062e-03
*****************************************************************************
  Execution time = 5.1408e+00
  </log>
  <optVariables href="V.log.s007.opt.xml">
  uu_0                 2.531891e-01 1 1  ON 0
  uu_1                 8.599093e-02 1 1  ON 1
  uu_2                -1.797098e-02 1 1  ON 2
  uu_3                -6.732232e-02 1 1  ON 3
  uu_4                -1.000346e-01 1 1  ON 4
  uu_5                -1.252107e-01 1 1  ON 5
  uu_6                -1.347949e-01 1 1  ON 6
  uu_7                -1.276103e-01 1 1  ON 7
  uu_8                -8.876927e-02 1 1  ON 8
  uu_9                -1.336078e-02 1 1  ON 9
  ud_0                 7.784718e-01 1 1  ON 10
  ud_1                 4.290098e-01 1 1  ON 11
  ud_2                 2.013552e-01 1 1  ON 12
  ud_3                 8.087652e-02 1 1  ON 13
  ud_4                 1.143132e-02 1 1  ON 14
  ud_5                -3.916129e-02 1 1  ON 15
  ud_6                -6.845799e-02 1 1  ON 16
  ud_7                -1.023312e-01 1 1  ON 17
  ud_8                -1.104822e-01 1 1  ON 18
  ud_9                -7.737355e-02 1 1  ON 19
  eV_0                -2.352227e+00 1 1  ON 20
  eV_1                -1.867648e+00 1 1  ON 21
  eV_2                -5.735695e-01 1 1  ON 22
  eV_3                 2.096768e-01 1 1  ON 23
  eV_4                 5.012917e-01 1 1  ON 24
  eV_5                 6.488093e-01 1 1  ON 25
  eV_6                 9.977963e-01 1 1  ON 26
  eV_7                 1.127354e+00 1 1  ON 27
  eV_8                 9.397278e-01 1 1  ON 28
  eV_9                 3.764968e-01 1 1  ON 29
 uuV_0                 2.911133e-06 1 1  ON 30
 uuV_1                 7.689775e-06 1 1  ON 31
 uuV_2                 1.415195e-06 1 1  ON 32
 uuV_3                -3.753521e-06 1 1  ON 33
 uuV_4                -5.889199e-07 1 1  ON 34
 uuV_5                -8.288223e-09 1 1  ON 35
 uuV_6                 7.696385e-06 1 1  ON 36
 uuV_7                 3.555864e-06 1 1  ON 37
 uuV_8                 2.084722e-06 1 1  ON 38
 uuV_9                -1.005449e-05 1 1  ON 39
uuV_10                -1.945475e-06 1 1  ON 40
uuV_11                -2.975333e-06 1 1  ON 41
uuV_12                -6.961612e-09 1 1  ON 42
uuV_13                 1.808028e-06 1 1  ON 43
uuV_14                 1.018431e-07 1 1  ON 44
uuV_15                -1.300000e-08 1 1  ON 45
uuV_16                 1.220648e-05 1 1  ON 46
uuV_17                -1.433013e-06 1 1  ON 47
uuV_18                 1.555905e-06 1 1  ON 48
uuV_19                -2.781382e-07 1 1  ON 49
uuV_20                -1.836222e-06 1 1  ON 50
uuV_21                -2.020649e-08 1 1  ON 51
uuV_22                 3.116106e-08 1 1  ON 52
uuV_23                 4.300833e-07 1 1  ON 53
uuV_24                -3.195651e-08 1 1  ON 54
uuV_25                -2.677214e-09 1 1  ON 55
 udV_0                 4.803955e-06 1 1  ON 56
 udV_1                 1.569857e-05 1 1  ON 57
 udV_2                 6.307485e-06 1 1  ON 58
 udV_3                -6.717892e-06 1 1  ON 59
 udV_4                -1.522676e-06 1 1  ON 60
 udV_5                -1.851091e-06 1 1  ON 61
 udV_6                 2.369364e-05 1 1  ON 62
 udV_7                 3.340993e-07 1 1  ON 63
 udV_8                 4.960782e-06 1 1  ON 64
 udV_9                -2.418856e-05 1 1  ON 65
udV_10                -3.492892e-06 1 1  ON 66
udV_11                -4.409013e-06 1 1  ON 67
udV_12                -3.209224e-07 1 1  ON 68
udV_13                 5.962438e-06 1 1  ON 69
udV_14                 7.645993e-08 1 1  ON 70
udV_15                 1.162039e-08 1 1  ON 71
[...]
  uu_2                -4.142266e-02 1 1  ON 2
  uu_3                -7.620883e-02 1 1  ON 3
  uu_4                -1.029566e-01 1 1  ON 4
  uu_5                -1.267652e-01 1 1  ON 5
  uu_6                -1.356636e-01 1 1  ON 6
  uu_7                -1.434033e-01 1 1  ON 7
  uu_8                -1.232704e-01 1 1  ON 8
  uu_9                -4.821682e-02 1 1  ON 9
  ud_0                 7.928398e-01 1 1  ON 10
  ud_1                 4.458572e-01 1 1  ON 11
  ud_2                 2.241264e-01 1 1  ON 12
  ud_3                 1.113578e-01 1 1  ON 13
  ud_4                 4.660423e-02 1 1  ON 14
  ud_5                -1.354951e-03 1 1  ON 15
  ud_6                -3.163064e-02 1 1  ON 16
  ud_7                -6.745665e-02 1 1  ON 17
  ud_8                -8.954592e-02 1 1  ON 18
  ud_9                -6.663444e-02 1 1  ON 19
  eV_0                -2.540003e+00 1 1  ON 20
  eV_1                -2.031730e+00 1 1  ON 21
  eV_2                -6.062923e-01 1 1  ON 22
  eV_3                 3.141797e-01 1 1  ON 23
  eV_4                 5.641517e-01 1 1  ON 24
  eV_5                 5.050677e-01 1 1  ON 25
  eV_6                 9.186654e-01 1 1  ON 26
  eV_7                 1.113562e+00 1 1  ON 27
  eV_8                 1.115405e+00 1 1  ON 28
  eV_9                 5.856461e-01 1 1  ON 29
 uuV_0                 3.205767e-06 1 1  ON 30
 uuV_1                 7.588421e-06 1 1  ON 31
 uuV_2                 7.329419e-07 1 1  ON 32
 uuV_3                -3.854823e-06 1 1  ON 33
 uuV_4                -5.740495e-07 1 1  ON 34
 uuV_5                 2.705135e-07 1 1  ON 35
 uuV_6                 6.853395e-06 1 1  ON 36
 uuV_7                 3.305298e-06 1 1  ON 37
 uuV_8                 1.734552e-06 1 1  ON 38
 uuV_9                -9.588319e-06 1 1  ON 39
uuV_10                -2.115099e-06 1 1  ON 40
uuV_11                -2.410383e-06 1 1  ON 41
uuV_12                -3.187670e-08 1 1  ON 42
uuV_13                 2.035031e-06 1 1  ON 43
uuV_14                 1.418588e-07 1 1  ON 44
uuV_15                -1.393619e-08 1 1  ON 45
uuV_16                 1.161293e-05 1 1  ON 46
uuV_17                -8.222019e-07 1 1  ON 47
uuV_18                 1.099725e-06 1 1  ON 48
uuV_19                -1.845979e-07 1 1  ON 49
uuV_20                -1.843443e-06 1 1  ON 50
uuV_21                -1.340784e-08 1 1  ON 51
uuV_22                 2.300184e-08 1 1  ON 52
uuV_23                 4.442034e-07 1 1  ON 53
uuV_24                -3.091040e-08 1 1  ON 54
uuV_25                -2.318609e-09 1 1  ON 55
 udV_0                 4.877287e-06 1 1  ON 56
 udV_1                 1.609164e-05 1 1  ON 57
 udV_2                 6.175065e-06 1 1  ON 58
 udV_3                -6.922705e-06 1 1  ON 59
 udV_4                -1.595414e-06 1 1  ON 60
 udV_5                -1.687207e-06 1 1  ON 61
 udV_6                 2.405240e-05 1 1  ON 62
 udV_7                 3.134839e-07 1 1  ON 63
 udV_8                 4.819853e-06 1 1  ON 64
 udV_9                -2.449200e-05 1 1  ON 65
udV_10                -3.716380e-06 1 1  ON 66
udV_11                -4.232344e-06 1 1  ON 67
udV_12                -3.400225e-07 1 1  ON 68
udV_13                 5.980630e-06 1 1  ON 69
udV_14                 7.656918e-08 1 1  ON 70
udV_15                 1.288334e-08 1 1  ON 71
udV_16                 2.844572e-05 1 1  ON 72
udV_17                -1.993323e-06 1 1  ON 73
udV_18                 1.985243e-06 1 1  ON 74
udV_19                -2.882070e-07 1 1  ON 75
udV_20                -6.267163e-06 1 1  ON 76
udV_21                 1.901955e-07 1 1  ON 77
udV_22                 9.401843e-09 1 1  ON 78
udV_23                 1.674724e-06 1 1  ON 79
udV_24                -1.231777e-07 1 1  ON 80
udV_25                 7.108152e-09 1 1  ON 81
  </optVariables>
   Restore the number of walkers to 1, removing 0 walkers.
</opt>
</optimization-report>
  QMC Execution time = 5.177 secs

=========================================================
  Start VMC
  File Root V.log.s021 append = no 
=========================================================
  Using the current 1 walkers.
  Total number of walkers: 1024
  Total weight: 1024
  Resetting Properties of the walkers 1 x 13

<vmc function="put">
  qmc_counter=0  my_counter=0
  time step      = 0.1
  blocks         = 200
  steps          = 1
  substeps       = 30
  current        = 0
  target samples = 4096
  walkers/mpi    = 1

  stepsbetweensamples = 50
<parameter name="blocks" condition="int">200</parameter>
<parameter name="blocks_between_recompute" condition="int">0</parameter>
<parameter name="check_properties" condition="int">100</parameter>
<parameter name="checkproperties" condition="int">100</parameter>
<parameter name="current" condition="int">0</parameter>
<parameter name="dmcwalkersperthread" condition="real">4</parameter>
<parameter name="maxcpusecs" condition="real">3.6e+05</parameter>
<parameter name="record_configs" condition="int">0</parameter>
<parameter name="record_walkers" condition="int">50</parameter>
<parameter name="recordconfigs" condition="int">0</parameter>
<parameter name="recordwalkers" condition="int">50</parameter>
<parameter name="rewind" condition="int">0</parameter>
<parameter name="samples" condition="real">4096</parameter>
<parameter name="samplesperthread" condition="real">4</parameter>
<parameter name="steps" condition="int">1</parameter>
<parameter name="stepsbetweensamples" condition="int">50</parameter>
<parameter name="store_configs" condition="int">0</parameter>
<parameter name="storeconfigs" condition="int">0</parameter>
<parameter name="sub_steps" condition="int">30</parameter>
<parameter name="substeps" condition="int">30</parameter>
<parameter name="tau" condition="au">0.1</parameter>
<parameter name="time_step" condition="au">0.1</parameter>
<parameter name="timestep" condition="au">0.1</parameter>
<parameter name="use_drift" condition="string">no</parameter>
<parameter name="usedrift" condition="string">no</parameter>
<parameter name="walkers" condition="int">1</parameter>
<parameter name="warmup_steps" condition="int">100</parameter>
<parameter name="warmupsteps" condition="int">100</parameter>
  DumpConfig==true Configurations are dumped to config.h5 with a period of 200 blocks
  Walker Samples are dumped every 50 steps.
</vmc>
  Set drift_modifier UNR parameter a = 1
  EstimatorManagerBase::add replace LocalEnergy estimator.
  Cannot make clones again. Use existing 1 clones
  Initial partition of walkers 0 1 

  Using Particle by Particle moves
  Walker moves without drift
  Total Sample Size   =4096
  Walker distribution on root = 0 1 
  Using Locality Approximation
===== Memory Usage after the buffer registration =====
Available memory on node 0, free + buffers : 51311 MB
Memory footprint by rank 0 on node 0       : 646 MB
==================================================
  Anonymous Buffer size per walker : 6464 Bytes.
MEMORY increase 0 MB VMC::resetRun
  samples are written to the config.h5
====================================================
  SimpleFixedNodeBranch::finalize after a VMC block
    QMC counter        = 21
    time step          = 0.1
    reference energy   = -71.3278
    reference variance = 0.981764
====================================================
  QMC Execution time = 4.594 secs

=========================================================
  Start DMC
  File Root V.log.s022 append = no 
=========================================================
Using existing walkers 
  Resetting Properties of the walkers 1 x 13
  Set drift_modifier UNR parameter a = 1
  EstimatorManagerBase::add replace LocalEnergy estimator.
  Cannot make clones again. Use existing 1 clones
  Total number of walkers: 4096
  Total weight: 4096
  Creating WalkerController: target  number of walkers = 4096
  Using WalkerControlMPI for dynamic population control.
  START ALL OVER 
  WalkerControlBase parameters 
    maxCopy = 2
    Max Walkers per MPI rank 9
    Min Walkers per MPI rank 1
    Using non-blocking send/recv
  QMC counter      = 22
  time step        = 0.02
  effective time step = 0.02
  trial energy     = -71.33
  reference energy = -71.33
  Feedback = 1
  reference variance = 0.9818
  target walkers = 4096
  branching cutoff scheme classic
  branch cutoff = 50 75
  Max and minimum walkers per node= 9 1
  QMC Status (BranchMode) = 0000001101
  Initial partition of walkers on a node: 0 4 
  Updates by particle-by-particle moves
  DMC moves are rejected when a node crossing is detected
  Using Non-local T-moves v1, M. Casula et al., JCP 132, 154113 (2010)
===== Memory Usage after the buffer registration =====
Available memory on node 0, free + buffers : 51234 MB
Memory footprint by rank 0 on node 0       : 657 MB
==================================================
SimpleFixedNodeBranch::checkParameters 
  Average Energy of a population  = -71.3327
  Energy Variance = 1.02318

  Fluctuating population
  Persistent walkers are killed after 1 MC sweeps
  BranchInterval = 1
  Steps per block = 50
  Number of blocks = 200

  DMC Engine Initialization = 0.03235 secs

 Warmup is completed after 200

  TauEff     = 0.01906
 TauEff/Tau = 0.9532
  Etrial     = -71.36
 Running average of energy = -71.39
                  Variance = 1.148
branch cutoff = 11.48 17.22
====================================================
  SimpleFixedNodeBranch::finalize after a DMC block
    QMC counter                   = 22
    time step                     = 0.02
    effective time step           = 0.0190667
    trial energy                  = -71.4022
    reference energy              = -71.392
    reference variance            = 1.14826
    target walkers                = 4096
    branch cutoff                 = 11.4826 17.2239
    Max and minimum walkers per node= 9 1
    Feedback                      = 1
    QMC Status (BranchMode)       = 0000001111
====================================================
  QMC Execution time = 99.97 secs
  Reusing DMC
BRANCH resetRun
 SimpleFixedNodeBranch::resetRun detected changes in <parameter>'s 
 BranchMode : 0000001111 0000001111
  WalkerControlBase parameters 
    maxCopy = 2
    Max Walkers per MPI rank 9
    Min Walkers per MPI rank 1
    Using non-blocking send/recv
 iParam (old):                  0                 1                22              4096                 9                 1                 1                 0
 iParam (new):                100                 1                22              4096                 9                 1                 1                 0
 vParam (old):               0.02     0.01906669551      -71.40222273      -71.39202104      -71.37215518       17.22389053       11.48259369       0.174176676       1.148259369      -699713.1784              9801                 1                10                 1                 1                 1                 1
 vParam (new):               0.01     0.01906669551      -71.40222273      -71.39202104      -71.37215518       17.22389053       11.48259369       0.174176676       1.148259369      -699713.1784              9801                 1                10                 1                 1                 1                 1

 Using branching cutoff scheme classic
SimpleFixedNodeBranch::checkParameters 
  Average Energy of a population  = -71.376
  Energy Variance = 1.07448

  Using Non-local T-moves v1, M. Casula et al., JCP 132, 154113 (2010)
===== Memory Usage after the buffer registration =====
Available memory on node 0, free + buffers : 51202 MB
Memory footprint by rank 0 on node 0       : 666 MB
==================================================

=========================================================
  Start DMC
  File Root V.log.s023 append = no 
=========================================================
Using existing walkers 
  Resetting Properties of the walkers 1 x 13
  Set drift_modifier UNR parameter a = 1
  EstimatorManagerBase::add replace LocalEnergy estimator.
  Cannot make clones again. Use existing 1 clones
SimpleFixedNodeBranch::checkParameters 
  Average Energy of a population  = -71.3896
  Energy Variance = 1.26357

  Fluctuating population
  Persistent walkers are killed after 1 MC sweeps
  BranchInterval = 1
  Steps per block = 100
  Number of blocks = 250

  DMC Engine Initialization = 0.0003769397736 secs

 Warmup is completed after 100

  TauEff     = 0.009807063717
 TauEff/Tau = 0.9807063717
  Etrial     = -71.23126304
 Running average of energy = -71.3795709
                  Variance = 1.07126757
branch cutoff = 10.7126757 16.06901355
====================================================
  SimpleFixedNodeBranch::finalize after a DMC block
    QMC counter                   = 23
    time step                     = 0.01
    effective time step           = 0.00980536
    trial energy                  = -71.3828
    reference energy              = -71.3877
    reference variance            = 1.07127
    target walkers                = 4096
    branch cutoff                 = 10.7127 16.069
    Max and minimum walkers per node= 9 1
    Feedback                      = 1
    QMC Status (BranchMode)       = 0000001111
====================================================
  QMC Execution time = 329.5 secs
  Reusing DMC
BRANCH resetRun
 SimpleFixedNodeBranch::resetRun detected changes in <parameter>'s 
 BranchMode : 0000001111 0000001111
  WalkerControlBase parameters 
    maxCopy = 2
    Max Walkers per MPI rank 9
    Min Walkers per MPI rank 1
    Using non-blocking send/recv
 iParam (old):                  0                 1                23              4096                 9                 1                 1                 0
 iParam (new):                200                 1                23              4096                 9                 1                 1                 0
 vParam (old):               0.01    0.009805364414      -71.38277421      -71.38766898      -71.39303646       16.06901355        10.7126757      0.1866947209        1.07126757      -1777624.351             24901                 1                10                 1                 1                 1                 1
 vParam (new):              0.005    0.009805364414      -71.38277421      -71.38766898      -71.39303646       16.06901355        10.7126757      0.1866947209        1.07126757      -1777624.351             24901                 1                10                 1                 1                 1                 1

 Using branching cutoff scheme classic
SimpleFixedNodeBranch::checkParameters 
  Average Energy of a population  = -71.3926
  Energy Variance = 1.12974

  Using Non-local T-moves v1, M. Casula et al., JCP 132, 154113 (2010)
===== Memory Usage after the buffer registration =====
Available memory on node 0, free + buffers : 51174 MB
Memory footprint by rank 0 on node 0       : 673 MB
==================================================

=========================================================
  Start DMC
  File Root V.log.s024 append = no 
=========================================================
Using existing walkers 
  Resetting Properties of the walkers 1 x 13
  Set drift_modifier UNR parameter a = 1
  EstimatorManagerBase::add replace LocalEnergy estimator.
  Cannot make clones again. Use existing 1 clones
SimpleFixedNodeBranch::checkParameters 
  Average Energy of a population  = -71.3806
  Energy Variance = 1.35761

  Fluctuating population
  Persistent walkers are killed after 1 MC sweeps
  BranchInterval = 1
  Steps per block = 200
  Number of blocks = 300

  DMC Engine Initialization = 0.0003440380096 secs

 Warmup is completed after 200

  TauEff     = 0.004961197201
 TauEff/Tau = 0.9922394401
  Etrial     = -71.27705154
 Running average of energy = -71.38177845
                  Variance = 1.070515026
branch cutoff = 10.70515026 16.05772538
====================================================
  SimpleFixedNodeBranch::finalize after a DMC block
    QMC counter                   = 24
    time step                     = 0.005
    effective time step           = 0.0049609
    trial energy                  = -71.3822
    reference energy              = -71.3851
    reference variance            = 1.07052
    target walkers                = 4096
    branch cutoff                 = 10.7052 16.0577
    Max and minimum walkers per node= 9 1
    Feedback                      = 1
    QMC Status (BranchMode)       = 0000001111
====================================================
  QMC Execution time = 698.4 secs
  Reusing DMC
BRANCH resetRun
 SimpleFixedNodeBranch::resetRun detected changes in <parameter>'s 
 BranchMode : 0000001111 0000001111
  WalkerControlBase parameters 
    maxCopy = 2
    Max Walkers per MPI rank 9
    Min Walkers per MPI rank 1
    Using non-blocking send/recv
 iParam (old):                  0                 1                24              4096                 9                 1                 1                 0
 iParam (new):                400                 1                24              4096                 9                 1                 1                 0
 vParam (old):              0.005    0.004960896401       -71.3822024      -71.38513639      -71.40345501       16.05772538       10.70515026      0.1868259625       1.070515026       -4268902.56             59801                 1                10                 1                 1                 1                 1
 vParam (new):             0.0025    0.004960896401       -71.3822024      -71.38513639      -71.40345501       16.05772538       10.70515026      0.1868259625       1.070515026       -4268902.56             59801                 1                10                 1                 1                 1                 1

 Using branching cutoff scheme classic
SimpleFixedNodeBranch::checkParameters 
  Average Energy of a population  = -71.4081
  Energy Variance = 1.13658

  Using Non-local T-moves v1, M. Casula et al., JCP 132, 154113 (2010)
===== Memory Usage after the buffer registration =====
Available memory on node 0, free + buffers : 51144 MB
Memory footprint by rank 0 on node 0       : 681 MB
==================================================

=========================================================
  Start DMC
  File Root V.log.s025 append = no 
=========================================================
Using existing walkers 
  Resetting Properties of the walkers 1 x 13
  Set drift_modifier UNR parameter a = 1
  EstimatorManagerBase::add replace LocalEnergy estimator.
  Cannot make clones again. Use existing 1 clones
SimpleFixedNodeBranch::checkParameters 
  Average Energy of a population  = -71.3941
  Energy Variance = 1.09315

  Fluctuating population
  Persistent walkers are killed after 1 MC sweeps
  BranchInterval = 1
  Steps per block = 400
  Number of blocks = 350

  DMC Engine Initialization = 0.0004050731659 secs

 Warmup is completed after 400

  TauEff     = 0.002492339066
 TauEff/Tau = 0.9969356263
  Etrial     = -72.17992761
 Running average of energy = -71.38331151
                  Variance = 1.056334984
branch cutoff = 10.56334984 15.84502476
====================================================
  SimpleFixedNodeBranch::finalize after a DMC block
    QMC counter                   = 25
    time step                     = 0.0025
    effective time step           = 0.00249233
    trial energy                  = -71.3709
    reference energy              = -71.3842
    reference variance            = 1.05633
    target walkers                = 4096
    branch cutoff                 = 10.5633 15.845
    Max and minimum walkers per node= 9 1
    Feedback                      = 1
    QMC Status (BranchMode)       = 0000001111
====================================================
  QMC Execution time = 1547 secs
  Total Execution time = 2785 secs

=========================================================
  A new xml input file : V.log.s025.cont.xml
TACC:  Shutdown complete. Exiting. 
