
 Primary working directories    : /global/cscratch1/sd/aannabe
 Secondary working directories  : /global/cscratch1/sd/aannabe
 Wavefunction directory         : /global/homes/a/aannabe/wfu/
 Main file repository           : /global/cscratch1/sd/aannabe/

 SHA1      : 2873118e99aab1bc19f5b6fc1784693c06d15c95
 NAME      : 2015.1.8
 ARCHNAME  : linux/x86_64
 FC        : /opt/cray/pe/craype/2.5.5/bin/ftn
 BLASLIB   : -Wl,-_start-group /opt/intel/compilers_and_libraries_2016.3.210/linux/mkl/lib/intel64/libmkl_intel_ilp64.a /opt/intel/compilers_and_libraries_2016.3.210/linux/mkl/lib/intel64/libmkl_intel_thread.a /opt/intel/compilers_and_libraries_2016.3.210/linux/mkl/lib/intel64/libmkl_core.a -Wl,-_end-group
 id        : lbl

 Nodes     nprocs
 nid00471     1

 Using customized tuning parameters: mindgm=8; mindgv=16; mindgc=4; mindgr=1; noblas=0; minvec=7
 default implementation of scratch files=df  

 ***,Co
 memory,512,m
 gthresh,twoint=1.e-12
 
 gprint,basis,orbitals
 gexpec,ekin,pot
 
 angstrom
 geometry={
 1                                                                               ! Number of atoms
 Co 0.0 0.0 0.0
 }
 
 basis={
 Including file /global/homes/a/aannabe/docs/accurate/ccECP_D2h/pps/Co.pp
                                             !include,/global/homes/a/aannabe/docs/accurate/ccECP_D2h/basis/aug-cc-pVnZ/Co_dz.basis
 Including file /global/homes/a/aannabe/docs/accurate/ccECP_D2h/basis/cc-pVnZ/Co_dz.basis
 }
 
 {hf
 wf,17,6,3
 occ,4,1,1,1,1,1,1,0
 closed,3,1,1,0,1,1,0,0
                                                                                 !open,4.1,1.7,1.4
 sym,1,1,1,3,2
 }
 scf(i)=energy
 
 _CC_NORM_MAX=2.0
 {rccsd(t)
 maxit,100
 core
 }
 posthf(i)=energy
 
 table,scf,posthf,ekin,pot
 save,2.csv,new
 
 

 Variables initialized (889), CPU time= 0.01 sec
 Commands  initialized (702), CPU time= 0.01 sec, 572 directives.
 Default parameters read. Elapsed time= 0.17 sec

 Checking input...
 Passed
1


                                         ***  PROGRAM SYSTEM MOLPRO  ***
                                       Copyright, TTI GmbH Stuttgart, 2015
                                    Version 2015.1 linked Sep  7 2016 23:09:38


 **********************************************************************************************************************************
 LABEL *   Co                                                                            
  64 bit serial version                                                                  DATE: 13-Nov-18          TIME: 22:26:14  
 **********************************************************************************************************************************

 SHA1:             2873118e99aab1bc19f5b6fc1784693c06d15c95
 **********************************************************************************************************************************

 THRESHOLDS:

 ZERO    =  1.00D-12  ONEINT  =  1.00D-12  TWOINT  =  1.00D-12  PREFAC  =  1.00D-14  LOCALI  =  1.00D-09  EORDER  =  1.00D-04
 ENERGY  =  0.00D+00  ETEST   =  0.00D+00  EDENS   =  0.00D+00  THRDEDEF=  1.00D-06  GRADIENT=  1.00D-02  STEP    =  1.00D-03
 ORBITAL =  1.00D-05  CIVEC   =  1.00D-05  COEFF   =  1.00D-04  PRINTCI =  5.00D-02  PUNCHCI =  9.90D+01  OPTGRAD =  3.00D-04
 OPTENERG=  1.00D-06  OPTSTEP =  3.00D-04  THRGRAD =  1.00D-10  COMPRESS=  1.00D-11  VARMIN  =  1.00D-07  VARMAX  =  1.00D-03
 THRDOUB =  0.00D+00  THRDIV  =  1.00D-05  THRRED  =  1.00D-07  THRPSP  =  1.00D+00  THRDC   =  1.00D-10  THRCS   =  1.00D-10
 THRNRM  =  1.00D-08  THREQ   =  0.00D+00  THRDE   =  1.00D+00  THRREF  =  1.00D-05  SPARFAC =  1.00D+00  THRDLP  =  1.00D-07
 THRDIA  =  1.00D-10  THRDLS  =  1.00D-07  THRGPS  =  0.00D+00  THRKEX  =  0.00D+00  THRDIS  =  2.00D-01  THRVAR  =  1.00D-10
 THRLOC  =  1.00D-06  THRGAP  =  1.00D-06  THRLOCT = -1.00D+00  THRGAPT = -1.00D+00  THRORB  =  1.00D-06  THRMLTP =  0.00D+00
 THRCPQCI=  1.00D-10  KEXTA   =  0.00D+00  THRCOARS=  0.00D+00  SYMTOL  =  1.00D-06  GRADTOL =  1.00D-06  THROVL  =  1.00D-08
 THRORTH =  1.00D-08  GRID    =  1.00D-06  GRIDMAX =  1.00D-03  DTMAX   =  0.00D+00  THROCCDE=  1.00D-01  THROCCDE=  1.00D-01



 ZUNIT=ANG
 

Geometry recognized as XYZ


 Variable memory set to  512000000 words,  buffer space   230000 words

 SETTING BASIS          =    USERDEF


 Recomputing integrals since basis changed


 Using spherical harmonics



 PROGRAM * SEWARD (Integral evaluation for generally contracted gaussian basis sets)     Author: Roland Lindh, 1990

 Geometry written to block  1 of record 700

 Orientation using atomic masses  
 Molecule type: Atom
 Symmetry elements: X,Y,Z
 Rotational constants:       0.0000000      0.0000000      0.0000000 GHz  (calculated with average atomic masses)

 Point group  D2h 



 ATOMIC COORDINATES

 NR  ATOM    CHARGE       X              Y              Z

   1  CO     17.00    0.000000000    0.000000000    0.000000000


          CO  CORE POTENTIAL

          d POTENTIAL

 POWERS             1              3              2              2
 EXPONENTIALS   25.00124       22.83490       23.47468       10.33795    
 COEFFICIENTS   17.00000       425.0211      -195.4821      -2.815729    

          s - d POTENTIAL

 POWERS             2              2
 EXPONENTIALS   23.41427       10.76932    
 COEFFICIENTS   271.7771       54.26461    

          p - d POTENTIAL

 POWERS             2              2
 EXPONENTIALS   25.47446       10.68405    
 COEFFICIENTS   201.5343       38.99232    


 BASIS DATA

   Nr Sym  Nuc  Type         Exponents   Contraction coefficients

    1.1 Ag    1  1s          90.663831     0.000774   -0.000154   -0.000047    0.000000
    2.1 Ag                   46.961414    -0.011316    0.002525    0.003654    0.000000
    3.1 Ag                   24.110274     0.101209   -0.024443   -0.046132    0.000000
    4.1 Ag                   14.430881    -0.081642    0.022200    0.036483    0.000000
                              8.757423    -0.354812    0.088416    0.217265    0.000000
                              4.484459    -0.090362    0.016820   -0.011883    0.000000
                              2.519739     0.498174   -0.134582   -0.324688    0.000000
                              1.236850     0.604123   -0.231295   -0.680581    0.000000
                              0.601882     0.190775   -0.163986    0.256936    0.000000
                              0.223338     0.006578    0.121337    1.224005    0.000000
                              0.123422    -0.000905    0.402414    0.236837    0.000000
                              0.059941     0.000171    0.506113   -0.604064    0.000000
                              0.027978    -0.000025    0.145436   -0.574947    1.000000
    5.1 Ag    1  1s           1.010269     1.000000
    6.1 Ag    1  1s           3.893671     1.000000
    7.1 Ag    1  3d0        160.444504     0.000034
                             52.598830     0.006553
                             27.491581     0.036185
                             12.745988     0.083026
                              6.184310     0.176960
                              3.029146     0.263990
                              1.474099     0.292447
                              0.714391     0.249597
                              0.348520     0.171637
                              0.174166     0.080649
                              0.087891     0.041212
    8.1 Ag    1  3d2+       160.444504     0.000034
                             52.598830     0.006553
                             27.491581     0.036185
                             12.745988     0.083026
                              6.184310     0.176960
                              3.029146     0.263990
                              1.474099     0.292447
                              0.714391     0.249597
                              0.348520     0.171637
                              0.174166     0.080649
                              0.087891     0.041212
    9.1 Ag    1  3d0        160.444504    -0.000031
                             52.598830    -0.007869
                             27.491581    -0.041992
                             12.745988    -0.101388
                              6.184310    -0.216996
                              3.029146    -0.283962
                              1.474099    -0.127179
                              0.714391     0.177125
                              0.348520     0.375596
                              0.174166     0.284631
                              0.087891     0.200277
   10.1 Ag    1  3d2+       160.444504    -0.000031
                             52.598830    -0.007869
                             27.491581    -0.041992
                             12.745988    -0.101388
                              6.184310    -0.216996
                              3.029146    -0.283962
                              1.474099    -0.127179
                              0.714391     0.177125
                              0.348520     0.375596
                              0.174166     0.284631
                              0.087891     0.200277
   11.1 Ag    1  3d0        160.444504     0.000000
                             52.598830     0.000000
                             27.491581     0.000000
                             12.745988     0.000000
                              6.184310     0.000000
                              3.029146     0.000000
                              1.474099     0.000000
                              0.714391     0.000000
                              0.348520     0.000000
                              0.174166     0.000000
                              0.087891     1.000000
   12.1 Ag    1  3d2+       160.444504     0.000000
                             52.598830     0.000000
                             27.491581     0.000000
                             12.745988     0.000000
                              6.184310     0.000000
                              3.029146     0.000000
                              1.474099     0.000000
                              0.714391     0.000000
                              0.348520     0.000000
                              0.174166     0.000000
                              0.087891     1.000000
   13.1 Ag    1  3d0          1.291245     1.000000
   14.1 Ag    1  3d2+         1.291245     1.000000
   15.1 Ag    1  3d0          3.118104     1.000000
   16.1 Ag    1  3d2+         3.118104     1.000000
    1.2 B3u   1  2px        139.038145     0.000075    0.000025   -0.000238    0.000000
    2.2 B3u                  71.928971    -0.000627   -0.000084    0.001489    0.000000
    3.2 B3u                  37.806311     0.005719   -0.000485   -0.008723    0.000000
    4.2 B3u                  21.054252    -0.009310    0.000095    0.024538    0.000000
                             12.973193    -0.083857    0.022402    0.060856    0.000000
                              6.791461     0.012394   -0.011534   -0.020380    0.000000
                              3.794018     0.281987   -0.056866   -0.430195    0.000000
                              1.960649     0.434179   -0.126070   -0.407692    0.000000
                              1.006283     0.313409   -0.060889    0.085326    0.000000
                              0.509539     0.089778   -0.035086    1.073326    0.000000
                              0.233091     0.007405    0.351847    0.015067    0.000000
                              0.083890     0.000980    0.510449   -0.719631    0.000000
                              0.039802     0.000274    0.289707   -0.024603    1.000000
    5.2 B3u   1  2px          1.270490     1.000000
    6.2 B3u   1  2px          5.677091     1.000000
    7.2 B3u   1  4f1+         2.012568     1.000000
    8.2 B3u   1  4f3+         2.012568     1.000000
    9.2 B3u   1  4f1+         5.891548     1.000000
   10.2 B3u   1  4f3+         5.891548     1.000000
    1.3 B2u   1  2py        139.038145     0.000075    0.000025   -0.000238    0.000000
    2.3 B2u                  71.928971    -0.000627   -0.000084    0.001489    0.000000
    3.3 B2u                  37.806311     0.005719   -0.000485   -0.008723    0.000000
    4.3 B2u                  21.054252    -0.009310    0.000095    0.024538    0.000000
                             12.973193    -0.083857    0.022402    0.060856    0.000000
                              6.791461     0.012394   -0.011534   -0.020380    0.000000
                              3.794018     0.281987   -0.056866   -0.430195    0.000000
                              1.960649     0.434179   -0.126070   -0.407692    0.000000
                              1.006283     0.313409   -0.060889    0.085326    0.000000
                              0.509539     0.089778   -0.035086    1.073326    0.000000
                              0.233091     0.007405    0.351847    0.015067    0.000000
                              0.083890     0.000980    0.510449   -0.719631    0.000000
                              0.039802     0.000274    0.289707   -0.024603    1.000000
    5.3 B2u   1  2py          1.270490     1.000000
    6.3 B2u   1  2py          5.677091     1.000000
    7.3 B2u   1  4f1-         2.012568     1.000000
    8.3 B2u   1  4f3-         2.012568     1.000000
    9.3 B2u   1  4f1-         5.891548     1.000000
   10.3 B2u   1  4f3-         5.891548     1.000000
    1.4 B1g   1  3d2-       160.444504     0.000034   -0.000031    0.000000
    2.4 B1g                  52.598830     0.006553   -0.007869    0.000000
    3.4 B1g                  27.491581     0.036185   -0.041992    0.000000
                             12.745988     0.083026   -0.101388    0.000000
                              6.184310     0.176960   -0.216996    0.000000
                              3.029146     0.263990   -0.283962    0.000000
                              1.474099     0.292447   -0.127179    0.000000
                              0.714391     0.249597    0.177125    0.000000
                              0.348520     0.171637    0.375596    0.000000
                              0.174166     0.080649    0.284631    0.000000
                              0.087891     0.041212    0.200277    1.000000
    4.4 B1g   1  3d2-         1.291245     1.000000
    5.4 B1g   1  3d2-         3.118104     1.000000
    1.5 B1u   1  2pz        139.038145     0.000075    0.000025   -0.000238    0.000000
    2.5 B1u                  71.928971    -0.000627   -0.000084    0.001489    0.000000
    3.5 B1u                  37.806311     0.005719   -0.000485   -0.008723    0.000000
    4.5 B1u                  21.054252    -0.009310    0.000095    0.024538    0.000000
                             12.973193    -0.083857    0.022402    0.060856    0.000000
                              6.791461     0.012394   -0.011534   -0.020380    0.000000
                              3.794018     0.281987   -0.056866   -0.430195    0.000000
                              1.960649     0.434179   -0.126070   -0.407692    0.000000
                              1.006283     0.313409   -0.060889    0.085326    0.000000
                              0.509539     0.089778   -0.035086    1.073326    0.000000
                              0.233091     0.007405    0.351847    0.015067    0.000000
                              0.083890     0.000980    0.510449   -0.719631    0.000000
                              0.039802     0.000274    0.289707   -0.024603    1.000000
    5.5 B1u   1  2pz          1.270490     1.000000
    6.5 B1u   1  2pz          5.677091     1.000000
    7.5 B1u   1  4f0          2.012568     1.000000
    8.5 B1u   1  4f2+         2.012568     1.000000
    9.5 B1u   1  4f0          5.891548     1.000000
   10.5 B1u   1  4f2+         5.891548     1.000000
    1.6 B2g   1  3d1+       160.444504     0.000034   -0.000031    0.000000
    2.6 B2g                  52.598830     0.006553   -0.007869    0.000000
    3.6 B2g                  27.491581     0.036185   -0.041992    0.000000
                             12.745988     0.083026   -0.101388    0.000000
                              6.184310     0.176960   -0.216996    0.000000
                              3.029146     0.263990   -0.283962    0.000000
                              1.474099     0.292447   -0.127179    0.000000
                              0.714391     0.249597    0.177125    0.000000
                              0.348520     0.171637    0.375596    0.000000
                              0.174166     0.080649    0.284631    0.000000
                              0.087891     0.041212    0.200277    1.000000
    4.6 B2g   1  3d1+         1.291245     1.000000
    5.6 B2g   1  3d1+         3.118104     1.000000
    1.7 B3g   1  3d1-       160.444504     0.000034   -0.000031    0.000000
    2.7 B3g                  52.598830     0.006553   -0.007869    0.000000
    3.7 B3g                  27.491581     0.036185   -0.041992    0.000000
                             12.745988     0.083026   -0.101388    0.000000
                              6.184310     0.176960   -0.216996    0.000000
                              3.029146     0.263990   -0.283962    0.000000
                              1.474099     0.292447   -0.127179    0.000000
                              0.714391     0.249597    0.177125    0.000000
                              0.348520     0.171637    0.375596    0.000000
                              0.174166     0.080649    0.284631    0.000000
                              0.087891     0.041212    0.200277    1.000000
    4.7 B3g   1  3d1-         1.291245     1.000000
    5.7 B3g   1  3d1-         3.118104     1.000000
    1.8 Au    1  4f2-         2.012568     1.000000
    2.8 Au    1  4f2-         5.891548     1.000000

 NUCLEAR CHARGE:                   17
 NUMBER OF PRIMITIVE AOS:         158
 NUMBER OF SYMMETRY AOS:          139
 NUMBER OF CONTRACTIONS:           63   (  16Ag  +  10B3u +  10B2u +   5B1g +  10B1u +   5B2g +   5B3g +   2Au  )
 NUMBER OF CORE ORBITALS:           4   (   1Ag  +   1B3u +   1B2u +   0B1g +   1B1u +   0B2g +   0B3g +   0Au  )
 NUMBER OF VALENCE ORBITALS:        6   (   3Ag  +   0B3u +   0B2u +   1B1g +   0B1u +   1B2g +   1B3g +   0Au  )


 NUCLEAR REPULSION ENERGY    0.00000000

 EXTRA SYMMETRY OF AOS IN SYMMETRY 1:   1 1 1 1 1 1 2 3 2 3   2 3 2 3 2 3
 EXTRA SYMMETRY OF AOS IN SYMMETRY 2:   1 1 1 1 1 1 2 3 2 3
 EXTRA SYMMETRY OF AOS IN SYMMETRY 3:   1 1 1 1 1 1 2 3 2 3
 EXTRA SYMMETRY OF AOS IN SYMMETRY 5:   1 1 1 1 1 1 2 3 2 3

 Eigenvalues of metric

         1 0.103E-01 0.377E-01 0.400E-01 0.400E-01 0.101E+00 0.101E+00 0.334E+00 0.475E+00
         2 0.782E-02 0.110E+00 0.245E+00 0.462E+00 0.462E+00 0.110E+01 0.154E+01 0.154E+01
         3 0.782E-02 0.110E+00 0.245E+00 0.462E+00 0.462E+00 0.110E+01 0.154E+01 0.154E+01
         4 0.400E-01 0.101E+00 0.475E+00 0.172E+01 0.267E+01
         5 0.782E-02 0.110E+00 0.245E+00 0.462E+00 0.462E+00 0.110E+01 0.154E+01 0.154E+01
         6 0.400E-01 0.101E+00 0.475E+00 0.172E+01 0.267E+01
         7 0.400E-01 0.101E+00 0.475E+00 0.172E+01 0.267E+01
         8 0.462E+00 0.154E+01


 Contracted 2-electron integrals neglected if value below      1.0D-12
 AO integral compression algorithm  1   Integral accuracy      1.0D-12

     3.408 MB (compressed) written to integral file ( 75.0%)


 NUMBER OF SORTED TWO-ELECTRON INTEGRALS:     280021.     BUFFER LENGTH:  32768
 NUMBER OF SEGMENTS:   1  SEGMENT LENGTH:     280021      RECORD LENGTH: 524288

 Memory used in sort:       0.84 MW

 SORT1 READ      606445. AND WROTE      231448. INTEGRALS IN      1 RECORDS. CPU TIME:     0.02 SEC, REAL TIME:     0.02 SEC
 SORT2 READ      231448. AND WROTE      280021. INTEGRALS IN     13 RECORDS. CPU TIME:     0.05 SEC, REAL TIME:     0.09 SEC

 FILE SIZES:   FILE 1:    22.6 MBYTE,  FILE 4:     4.2 MBYTE,   TOTAL:     26.8 MBYTE

 OPERATOR DM      FOR CENTER  0  COORDINATES:    0.000000    0.000000    0.000000
 OPERATOR EKIN    FOR CENTER  0  COORDINATES:    0.000000    0.000000    0.000000
 OPERATOR POT     FOR CENTER  0  COORDINATES:    0.000000    0.000000    0.000000


 **********************************************************************************************************************************
 DATASETS  * FILE   NREC   LENGTH (MB)   RECORD NAMES
              1      20       20.77       500      610      700      900      950      970     1000      129      960     1100   
                                          VAR    BASINP    GEOM    SYMINP    ZMAT    AOBASIS   BASIS     P2S    ABASIS      S 
                                         1400     1410     1420     1200     1210     1080     1600     1650     1300     1700   
                                         EKIN       V       ECP      H0       H01     AOSYM     SMH    MOLCAS    ERIS     OPER   

 PROGRAMS   *        TOTAL       INT
 CPU TIMES  *         1.37      1.21
 REAL TIME  *         2.82 SEC
 DISK USED  *        27.11 MB      
 **********************************************************************************************************************************


 PROGRAM * RHF-SCF (OPEN SHELL)       Authors: W. Meyer, H.-J. Werner


 NUMBER OF ELECTRONS:      10+    7-    SPACE SYMMETRY=6    SPIN SYMMETRY: Quartet 
 CONVERGENCE THRESHOLDS:    1.00E-05 (Density)    1.00E-07 (Energy)
 MAX. NUMBER OF ITERATIONS:       60
 INTERPOLATION TYPE:            DIIS
 INTERPOLATION STEPS:              2 (START)      1 (STEP)
 LEVEL SHIFTS:                 -0.60 (CLOSED) -0.30 (OPEN) 

 Number of closed-shell orbitals:    7 (   3   1   1   0   1   1   0   0 )
 Number of open-shell orbitals:      3 (   1   0   0   1   0   0   1   0 )


 
 Extra symmetries of mos in symmetry 1:   1   1   3   2

   Atom=CO basis=ECP10MDF_GUESS    lmin=0  lmax=2

 Orbital guess generated from atomic densities. Full valence occupancy:    4   1   1   1   1   1   1   0


 Molecular orbital dump at record        2100.2

 ITERATION    DDIFF          GRAD             ENERGY        2-EL.EN.            DIPOLE MOMENTS         DIIS   ORB.
    1      0.000D+00      0.000D+00      -144.23714449    216.923482    0.00000    0.00000    0.00000    0    start
    2      0.000D+00      0.395D-01      -144.29759033    225.545406    0.00000    0.00000    0.00000    1    diag,B
    3      0.168D-01      0.280D-01      -144.31518357    223.310709    0.00000    0.00000    0.00000    2    diag,B
    4      0.754D-02      0.504D-02      -144.31773583    223.163650    0.00000    0.00000    0.00000    3    diag,B
    5      0.296D-02      0.161D-02      -144.31936554    223.152417    0.00000    0.00000    0.00000    4    diag,B
    6      0.198D-02      0.132D-02      -144.32152354    223.117998    0.00000    0.00000    0.00000    5    diag,B
    7      0.273D-02      0.119D-02      -144.32654128    223.070512    0.00000    0.00000    0.00000    6    fixocc
    8      0.850D-02      0.895D-03      -144.32819506    223.081535    0.00000    0.00000    0.00000    7    diag,B
    9      0.413D-02      0.644D-03      -144.33019558    223.050216    0.00000    0.00000    0.00000    8    diag,B
   10      0.105D-01      0.813D-03      -144.33021959    223.072275    0.00000    0.00000    0.00000    9    orth
   11      0.893D-03      0.425D-03      -144.33032630    223.110383    0.00000    0.00000    0.00000    9    diag,B
   12      0.294D-02      0.103D-03      -144.33032900    223.114829    0.00000    0.00000    0.00000    9    diag,B
   13      0.411D-03      0.582D-04      -144.33032946    223.115396    0.00000    0.00000    0.00000    9    diag,B
   14      0.128D-03      0.252D-04      -144.33032958    223.115439    0.00000    0.00000    0.00000    9    diag,B
   15      0.443D-04      0.508D-05      -144.33032960    223.115595    0.00000    0.00000    0.00000    9    diag,B
   16      0.267D-04      0.476D-05      -144.33032960    223.115328    0.00000    0.00000    0.00000    9    diag,B
   17      0.106D-04      0.156D-05      -144.33032960    223.115318    0.00000    0.00000    0.00000    9    diag,B
   18      0.456D-05      0.680D-06      -144.33032960    223.115284    0.00000    0.00000    0.00000    0    orth

 Final alpha occupancy:   4   1   1   1   1   1   1   0
 Final beta  occupancy:   3   1   1   0   1   1   0   0

 !RHF STATE 1.6 Energy               -144.330329602679
 Nuclear energy                         0.00000000
 One-electron energy                 -255.88797151
 Two-electron energy                  111.55764191
 Virial quotient                       -1.63317765
 !RHF STATE 1.6 Dipole moment           0.00000000     0.00000000     0.00000000
 Dipole moment /Debye                   0.00000000     0.00000000     0.00000000
 

 !RHF expec          <1.6|EKIN|1.6>    88.373931334459
 
 !RHF expec           <1.6|POT|1.6>   -21.147231030644

 ELECTRON ORBITALS
 =================


   Orb  Occ    Energy  Couls-En    Coefficients

                                   1 1s      1 1s      1 1s      1 1s      1 1s      1 1s      1 3d0     1 3d2+    1 3d0     1 3d2+ 
                                   1 3d0     1 3d2+    1 3d0     1 3d2+    1 3d0     1 3d2+ 

   1.1   2    -4.6580  -23.9249  0.999672  0.000021  0.000047  0.000026  0.000443 -0.000167 -0.000000  0.000000  0.000000  0.000000
                                 0.000000 -0.000000 -0.000000  0.000000  0.000000 -0.000000

   2.1   2    -0.2716   -6.4673  0.000332  1.000916  0.000152 -0.001056 -0.000314  0.000142  0.000033 -0.000019 -0.000001  0.000000
                                 0.000001 -0.000004  0.000000 -0.000000 -0.000000  0.000000

   3.1   2    -0.6226  -14.8025  0.000000  0.000001  0.000001 -0.000000 -0.000000  0.000000  0.496891  0.860661 -0.020345 -0.035239
                                -0.014445 -0.025021  0.007567  0.013106 -0.000609 -0.001055

   4.1   +    -0.7206  -15.0846  0.000000 -0.000038 -0.000002 -0.000001  0.000000  0.000000  0.849380 -0.490379 -0.058744  0.033915
                                -0.026510  0.015306  0.022380 -0.012921  0.001211 -0.000699

                                   1 2px     1 2px     1 2px     1 2px     1 2px     1 2px     1 4f1+    1 4f3+    1 4f1+    1 4f3+ 


   1.2   2    -3.0435  -20.5687  0.999717  0.013798  0.013548 -0.002680  0.000215  0.000508  0.004776  0.002056  0.001533  0.000660

                                   1 2py     1 2py     1 2py     1 2py     1 2py     1 2py     1 4f1-    1 4f3-    1 4f1-    1 4f3- 


   1.3   2    -3.0435  -20.5687  0.999717  0.013798  0.013548 -0.002680  0.000215  0.000508 -0.003184 -0.004111 -0.001022 -0.001319

                                   1 3d2-    1 3d2-    1 3d2-    1 3d2-    1 3d2- 

   1.4   +    -0.7206  -15.0846  0.980774 -0.067832 -0.030612  0.025842  0.001398

                                   1 2pz     1 2pz     1 2pz     1 2pz     1 2pz     1 2pz     1 4f0     1 4f2+    1 4f0     1 4f2+ 


   1.5   2    -3.0435  -20.5687  0.999717  0.013798  0.013548 -0.002680  0.000215  0.000508 -0.001300  0.005035 -0.000417  0.001616

                                   1 3d1+    1 3d1+    1 3d1+    1 3d1+    1 3d1+ 

   1.6   2    -0.6226  -14.8025  0.993800 -0.040690 -0.028893  0.015134 -0.001219

                                   1 3d1-    1 3d1-    1 3d1-    1 3d1-    1 3d1- 

   1.7   +    -0.7206  -15.0846  0.980774 -0.067833 -0.030612  0.025843  0.001398

 HOMO      1.6    -0.622583 =     -16.9414eV
 LUMO      2.3     0.043111 =       1.1731eV
 LUMO-HOMO         0.665694 =      18.1145eV


 **********************************************************************************************************************************
 DATASETS  * FILE   NREC   LENGTH (MB)   RECORD NAMES
              1      20       20.77       500      610      700      900      950      970     1000      129      960     1100   
                                          VAR    BASINP    GEOM    SYMINP    ZMAT    AOBASIS   BASIS     P2S    ABASIS      S 
                                         1400     1410     1420     1200     1210     1080     1600     1650     1300     1700   
                                         EKIN       V       ECP      H0       H01     AOSYM     SMH    MOLCAS    ERIS     OPER   

              2       4        2.77       700     1000      520     2100   
                                         GEOM     BASIS   MCVARS     RHF  

 PROGRAMS   *        TOTAL        HF       INT
 CPU TIMES  *         1.50      0.13      1.21
 REAL TIME  *         3.33 SEC
 DISK USED  *        27.11 MB      
 **********************************************************************************************************************************
 SETTING SCF(I)         =      -144.33032960  AU                              
 SETTING _CC_NORM_MAX   =         2.00000000                                  


 PROGRAM * CCSD (Restricted open-shell coupled cluster)     Authors: C. Hampel, H.-J. Werner, 1991, M. Deegan, P.J. Knowles, 1992


 Convergence thresholds:  THRVAR = 1.00D-08  THRDEN = 1.00D-06

 CCSD(T)     terms to be evaluated (factor= 1.000)


 Number of closed-shell orbitals:   7 (   3   1   1   0   1   1   0   0 )
 Number of active  orbitals:        3 (   1   0   0   1   0   0   1   0 )
 Number of external orbitals:      53 (  12   9   9   4   9   4   4   2 )

 Memory could be reduced to 0.85 Mwords without degradation in triples

 Number of N-1 electron functions:              17
 Number of N-2 electron functions:             136
 Number of singly external CSFs:               163
 Number of doubly external CSFs:             41658
 Total number of CSFs:                       41821

 Molecular orbitals read from record     2100.2  Type=RHF/CANONICAL (state 1.6)

 Integral transformation finished. Total CPU:   0.02 sec, npass=  1  Memory used:   0.19 MW

 Starting RMP2 calculation

 Wavefunction is spin-projected

 ITER.      SQ.NORM     CORR.ENERGY   TOTAL ENERGY   ENERGY CHANGE        DEN1      VAR(S)    VAR(P)  DIIS     TIME
   1      1.09169180    -0.60983368  -144.94016329    -0.60983368    -0.00100002  0.12D-05  0.72D-03  1  1     0.03
   2      1.09354915    -0.61089669  -144.94122630    -0.00106301    -0.00001584  0.15D-06  0.16D-04  2  2     0.04
   3      1.09385468    -0.61101090  -144.94134050    -0.00011421    -0.00000008  0.15D-07  0.67D-07  3  3     0.04
   4      1.09386643    -0.61101370  -144.94134330    -0.00000280    -0.00000000  0.62D-09  0.90D-09  4  4     0.04
   5      1.09386650    -0.61101362  -144.94134322     0.00000008    -0.00000000  0.12D-10  0.13D-10  5  5     0.05

 Norm of t1 vector:      0.03312228      S-energy:    -0.00583557      T1 diagnostic:  0.00011721
 Norm of t2 vector:      0.30458073      P-energy:    -0.60517804
                                         Alpha-Beta:  -0.41618053
                                         Alpha-Alpha: -0.13081185
                                         Beta-Beta:   -0.05818567

 Spin contamination <S**2-Sz**2-Sz>     0.00000000
  Reference energy                   -144.330329602679
  RHF-RMP2 correlation energy          -0.611013616442
 !RHF-RMP2 energy                    -144.941343219121
 (NB above energy spin projected)

 Starting RCCSD calculation

 ITER.      SQ.NORM     CORR.ENERGY   TOTAL ENERGY   ENERGY CHANGE        DEN1      VAR(S)    VAR(P)  DIIS     TIME
   1      1.09443445    -0.58062700  -144.91095660    -0.58062700    -0.01688023  0.30D-02  0.41D-02  1  1     0.16
   2      1.10906561    -0.59446627  -144.92479587    -0.01383927    -0.00183391  0.41D-03  0.99D-03  2  2     0.26
   3      1.11972714    -0.59743882  -144.92776842    -0.00297255    -0.00030864  0.15D-03  0.15D-03  3  3     0.34
   4      1.12563921    -0.59900330  -144.92933290    -0.00156448    -0.00004028  0.19D-04  0.18D-04  4  4     0.43
   5      1.12833907    -0.59949485  -144.92982445    -0.00049155    -0.00000260  0.14D-05  0.96D-06  5  5     0.51
   6      1.12878209    -0.59954792  -144.92987752    -0.00005307    -0.00000023  0.51D-07  0.12D-06  6  6     0.60
   7      1.12882789    -0.59955422  -144.92988383    -0.00000631    -0.00000003  0.57D-08  0.17D-07  6  1     0.68
   8      1.12883486    -0.59955427  -144.92988388    -0.00000005    -0.00000000  0.72D-09  0.17D-08  6  2     0.77

 Norm of t1 vector:      0.10671409      S-energy:    -0.00645954      T1 diagnostic:  0.01586878
                                                                       D1 diagnostic:  0.05064960
 Norm of t2 vector:      0.34270537      P-energy:    -0.59309473
                                         Alpha-Beta:  -0.42577812
                                         Alpha-Alpha: -0.11380441
                                         Beta-Beta:   -0.05351220

 Singles amplitudes (print threshold =  0.500E-01):

         I         SYM. A    A   T(IA) [Alpha-Alpha]

         2         1         2     -0.06258829

 Doubles amplitudes (print threshold =  0.500E-01):

         I         J         SYM. A    SYM. B    A         B      T(IJ, AB) [Alpha-Beta]

         2         2         2         2         1         1     -0.08179663
         2         2         2         2         1         2     -0.05692607
         2         2         2         2         2         1     -0.05692607
         2         2         3         3         1         1     -0.08179797
         2         2         3         3         1         2     -0.05692709
         2         2         3         3         2         1     -0.05692709
         2         2         5         5         1         1     -0.08179906
         2         2         5         5         1         2     -0.05692806
         2         2         5         5         2         1     -0.05692806

 Spin contamination <S**2-Sz**2-Sz>     0.00000000

 Memory could be reduced to 0.94 Mwords without degradation in triples
 

  Correlated core orbitals:             1.1       1.2       1.3       1.5
  Orbital energies:                    -4.8051   -3.2209   -3.2209   -3.2209
 
  RCCSD core-core energy               -0.122071752800
  RCCSD core-valence energy            -0.253380001935
  RCCSD valence correlation energy     -0.224102517896
 

 RESULTS
 =======

  Reference energy                   -144.330329602679
  RCCSD singles energy                 -0.006459541180
  RCCSD pair energy                    -0.593094731451
  RCCSD correlation energy             -0.599554272631
  Triples (T) contribution             -0.014803687243
  Total correlation energy             -0.614357959874
 
  RHF-RCCSD energy                   -144.929883875311
  RHF-RCCSD[T] energy                -144.945586631305
  RHF-RCCSD-T energy                 -144.944420155483
 !RHF-RCCSD(T) energy                -144.944687562553

 Program statistics:

 Available memory in ccsd:               511999000
 Min. memory needed in ccsd:                137682
 Max. memory used in ccsd:                  187050
 Max. memory used in cckext:                205722 ( 8 integral passes)
 Max. memory used in cckint:                188985 ( 1 integral passes)



 **********************************************************************************************************************************
 DATASETS  * FILE   NREC   LENGTH (MB)   RECORD NAMES
              1      20       20.77       500      610      700      900      950      970     1000      129      960     1100   
                                          VAR    BASINP    GEOM    SYMINP    ZMAT    AOBASIS   BASIS     P2S    ABASIS      S 
                                         1400     1410     1420     1200     1210     1080     1600     1650     1300     1700   
                                         EKIN       V       ECP      H0       H01     AOSYM     SMH    MOLCAS    ERIS     OPER   

              2       4        2.77       700     1000      520     2100   
                                         GEOM     BASIS   MCVARS     RHF  

 PROGRAMS   *        TOTAL  RCCSD(T)        HF       INT
 CPU TIMES  *         2.92      1.42      0.13      1.21
 REAL TIME  *         5.91 SEC
 DISK USED  *        38.60 MB      
 **********************************************************************************************************************************
 SETTING POSTHF(I)      =      -144.94468756  AU                              
                                                                                                                                                                                                                                                                

         SCF            POSTHF       EKIN           POT
    -144.3303296   -144.9446876   88.37393133   -21.14723103
                                                  

 RCCSD(T)/USERDEF energy=   -144.944687562553

        RCCSD(T)        HF-SCF  
   -144.94468756   -144.33032960
 **********************************************************************************************************************************
 Variable memory released
