
 Primary working directories    : /global/cscratch1/sd/aannabe
 Secondary working directories  : /global/cscratch1/sd/aannabe
 Wavefunction directory         : /global/homes/a/aannabe/wfu/
 Main file repository           : /global/cscratch1/sd/aannabe/

 SHA1      : 2873118e99aab1bc19f5b6fc1784693c06d15c95
 NAME      : 2015.1.8
 ARCHNAME  : linux/x86_64
 FC        : /opt/cray/pe/craype/2.5.5/bin/ftn
 BLASLIB   : -Wl,-_start-group /opt/intel/compilers_and_libraries_2016.3.210/linux/mkl/lib/intel64/libmkl_intel_ilp64.a /opt/intel/compilers_and_libraries_2016.3.210/linux/mkl/lib/intel64/libmkl_intel_thread.a /opt/intel/compilers_and_libraries_2016.3.210/linux/mkl/lib/intel64/libmkl_core.a -Wl,-_end-group
 id        : lbl

 Nodes     nprocs
 nid00679     1

 Using customized tuning parameters: mindgm=8; mindgv=16; mindgc=4; mindgr=1; noblas=0; minvec=7
 default implementation of scratch files=df  

 ***,Co
 memory,512,m
 gthresh,twoint=1.e-12
 
 gprint,basis,orbitals
 gexpec,ekin,pot
 
 angstrom
 geometry={
 1                                                                               ! Number of atoms
 Co 0.0 0.0 0.0
 }
 
 basis={
 Including file /global/homes/a/aannabe/docs/accurate/ccECP_D2h/pps/Co.pp
 Including file /global/homes/a/aannabe/docs/accurate/ccECP_D2h/basis/aug-cc-pVnZ/Co_5z.basis
 }
 
 {hf
 wf,17,6,3
 occ,4,1,1,1,1,1,1,0
 closed,3,1,1,0,1,1,0,0
                                                                                 !open,4.1,1.7,1.4
 sym,1,1,1,3,2
 }
 scf(i)=energy
 
 _CC_NORM_MAX=2.0
 {rccsd(t)
 maxit,100
 core
 }
 posthf(i)=energy
 
 table,scf,posthf,ekin,pot
 save,5.csv,new
 
 

 Variables initialized (889), CPU time= 0.01 sec
 Commands  initialized (702), CPU time= 0.00 sec, 572 directives.
 Default parameters read. Elapsed time= 0.12 sec

 Checking input...
 Passed
1


                                         ***  PROGRAM SYSTEM MOLPRO  ***
                                       Copyright, TTI GmbH Stuttgart, 2015
                                    Version 2015.1 linked Sep  7 2016 23:09:38


 **********************************************************************************************************************************
 LABEL *   Co                                                                            
  64 bit serial version                                                                  DATE: 28-Oct-18          TIME: 14:35:57  
 **********************************************************************************************************************************

 SHA1:             2873118e99aab1bc19f5b6fc1784693c06d15c95
 **********************************************************************************************************************************

 THRESHOLDS:

 ZERO    =  1.00D-12  ONEINT  =  1.00D-12  TWOINT  =  1.00D-12  PREFAC  =  1.00D-14  LOCALI  =  1.00D-09  EORDER  =  1.00D-04
 ENERGY  =  0.00D+00  ETEST   =  0.00D+00  EDENS   =  0.00D+00  THRDEDEF=  1.00D-06  GRADIENT=  1.00D-02  STEP    =  1.00D-03
 ORBITAL =  1.00D-05  CIVEC   =  1.00D-05  COEFF   =  1.00D-04  PRINTCI =  5.00D-02  PUNCHCI =  9.90D+01  OPTGRAD =  3.00D-04
 OPTENERG=  1.00D-06  OPTSTEP =  3.00D-04  THRGRAD =  1.00D-10  COMPRESS=  1.00D-11  VARMIN  =  1.00D-07  VARMAX  =  1.00D-03
 THRDOUB =  0.00D+00  THRDIV  =  1.00D-05  THRRED  =  1.00D-07  THRPSP  =  1.00D+00  THRDC   =  1.00D-10  THRCS   =  1.00D-10
 THRNRM  =  1.00D-08  THREQ   =  0.00D+00  THRDE   =  1.00D+00  THRREF  =  1.00D-05  SPARFAC =  1.00D+00  THRDLP  =  1.00D-07
 THRDIA  =  1.00D-10  THRDLS  =  1.00D-07  THRGPS  =  0.00D+00  THRKEX  =  0.00D+00  THRDIS  =  2.00D-01  THRVAR  =  1.00D-10
 THRLOC  =  1.00D-06  THRGAP  =  1.00D-06  THRLOCT = -1.00D+00  THRGAPT = -1.00D+00  THRORB  =  1.00D-06  THRMLTP =  0.00D+00
 THRCPQCI=  1.00D-10  KEXTA   =  0.00D+00  THRCOARS=  0.00D+00  SYMTOL  =  1.00D-06  GRADTOL =  1.00D-06  THROVL  =  1.00D-08
 THRORTH =  1.00D-08  GRID    =  1.00D-06  GRIDMAX =  1.00D-03  DTMAX   =  0.00D+00  THROCCDE=  1.00D-01  THROCCDE=  1.00D-01



 ZUNIT=ANG
 

Geometry recognized as XYZ


 Variable memory set to  512000000 words,  buffer space   230000 words

 SETTING BASIS          =    USERDEF


 Recomputing integrals since basis changed


 Using spherical harmonics



 PROGRAM * SEWARD (Integral evaluation for generally contracted gaussian basis sets)     Author: Roland Lindh, 1990

 Geometry written to block  1 of record 700

 Orientation using atomic masses  
 Molecule type: Atom
 Symmetry elements: X,Y,Z
 Rotational constants:       0.0000000      0.0000000      0.0000000 GHz  (calculated with average atomic masses)

 Point group  D2h 



 ATOMIC COORDINATES

 NR  ATOM    CHARGE       X              Y              Z

   1  CO     17.00    0.000000000    0.000000000    0.000000000


          CO  CORE POTENTIAL

          d POTENTIAL

 POWERS             1              3              2              2
 EXPONENTIALS   25.00124       22.83490       23.47468       10.33795    
 COEFFICIENTS   17.00000       425.0211      -195.4821      -2.815729    

          s - d POTENTIAL

 POWERS             2              2
 EXPONENTIALS   23.41427       10.76932    
 COEFFICIENTS   271.7771       54.26461    

          p - d POTENTIAL

 POWERS             2              2
 EXPONENTIALS   25.47446       10.68405    
 COEFFICIENTS   201.5343       38.99232    


 BASIS DATA

   Nr Sym  Nuc  Type         Exponents   Contraction coefficients

    1.1 Ag    1  1s          90.663831     0.000774   -0.000154   -0.000047   -0.000231    0.002809   -0.001436
                                           0.000000
    2.1 Ag                   46.961414    -0.011316    0.002525    0.003654    0.007536   -0.024459   -0.000995
                                           0.000000
    3.1 Ag                   24.110274     0.101209   -0.024443   -0.046132   -0.097298    0.211717    0.174024
                                           0.000000
    4.1 Ag                   14.430881    -0.081642    0.022200    0.036483    0.111611   -0.387452   -0.277059
                                           0.000000
    5.1 Ag                    8.757423    -0.354812    0.088416    0.217265    0.403621   -0.366909   -1.322028
                                           0.000000
    6.1 Ag                    4.484459    -0.090362    0.016820   -0.011883   -0.048324    0.139143    3.048188
                                           0.000000
    7.1 Ag                    2.519739     0.498174   -0.134582   -0.324688   -1.157600    2.834527    0.886984
                                           0.000000
                              1.236850     0.604123   -0.231295   -0.680581   -0.756839   -2.906398   -6.518868
                                           0.000000
                              0.601882     0.190775   -0.163986    0.256936    2.313683   -0.806896    6.585885
                                           0.000000
                              0.223338     0.006578    0.121337    1.224005    0.253074    4.336055   -2.928413
                                           0.000000
                              0.123422    -0.000905    0.402414    0.236837   -1.991466   -2.913607   -1.622615
                                           0.000000
                              0.059941     0.000171    0.506113   -0.604064    0.166942   -1.253307    4.048143
                                           0.000000
                              0.027978    -0.000025    0.145436   -0.574947    0.917221    1.509572   -2.045771
                                           1.000000
    8.1 Ag    1  1s           0.013000     1.000000
    9.1 Ag    1  3d0        160.444504     0.000034
                             52.598830     0.006553
                             27.491581     0.036185
                             12.745988     0.083026
                              6.184310     0.176960
                              3.029146     0.263990
                              1.474099     0.292447
                              0.714391     0.249597
                              0.348520     0.171637
                              0.174166     0.080649
                              0.087891     0.041212
   10.1 Ag    1  3d2+       160.444504     0.000034
                             52.598830     0.006553
                             27.491581     0.036185
                             12.745988     0.083026
                              6.184310     0.176960
                              3.029146     0.263990
                              1.474099     0.292447
                              0.714391     0.249597
                              0.348520     0.171637
                              0.174166     0.080649
                              0.087891     0.041212
   11.1 Ag    1  3d0        160.444504    -0.000031
                             52.598830    -0.007869
                             27.491581    -0.041992
                             12.745988    -0.101388
                              6.184310    -0.216996
                              3.029146    -0.283962
                              1.474099    -0.127179
                              0.714391     0.177125
                              0.348520     0.375596
                              0.174166     0.284631
                              0.087891     0.200277
   12.1 Ag    1  3d2+       160.444504    -0.000031
                             52.598830    -0.007869
                             27.491581    -0.041992
                             12.745988    -0.101388
                              6.184310    -0.216996
                              3.029146    -0.283962
                              1.474099    -0.127179
                              0.714391     0.177125
                              0.348520     0.375596
                              0.174166     0.284631
                              0.087891     0.200277
   13.1 Ag    1  3d0        160.444504     0.000048
                             52.598830     0.010531
                             27.491581     0.055559
                             12.745988     0.140758
                              6.184310     0.305785
                              3.029146     0.242812
                              1.474099    -0.285044
                              0.714391    -0.594819
                              0.348520    -0.017937
                              0.174166     0.348150
                              0.087891     0.455170
   14.1 Ag    1  3d2+       160.444504     0.000048
                             52.598830     0.010531
                             27.491581     0.055559
                             12.745988     0.140758
                              6.184310     0.305785
                              3.029146     0.242812
                              1.474099    -0.285044
                              0.714391    -0.594819
                              0.348520    -0.017937
                              0.174166     0.348150
                              0.087891     0.455170
   15.1 Ag    1  3d0        160.444504    -0.000070
                             52.598830    -0.015269
                             27.491581    -0.078770
                             12.745988    -0.218556
                              6.184310    -0.479271
                              3.029146     0.173623
                              1.474099     0.954173
                              0.714391    -0.348490
                              0.348520    -0.737371
                              0.174166     0.071941
                              0.087891     0.644882
   16.1 Ag    1  3d2+       160.444504    -0.000070
                             52.598830    -0.015269
                             27.491581    -0.078770
                             12.745988    -0.218556
                              6.184310    -0.479271
                              3.029146     0.173623
                              1.474099     0.954173
                              0.714391    -0.348490
                              0.348520    -0.737371
                              0.174166     0.071941
                              0.087891     0.644882
   17.1 Ag    1  3d0        160.444504     0.000205
                             52.598830    -0.021933
                             27.491581    -0.087508
                             12.745988    -0.341612
                              6.184310    -0.497629
                              3.029146     1.280725
                              1.474099    -0.126257
                              0.714391    -1.360655
                              0.348520     0.964288
                              0.174166     0.661611
                              0.087891    -0.944350
   18.1 Ag    1  3d2+       160.444504     0.000205
                             52.598830    -0.021933
                             27.491581    -0.087508
                             12.745988    -0.341612
                              6.184310    -0.497629
                              3.029146     1.280725
                              1.474099    -0.126257
                              0.714391    -1.360655
                              0.348520     0.964288
                              0.174166     0.661611
                              0.087891    -0.944350
   19.1 Ag    1  3d0        160.444504     0.000000
                             52.598830     0.000000
                             27.491581     0.000000
                             12.745988     0.000000
                              6.184310     0.000000
                              3.029146     0.000000
                              1.474099     0.000000
                              0.714391     0.000000
                              0.348520     0.000000
                              0.174166     0.000000
                              0.087891     1.000000
   20.1 Ag    1  3d2+       160.444504     0.000000
                             52.598830     0.000000
                             27.491581     0.000000
                             12.745988     0.000000
                              6.184310     0.000000
                              3.029146     0.000000
                              1.474099     0.000000
                              0.714391     0.000000
                              0.348520     0.000000
                              0.174166     0.000000
                              0.087891     1.000000
   21.1 Ag    1  3d0          0.043000     1.000000
   22.1 Ag    1  3d2+         0.043000     1.000000
   23.1 Ag    1  5g0          0.277447     1.000000
   24.1 Ag    1  5g4+         0.277447     1.000000
   25.1 Ag    1  5g2+         0.277447     1.000000
   26.1 Ag    1  5g0          0.808427     1.000000
   27.1 Ag    1  5g4+         0.808427     1.000000
   28.1 Ag    1  5g2+         0.808427     1.000000
   29.1 Ag    1  5g0          2.355598     1.000000
   30.1 Ag    1  5g4+         2.355598     1.000000
   31.1 Ag    1  5g2+         2.355598     1.000000
   32.1 Ag    1  5g0          6.863750     1.000000
   33.1 Ag    1  5g4+         6.863750     1.000000
   34.1 Ag    1  5g2+         6.863750     1.000000
   35.1 Ag    1  7i6+         1.496090     1.000000
   36.1 Ag    1  7i4+         1.496090     1.000000
   37.1 Ag    1  7i2+         1.496090     1.000000
   38.1 Ag    1  7i0          1.496090     1.000000
   39.1 Ag    1  7i6+         3.729940     1.000000
   40.1 Ag    1  7i4+         3.729940     1.000000
   41.1 Ag    1  7i2+         3.729940     1.000000
   42.1 Ag    1  7i0          3.729940     1.000000
    1.2 B3u   1  2px        139.038145     0.000075    0.000025   -0.000238   -0.000055    0.000052   -0.002587
                                           0.000000
    2.2 B3u                  71.928971    -0.000627   -0.000084    0.001489   -0.000017    0.000144    0.013458
                                           0.000000
    3.2 B3u                  37.806311     0.005719   -0.000485   -0.008723    0.004320   -0.005065   -0.046464
                                           0.000000
    4.2 B3u                  21.054252    -0.009310    0.000095    0.024538   -0.021339    0.051662    0.037157
                                           0.000000
    5.2 B3u                  12.973193    -0.083857    0.022402    0.060856   -0.127134    0.209306   -0.581986
                                           0.000000
    6.2 B3u                   6.791461     0.012394   -0.011534   -0.020380    0.157208   -0.636052    2.709589
                                           0.000000
    7.2 B3u                   3.794018     0.281987   -0.056866   -0.430195    0.794927   -1.334761   -1.682552
                                           0.000000
                              1.960649     0.434179   -0.126070   -0.407692    0.233574    2.337409   -2.800743
                                           0.000000
                              1.006283     0.313409   -0.060889    0.085326   -1.666033    0.190624    5.802231
                                           0.000000
                              0.509539     0.089778   -0.035086    1.073326    0.282716   -2.657841   -4.899265
                                           0.000000
                              0.233091     0.007405    0.351847    0.015067    1.335625    2.264444    2.053293
                                           0.000000
                              0.083890     0.000980    0.510449   -0.719631   -0.885469   -0.612584    0.033357
                                           0.000000
                              0.039802     0.000274    0.289707   -0.024603   -0.130340   -0.276620   -0.556476
                                           1.000000
    8.2 B3u   1  2px          0.019000     1.000000
    9.2 B3u   1  4f1+         0.137400     1.000000
   10.2 B3u   1  4f3+         0.137400     1.000000
   11.2 B3u   1  4f1+         0.394252     1.000000
   12.2 B3u   1  4f3+         0.394252     1.000000
   13.2 B3u   1  4f1+         1.131258     1.000000
   14.2 B3u   1  4f3+         1.131258     1.000000
   15.2 B3u   1  4f1+         3.246009     1.000000
   16.2 B3u   1  4f3+         3.246009     1.000000
   17.2 B3u   1  4f1+         9.314030     1.000000
   18.2 B3u   1  4f3+         9.314030     1.000000
   19.2 B3u   1  6h1+         0.499466     1.000000
   20.2 B3u   1  6h3+         0.499466     1.000000
   21.2 B3u   1  6h5+         0.499466     1.000000
   22.2 B3u   1  6h1+         1.591062     1.000000
   23.2 B3u   1  6h3+         1.591062     1.000000
   24.2 B3u   1  6h5+         1.591062     1.000000
   25.2 B3u   1  6h1+         5.068373     1.000000
   26.2 B3u   1  6h3+         5.068373     1.000000
   27.2 B3u   1  6h5+         5.068373     1.000000
    1.3 B2u   1  2py        139.038145     0.000075    0.000025   -0.000238   -0.000055    0.000052   -0.002587
                                           0.000000
    2.3 B2u                  71.928971    -0.000627   -0.000084    0.001489   -0.000017    0.000144    0.013458
                                           0.000000
    3.3 B2u                  37.806311     0.005719   -0.000485   -0.008723    0.004320   -0.005065   -0.046464
                                           0.000000
    4.3 B2u                  21.054252    -0.009310    0.000095    0.024538   -0.021339    0.051662    0.037157
                                           0.000000
    5.3 B2u                  12.973193    -0.083857    0.022402    0.060856   -0.127134    0.209306   -0.581986
                                           0.000000
    6.3 B2u                   6.791461     0.012394   -0.011534   -0.020380    0.157208   -0.636052    2.709589
                                           0.000000
    7.3 B2u                   3.794018     0.281987   -0.056866   -0.430195    0.794927   -1.334761   -1.682552
                                           0.000000
                              1.960649     0.434179   -0.126070   -0.407692    0.233574    2.337409   -2.800743
                                           0.000000
                              1.006283     0.313409   -0.060889    0.085326   -1.666033    0.190624    5.802231
                                           0.000000
                              0.509539     0.089778   -0.035086    1.073326    0.282716   -2.657841   -4.899265
                                           0.000000
                              0.233091     0.007405    0.351847    0.015067    1.335625    2.264444    2.053293
                                           0.000000
                              0.083890     0.000980    0.510449   -0.719631   -0.885469   -0.612584    0.033357
                                           0.000000
                              0.039802     0.000274    0.289707   -0.024603   -0.130340   -0.276620   -0.556476
                                           1.000000
    8.3 B2u   1  2py          0.019000     1.000000
    9.3 B2u   1  4f1-         0.137400     1.000000
   10.3 B2u   1  4f3-         0.137400     1.000000
   11.3 B2u   1  4f1-         0.394252     1.000000
   12.3 B2u   1  4f3-         0.394252     1.000000
   13.3 B2u   1  4f1-         1.131258     1.000000
   14.3 B2u   1  4f3-         1.131258     1.000000
   15.3 B2u   1  4f1-         3.246009     1.000000
   16.3 B2u   1  4f3-         3.246009     1.000000
   17.3 B2u   1  4f1-         9.314030     1.000000
   18.3 B2u   1  4f3-         9.314030     1.000000
   19.3 B2u   1  6h1-         0.499466     1.000000
   20.3 B2u   1  6h3-         0.499466     1.000000
   21.3 B2u   1  6h5-         0.499466     1.000000
   22.3 B2u   1  6h1-         1.591062     1.000000
   23.3 B2u   1  6h3-         1.591062     1.000000
   24.3 B2u   1  6h5-         1.591062     1.000000
   25.3 B2u   1  6h1-         5.068373     1.000000
   26.3 B2u   1  6h3-         5.068373     1.000000
   27.3 B2u   1  6h5-         5.068373     1.000000
    1.4 B1g   1  3d2-       160.444504     0.000034   -0.000031    0.000048   -0.000070    0.000205    0.000000
    2.4 B1g                  52.598830     0.006553   -0.007869    0.010531   -0.015269   -0.021933    0.000000
    3.4 B1g                  27.491581     0.036185   -0.041992    0.055559   -0.078770   -0.087508    0.000000
    4.4 B1g                  12.745988     0.083026   -0.101388    0.140758   -0.218556   -0.341612    0.000000
    5.4 B1g                   6.184310     0.176960   -0.216996    0.305785   -0.479271   -0.497629    0.000000
    6.4 B1g                   3.029146     0.263990   -0.283962    0.242812    0.173623    1.280725    0.000000
                              1.474099     0.292447   -0.127179   -0.285044    0.954173   -0.126257    0.000000
                              0.714391     0.249597    0.177125   -0.594819   -0.348490   -1.360655    0.000000
                              0.348520     0.171637    0.375596   -0.017937   -0.737371    0.964288    0.000000
                              0.174166     0.080649    0.284631    0.348150    0.071941    0.661611    0.000000
                              0.087891     0.041212    0.200277    0.455170    0.644882   -0.944350    1.000000
    7.4 B1g   1  3d2-         0.043000     1.000000
    8.4 B1g   1  5g2-         0.277447     1.000000
    9.4 B1g   1  5g4-         0.277447     1.000000
   10.4 B1g   1  5g2-         0.808427     1.000000
   11.4 B1g   1  5g4-         0.808427     1.000000
   12.4 B1g   1  5g2-         2.355598     1.000000
   13.4 B1g   1  5g4-         2.355598     1.000000
   14.4 B1g   1  5g2-         6.863750     1.000000
   15.4 B1g   1  5g4-         6.863750     1.000000
   16.4 B1g   1  7i2-         1.496090     1.000000
   17.4 B1g   1  7i6-         1.496090     1.000000
   18.4 B1g   1  7i4-         1.496090     1.000000
   19.4 B1g   1  7i2-         3.729940     1.000000
   20.4 B1g   1  7i6-         3.729940     1.000000
   21.4 B1g   1  7i4-         3.729940     1.000000
    1.5 B1u   1  2pz        139.038145     0.000075    0.000025   -0.000238   -0.000055    0.000052   -0.002587
                                           0.000000
    2.5 B1u                  71.928971    -0.000627   -0.000084    0.001489   -0.000017    0.000144    0.013458
                                           0.000000
    3.5 B1u                  37.806311     0.005719   -0.000485   -0.008723    0.004320   -0.005065   -0.046464
                                           0.000000
    4.5 B1u                  21.054252    -0.009310    0.000095    0.024538   -0.021339    0.051662    0.037157
                                           0.000000
    5.5 B1u                  12.973193    -0.083857    0.022402    0.060856   -0.127134    0.209306   -0.581986
                                           0.000000
    6.5 B1u                   6.791461     0.012394   -0.011534   -0.020380    0.157208   -0.636052    2.709589
                                           0.000000
    7.5 B1u                   3.794018     0.281987   -0.056866   -0.430195    0.794927   -1.334761   -1.682552
                                           0.000000
                              1.960649     0.434179   -0.126070   -0.407692    0.233574    2.337409   -2.800743
                                           0.000000
                              1.006283     0.313409   -0.060889    0.085326   -1.666033    0.190624    5.802231
                                           0.000000
                              0.509539     0.089778   -0.035086    1.073326    0.282716   -2.657841   -4.899265
                                           0.000000
                              0.233091     0.007405    0.351847    0.015067    1.335625    2.264444    2.053293
                                           0.000000
                              0.083890     0.000980    0.510449   -0.719631   -0.885469   -0.612584    0.033357
                                           0.000000
                              0.039802     0.000274    0.289707   -0.024603   -0.130340   -0.276620   -0.556476
                                           1.000000
    8.5 B1u   1  2pz          0.019000     1.000000
    9.5 B1u   1  4f0          0.137400     1.000000
   10.5 B1u   1  4f2+         0.137400     1.000000
   11.5 B1u   1  4f0          0.394252     1.000000
   12.5 B1u   1  4f2+         0.394252     1.000000
   13.5 B1u   1  4f0          1.131258     1.000000
   14.5 B1u   1  4f2+         1.131258     1.000000
   15.5 B1u   1  4f0          3.246009     1.000000
   16.5 B1u   1  4f2+         3.246009     1.000000
   17.5 B1u   1  4f0          9.314030     1.000000
   18.5 B1u   1  4f2+         9.314030     1.000000
   19.5 B1u   1  6h2+         0.499466     1.000000
   20.5 B1u   1  6h4+         0.499466     1.000000
   21.5 B1u   1  6h0          0.499466     1.000000
   22.5 B1u   1  6h2+         1.591062     1.000000
   23.5 B1u   1  6h4+         1.591062     1.000000
   24.5 B1u   1  6h0          1.591062     1.000000
   25.5 B1u   1  6h2+         5.068373     1.000000
   26.5 B1u   1  6h4+         5.068373     1.000000
   27.5 B1u   1  6h0          5.068373     1.000000
    1.6 B2g   1  3d1+       160.444504     0.000034   -0.000031    0.000048   -0.000070    0.000205    0.000000
    2.6 B2g                  52.598830     0.006553   -0.007869    0.010531   -0.015269   -0.021933    0.000000
    3.6 B2g                  27.491581     0.036185   -0.041992    0.055559   -0.078770   -0.087508    0.000000
    4.6 B2g                  12.745988     0.083026   -0.101388    0.140758   -0.218556   -0.341612    0.000000
    5.6 B2g                   6.184310     0.176960   -0.216996    0.305785   -0.479271   -0.497629    0.000000
    6.6 B2g                   3.029146     0.263990   -0.283962    0.242812    0.173623    1.280725    0.000000
                              1.474099     0.292447   -0.127179   -0.285044    0.954173   -0.126257    0.000000
                              0.714391     0.249597    0.177125   -0.594819   -0.348490   -1.360655    0.000000
                              0.348520     0.171637    0.375596   -0.017937   -0.737371    0.964288    0.000000
                              0.174166     0.080649    0.284631    0.348150    0.071941    0.661611    0.000000
                              0.087891     0.041212    0.200277    0.455170    0.644882   -0.944350    1.000000
    7.6 B2g   1  3d1+         0.043000     1.000000
    8.6 B2g   1  5g1+         0.277447     1.000000
    9.6 B2g   1  5g3+         0.277447     1.000000
   10.6 B2g   1  5g1+         0.808427     1.000000
   11.6 B2g   1  5g3+         0.808427     1.000000
   12.6 B2g   1  5g1+         2.355598     1.000000
   13.6 B2g   1  5g3+         2.355598     1.000000
   14.6 B2g   1  5g1+         6.863750     1.000000
   15.6 B2g   1  5g3+         6.863750     1.000000
   16.6 B2g   1  7i5+         1.496090     1.000000
   17.6 B2g   1  7i3+         1.496090     1.000000
   18.6 B2g   1  7i1+         1.496090     1.000000
   19.6 B2g   1  7i5+         3.729940     1.000000
   20.6 B2g   1  7i3+         3.729940     1.000000
   21.6 B2g   1  7i1+         3.729940     1.000000
    1.7 B3g   1  3d1-       160.444504     0.000034   -0.000031    0.000048   -0.000070    0.000205    0.000000
    2.7 B3g                  52.598830     0.006553   -0.007869    0.010531   -0.015269   -0.021933    0.000000
    3.7 B3g                  27.491581     0.036185   -0.041992    0.055559   -0.078770   -0.087508    0.000000
    4.7 B3g                  12.745988     0.083026   -0.101388    0.140758   -0.218556   -0.341612    0.000000
    5.7 B3g                   6.184310     0.176960   -0.216996    0.305785   -0.479271   -0.497629    0.000000
    6.7 B3g                   3.029146     0.263990   -0.283962    0.242812    0.173623    1.280725    0.000000
                              1.474099     0.292447   -0.127179   -0.285044    0.954173   -0.126257    0.000000
                              0.714391     0.249597    0.177125   -0.594819   -0.348490   -1.360655    0.000000
                              0.348520     0.171637    0.375596   -0.017937   -0.737371    0.964288    0.000000
                              0.174166     0.080649    0.284631    0.348150    0.071941    0.661611    0.000000
                              0.087891     0.041212    0.200277    0.455170    0.644882   -0.944350    1.000000
    7.7 B3g   1  3d1-         0.043000     1.000000
    8.7 B3g   1  5g1-         0.277447     1.000000
    9.7 B3g   1  5g3-         0.277447     1.000000
   10.7 B3g   1  5g1-         0.808427     1.000000
   11.7 B3g   1  5g3-         0.808427     1.000000
   12.7 B3g   1  5g1-         2.355598     1.000000
   13.7 B3g   1  5g3-         2.355598     1.000000
   14.7 B3g   1  5g1-         6.863750     1.000000
   15.7 B3g   1  5g3-         6.863750     1.000000
   16.7 B3g   1  7i5-         1.496090     1.000000
   17.7 B3g   1  7i3-         1.496090     1.000000
   18.7 B3g   1  7i1-         1.496090     1.000000
   19.7 B3g   1  7i5-         3.729940     1.000000
   20.7 B3g   1  7i3-         3.729940     1.000000
   21.7 B3g   1  7i1-         3.729940     1.000000
    1.8 Au    1  4f2-         0.137400     1.000000
    2.8 Au    1  4f2-         0.394252     1.000000
    3.8 Au    1  4f2-         1.131258     1.000000
    4.8 Au    1  4f2-         3.246009     1.000000
    5.8 Au    1  4f2-         9.314030     1.000000
    6.8 Au    1  6h4-         0.499466     1.000000
    7.8 Au    1  6h2-         0.499466     1.000000
    8.8 Au    1  6h4-         1.591062     1.000000
    9.8 Au    1  6h2-         1.591062     1.000000
   10.8 Au    1  6h4-         5.068373     1.000000
   11.8 Au    1  6h2-         5.068373     1.000000

 NUCLEAR CHARGE:                   17
 NUMBER OF PRIMITIVE AOS:         357
 NUMBER OF SYMMETRY AOS:          246
 NUMBER OF CONTRACTIONS:          197   (  42Ag  +  27B3u +  27B2u +  21B1g +  27B1u +  21B2g +  21B3g +  11Au  )
 NUMBER OF CORE ORBITALS:           4   (   1Ag  +   1B3u +   1B2u +   0B1g +   1B1u +   0B2g +   0B3g +   0Au  )
 NUMBER OF VALENCE ORBITALS:        6   (   3Ag  +   0B3u +   0B2u +   1B1g +   0B1u +   1B2g +   1B3g +   0Au  )


 NUCLEAR REPULSION ENERGY    0.00000000

 EXTRA SYMMETRY OF AOS IN SYMMETRY 1:   1 1 1 1 1 1 1 1 2 3   2 3 2 3 2 3 2 3 2 3   2 3 4 5 6 4 5 6 4 5   6 4 5 6 7 8 910 7 8
                                        910
 EXTRA SYMMETRY OF AOS IN SYMMETRY 2:   1 1 1 1 1 1 1 1 2 3   2 3 2 3 2 3 2 3 4 5   6 4 5 6 4 5 6
 EXTRA SYMMETRY OF AOS IN SYMMETRY 3:   1 1 1 1 1 1 1 1 2 3   2 3 2 3 2 3 2 3 4 5   6 4 5 6 4 5 6
 EXTRA SYMMETRY OF AOS IN SYMMETRY 4:   1 1 1 1 1 1 1 2 3 2   3 2 3 2 3 4 5 6 4 5   6
 EXTRA SYMMETRY OF AOS IN SYMMETRY 5:   1 1 1 1 1 1 1 1 2 3   2 3 2 3 2 3 2 3 4 5   6 4 5 6 4 5 6
 EXTRA SYMMETRY OF AOS IN SYMMETRY 6:   1 1 1 1 1 1 1 2 3 2   3 2 3 2 3 4 5 6 4 5   6
 EXTRA SYMMETRY OF AOS IN SYMMETRY 7:   1 1 1 1 1 1 1 2 3 2   3 2 3 2 3 4 5 6 4 5   6
 EXTRA SYMMETRY OF AOS IN SYMMETRY 8:   1 1 1 1 1 2 3 2 3 2   3

 Eigenvalues of metric

         1 0.396E-03 0.313E-02 0.313E-02 0.589E-01 0.212E+00 0.212E+00 0.296E+00 0.296E+00
         2 0.122E-01 0.175E+00 0.175E+00 0.279E+00 0.403E+00 0.403E+00 0.510E+00 0.510E+00
         3 0.122E-01 0.175E+00 0.175E+00 0.279E+00 0.403E+00 0.403E+00 0.510E+00 0.510E+00
         4 0.313E-02 0.212E+00 0.296E+00 0.296E+00 0.531E+00 0.531E+00 0.531E+00 0.650E+00
         5 0.122E-01 0.175E+00 0.175E+00 0.279E+00 0.403E+00 0.403E+00 0.510E+00 0.510E+00
         6 0.313E-02 0.212E+00 0.296E+00 0.296E+00 0.531E+00 0.531E+00 0.531E+00 0.650E+00
         7 0.313E-02 0.212E+00 0.296E+00 0.296E+00 0.531E+00 0.531E+00 0.531E+00 0.650E+00
         8 0.175E+00 0.403E+00 0.510E+00 0.510E+00 0.844E+00 0.974E+00 0.974E+00 0.148E+01


 Contracted 2-electron integrals neglected if value below      1.0D-12
 AO integral compression algorithm  1   Integral accuracy      1.0D-12

     129.237 MB (compressed) written to integral file ( 42.9%)


 NUMBER OF SORTED TWO-ELECTRON INTEGRALS:   24352329.     BUFFER LENGTH:  32768
 NUMBER OF SEGMENTS:   2  SEGMENT LENGTH:   15998961      RECORD LENGTH: 524288

 Memory used in sort:      16.56 MW

 SORT1 READ    37634223. AND WROTE    15876700. INTEGRALS IN     46 RECORDS. CPU TIME:     0.89 SEC, REAL TIME:     1.21 SEC
 SORT2 READ    15876700. AND WROTE    24352329. INTEGRALS IN    493 RECORDS. CPU TIME:     0.50 SEC, REAL TIME:     0.94 SEC

 FILE SIZES:   FILE 1:   149.2 MBYTE,  FILE 4:   193.0 MBYTE,   TOTAL:    342.2 MBYTE

 OPERATOR DM      FOR CENTER  0  COORDINATES:    0.000000    0.000000    0.000000
 OPERATOR EKIN    FOR CENTER  0  COORDINATES:    0.000000    0.000000    0.000000
 OPERATOR POT     FOR CENTER  0  COORDINATES:    0.000000    0.000000    0.000000


 **********************************************************************************************************************************
 DATASETS  * FILE   NREC   LENGTH (MB)   RECORD NAMES
              1      20      103.05       500      610      700      900      950      970     1000      129      960     1100   
                                          VAR    BASINP    GEOM    SYMINP    ZMAT    AOBASIS   BASIS     P2S    ABASIS      S 
                                         1400     1410     1420     1200     1210     1080     1600     1650     1300     1700   
                                         EKIN       V       ECP      H0       H01     AOSYM     SMH    MOLCAS    ERIS     OPER   

 PROGRAMS   *        TOTAL       INT
 CPU TIMES  *         7.52      7.44
 REAL TIME  *         9.96 SEC
 DISK USED  *       342.55 MB      
 **********************************************************************************************************************************


 PROGRAM * RHF-SCF (OPEN SHELL)       Authors: W. Meyer, H.-J. Werner


 NUMBER OF ELECTRONS:      10+    7-    SPACE SYMMETRY=6    SPIN SYMMETRY: Quartet 
 CONVERGENCE THRESHOLDS:    1.00E-05 (Density)    1.00E-07 (Energy)
 MAX. NUMBER OF ITERATIONS:       60
 INTERPOLATION TYPE:            DIIS
 INTERPOLATION STEPS:              2 (START)      1 (STEP)
 LEVEL SHIFTS:                 -0.60 (CLOSED) -0.30 (OPEN) 

 Number of closed-shell orbitals:    7 (   3   1   1   0   1   1   0   0 )
 Number of open-shell orbitals:      3 (   1   0   0   1   0   0   1   0 )


 
 Extra symmetries of mos in symmetry 1:   1   1   3   2

   Atom=CO basis=ECP10MDF_GUESS    lmin=0  lmax=2

 Orbital guess generated from atomic densities. Full valence occupancy:    4   1   1   1   1   1   1   0


 Molecular orbital dump at record        2100.2

 ITERATION    DDIFF          GRAD             ENERGY        2-EL.EN.            DIPOLE MOMENTS         DIIS   ORB.
    1      0.000D+00      0.000D+00      -144.23423806    216.782051    0.00000    0.00000    0.00000    0    start
    2      0.000D+00      0.228D-01      -144.29810293    225.619443    0.00000    0.00000    0.00000    1    diag,B
    3      0.531D-02      0.159D-01      -144.31674110    223.313818    0.00000    0.00000    0.00000    2    diag,B
    4      0.125D-02      0.279D-02      -144.31922019    223.195765    0.00000    0.00000    0.00000    3    diag,B
    5      0.817D-03      0.920D-03      -144.32081302    223.182977    0.00000    0.00000    0.00000    4    diag,B
    6      0.645D-03      0.716D-03      -144.32278210    223.144535    0.00000    0.00000    0.00000    5    diag,B
    7      0.889D-03      0.650D-03      -144.32752117    223.084183    0.00000    0.00000    0.00000    6    fixocc
    8      0.275D-02      0.509D-03      -144.32852738    223.101186    0.00000    0.00000    0.00000    7    diag,B
    9      0.812D-03      0.403D-03      -144.33115297    223.068981    0.00000    0.00000    0.00000    8    diag,B
   10      0.407D-02      0.569D-03      -144.33116036    223.082989    0.00000    0.00000    0.00000    9    orth
   11      0.127D-03      0.398D-03      -144.33133115    223.123858    0.00000    0.00000    0.00000    9    diag,B
   12      0.952D-03      0.761D-04      -144.33134381    223.136267    0.00000    0.00000    0.00000    9    diag,B
   13      0.283D-03      0.312D-04      -144.33134458    223.137339    0.00000    0.00000    0.00000    9    diag,B
   14      0.541D-04      0.157D-04      -144.33134480    223.137269    0.00000    0.00000    0.00000    9    diag,B
   15      0.342D-04      0.489D-05      -144.33134486    223.137778    0.00000    0.00000    0.00000    9    diag,B
   16      0.185D-04      0.478D-05      -144.33134487    223.137581    0.00000    0.00000    0.00000    9    diag,B
   17      0.712D-05      0.625D-06      -144.33134486    223.137541    0.00000    0.00000    0.00000    0    orth

 Final alpha occupancy:   4   1   1   1   1   1   1   0
 Final beta  occupancy:   3   1   1   0   1   1   0   0

 !RHF STATE 1.6 Energy               -144.331344864540
 Nuclear energy                         0.00000000
 One-electron energy                 -255.90011551
 Two-electron energy                  111.56877065
 Virial quotient                       -1.63339965
 !RHF STATE 1.6 Dipole moment           0.00000000     0.00000000     0.00000000
 Dipole moment /Debye                   0.00000000     0.00000000     0.00000000
 

 !RHF expec          <1.6|EKIN|1.6>    88.362541768480
 
 !RHF expec           <1.6|POT|1.6>   -21.147280072953

 ELECTRON ORBITALS
 =================


   Orb  Occ    Energy  Couls-En    Coefficients

                                   1 1s      1 1s      1 1s      1 1s      1 1s      1 1s      1 1s      1 1s      1 3d0     1 3d2+ 
                                   1 3d0     1 3d2+    1 3d0     1 3d2+    1 3d0     1 3d2+    1 3d0     1 3d2+    1 3d0     1 3d2+ 
                                   1 3d0     1 3d2+    1 5g0     1 5g4+    1 5g2+    1 5g0     1 5g4+    1 5g2+    1 5g0     1 5g4+ 
                                   1 5g2+    1 5g0     1 5g4+    1 5g2+    1 7i6+    1 7i4+    1 7i2+    1 7i0     1 7i6+    1 7i4+ 
                                   1 7i2+    1 7i0  

   1.1   2    -4.6571  -23.9239  0.999994  0.000045  0.000117  0.000085 -0.000040 -0.000000  0.000027  0.000008 -0.000000  0.000000
                                 0.000000 -0.000000 -0.000000 -0.000000 -0.000000  0.000000 -0.000000  0.000000 -0.000000  0.000000
                                 0.000000 -0.000000 -0.000005  0.000012  0.000021 -0.000162  0.000411  0.000726 -0.000132  0.000336
                                 0.000592 -0.000056  0.000143  0.000253 -0.000001  0.000002 -0.000001 -0.000002 -0.000001  0.000001
                                -0.000001 -0.000001

   2.1   2    -0.2713   -6.4620 -0.000083  0.999966 -0.000590 -0.000005  0.000011 -0.000006  0.000010  0.000050  0.000066 -0.000036
                                -0.000001  0.000006  0.000000  0.000004  0.000001  0.000002 -0.000000 -0.000000 -0.000003 -0.000018
                                 0.000009  0.000003  0.000063 -0.000160 -0.000282  0.000026 -0.000067 -0.000118 -0.000041  0.000104
                                 0.000184 -0.000004  0.000010  0.000018 -0.000001  0.000001 -0.000001 -0.000001  0.000000 -0.000000
                                -0.000000  0.000000

   3.1   2    -0.6224  -14.8054  0.000000  0.000002  0.000002 -0.000000 -0.000000  0.000000 -0.000000  0.000000  0.500545  0.866898
                                -0.027036 -0.046826 -0.009524 -0.016496 -0.001195 -0.002070 -0.000130 -0.000226 -0.004226 -0.007315
                                 0.000106  0.000185 -0.000255 -0.000181  0.000046 -0.000484 -0.000343  0.000086 -0.000281 -0.000199
                                 0.000050 -0.000114 -0.000081  0.000020 -0.000177 -0.000247 -0.000119 -0.000038 -0.000210 -0.000293
                                -0.000141 -0.000046

   4.1   +    -0.7200  -15.0882  0.000000 -0.000076 -0.000003 -0.000000 -0.000000  0.000000 -0.000000 -0.000000  0.863694 -0.498694
                                -0.076895  0.044400 -0.024708  0.014267 -0.001691  0.000977  0.000259 -0.000150 -0.000835  0.000483
                                -0.000129  0.000074 -0.000026  0.000030 -0.000023 -0.000346  0.000409 -0.000309 -0.000492  0.000581
                                -0.000439 -0.000162  0.000192 -0.000145  0.000193  0.000076 -0.000508  0.000202  0.000252  0.000101
                                -0.000670  0.000268

                                   1 2px     1 2px     1 2px     1 2px     1 2px     1 2px     1 2px     1 2px     1 4f1+    1 4f3+ 
                                   1 4f1+    1 4f3+    1 4f1+    1 4f3+    1 4f1+    1 4f3+    1 4f1+    1 4f3+    1 6h1+    1 6h3+ 
                                   1 6h5+    1 6h1+    1 6h3+    1 6h5+    1 6h1+    1 6h3+    1 6h5+ 

   1.2   2    -3.0427  -20.5675  1.000410  0.015200  0.012681 -0.000841 -0.000929  0.000015 -0.004938  0.000086  0.000035  0.000015
                                 0.001375  0.000591  0.003874  0.001667  0.002799  0.001204  0.000904  0.000389 -0.000054  0.000074
                                 0.000054  0.000061 -0.000070 -0.000067  0.000132 -0.000166 -0.000138

                                   1 2py     1 2py     1 2py     1 2py     1 2py     1 2py     1 2py     1 2py     1 4f1-    1 4f3- 
                                   1 4f1-    1 4f3-    1 4f1-    1 4f3-    1 4f1-    1 4f3-    1 4f1-    1 4f3-    1 6h1-    1 6h3- 
                                   1 6h5-    1 6h1-    1 6h3-    1 6h5-    1 6h1-    1 6h3-    1 6h5- 

   1.3   2    -3.0427  -20.5675  1.000410  0.015200  0.012681 -0.000841 -0.000929  0.000015 -0.004938  0.000086 -0.000023 -0.000030
                                -0.000916 -0.001183 -0.002583 -0.003334 -0.001866 -0.002409 -0.000603 -0.000778  0.000022  0.000086
                                 0.000059 -0.000013 -0.000098 -0.000057 -0.000041 -0.000210 -0.000134

                                   1 3d2-    1 3d2-    1 3d2-    1 3d2-    1 3d2-    1 3d2-    1 3d2-    1 5g2-    1 5g4-    1 5g2- 
                                   1 5g4-    1 5g2-    1 5g4-    1 5g2-    1 5g4-    1 7i2-    1 7i6-    1 7i4-    1 7i2-    1 7i6- 
                                   1 7i4- 

   1.4   +    -0.7200  -15.0882  0.997328 -0.088790 -0.028530 -0.001953  0.000299 -0.000964 -0.000148 -0.000035  0.000031 -0.000464
                                 0.000409 -0.000659  0.000581 -0.000218  0.000192  0.000102 -0.000379 -0.000434  0.000131 -0.000499
                                -0.000573

                                   1 2pz     1 2pz     1 2pz     1 2pz     1 2pz     1 2pz     1 2pz     1 2pz     1 4f0     1 4f2+ 
                                   1 4f0     1 4f2+    1 4f0     1 4f2+    1 4f0     1 4f2+    1 4f0     1 4f2+    1 6h2+    1 6h4+ 
                                   1 6h0     1 6h2+    1 6h4+    1 6h0     1 6h2+    1 6h4+    1 6h0  

   1.5   2    -3.0427  -20.5675  1.000410  0.015200  0.012681 -0.000841 -0.000929  0.000015 -0.004938  0.000086 -0.000010  0.000037
                                -0.000374  0.001449 -0.001054  0.004084 -0.000762  0.002950 -0.000246  0.000953  0.000095  0.000039
                                -0.000027 -0.000108 -0.000034  0.000019 -0.000232 -0.000084  0.000054

                                   1 3d1+    1 3d1+    1 3d1+    1 3d1+    1 3d1+    1 3d1+    1 3d1+    1 5g1+    1 5g3+    1 5g1+ 
                                   1 5g3+    1 5g1+    1 5g3+    1 5g1+    1 5g3+    1 7i5+    1 7i3+    1 7i1+    1 7i5+    1 7i3+ 
                                   1 7i1+ 

   1.6   2    -0.6224  -14.8053  1.001027 -0.054069 -0.019047 -0.002390 -0.000261 -0.008445  0.000216  0.000111  0.000296  0.000212
                                 0.000561  0.000123  0.000326  0.000050  0.000132 -0.000118 -0.000229  0.000203 -0.000140 -0.000272
                                 0.000241

                                   1 3d1-    1 3d1-    1 3d1-    1 3d1-    1 3d1-    1 3d1-    1 3d1-    1 5g1-    1 5g3-    1 5g1- 
                                   1 5g3-    1 5g1-    1 5g3-    1 5g1-    1 5g3-    1 7i5-    1 7i3-    1 7i1-    1 7i5-    1 7i3- 
                                   1 7i1- 

   1.7   +    -0.7200  -15.0882  0.997328 -0.088789 -0.028530 -0.001953  0.000299 -0.000964 -0.000148  0.000041 -0.000021  0.000547
                                -0.000289  0.000777 -0.000411  0.000256 -0.000136 -0.000214 -0.000530 -0.000125 -0.000285 -0.000697
                                -0.000165

 HOMO      1.6    -0.622392 =     -16.9362eV
 LUMO      2.2     0.024859 =       0.6764eV
 LUMO-HOMO         0.647251 =      17.6126eV


 **********************************************************************************************************************************
 DATASETS  * FILE   NREC   LENGTH (MB)   RECORD NAMES
              1      20      103.05       500      610      700      900      950      970     1000      129      960     1100   
                                          VAR    BASINP    GEOM    SYMINP    ZMAT    AOBASIS   BASIS     P2S    ABASIS      S 
                                         1400     1410     1420     1200     1210     1080     1600     1650     1300     1700   
                                         EKIN       V       ECP      H0       H01     AOSYM     SMH    MOLCAS    ERIS     OPER   

              2       4        2.94       700     1000      520     2100   
                                         GEOM     BASIS   MCVARS     RHF  

 PROGRAMS   *        TOTAL        HF       INT
 CPU TIMES  *         8.54      1.02      7.44
 REAL TIME  *        11.26 SEC
 DISK USED  *       342.55 MB      
 **********************************************************************************************************************************
 SETTING SCF(I)         =      -144.33134486  AU                              
 SETTING _CC_NORM_MAX   =         2.00000000                                  


 PROGRAM * CCSD (Restricted open-shell coupled cluster)     Authors: C. Hampel, H.-J. Werner, 1991, M. Deegan, P.J. Knowles, 1992


 Convergence thresholds:  THRVAR = 1.00D-08  THRDEN = 1.00D-06

 CCSD(T)     terms to be evaluated (factor= 1.000)


 Number of closed-shell orbitals:   7 (   3   1   1   0   1   1   0   0 )
 Number of active  orbitals:        3 (   1   0   0   1   0   0   1   0 )
 Number of external orbitals:     187 (  38  26  26  20  26  20  20  11 )

 Memory could be reduced to 16.28 Mwords without degradation in triples

 Number of N-1 electron functions:              17
 Number of N-2 electron functions:             136
 Number of singly external CSFs:               511
 Number of doubly external CSFs:            471377
 Total number of CSFs:                      471888

 Molecular orbitals read from record     2100.2  Type=RHF/CANONICAL (state 1.6)

 Integral transformation finished. Total CPU:   0.32 sec, npass=  1  Memory used:   3.30 MW

 Starting RMP2 calculation

 Wavefunction is spin-projected

 ITER.      SQ.NORM     CORR.ENERGY   TOTAL ENERGY   ENERGY CHANGE        DEN1      VAR(S)    VAR(P)  DIIS     TIME
   1      1.10796977    -0.77119364  -145.10253850    -0.77119364    -0.00109303  0.12D-05  0.74D-03  1  1     0.36
   2      1.10987984    -0.77235191  -145.10369678    -0.00115828    -0.00001600  0.15D-06  0.16D-04  2  2     0.38
   3      1.11018352    -0.77246678  -145.10381165    -0.00011487    -0.00000010  0.16D-07  0.79D-07  3  3     0.40
   4      1.11019764    -0.77247023  -145.10381510    -0.00000345    -0.00000000  0.83D-09  0.95D-09  4  4     0.42
   5      1.11019779    -0.77247016  -145.10381503     0.00000007    -0.00000000  0.21D-10  0.22D-10  5  5     0.44

 Norm of t1 vector:      0.03566517      S-energy:    -0.00712956      T1 diagnostic:  0.00013210
 Norm of t2 vector:      0.33003907      P-energy:    -0.76534061
                                         Alpha-Beta:  -0.53905227
                                         Alpha-Alpha: -0.15833765
                                         Beta-Beta:   -0.06795068

 Spin contamination <S**2-Sz**2-Sz>     0.00000000
  Reference energy                   -144.331344864540
  RHF-RMP2 correlation energy          -0.772470163594
 !RHF-RMP2 energy                    -145.103815028134
 (NB above energy spin projected)

 Starting RCCSD calculation

 ITER.      SQ.NORM     CORR.ENERGY   TOTAL ENERGY   ENERGY CHANGE        DEN1      VAR(S)    VAR(P)  DIIS     TIME
   1      1.10465265    -0.73294095  -145.06428581    -0.73294095    -0.01879979  0.45D-02  0.33D-02  1  1     1.25
   2      1.11849562    -0.74819480  -145.07953967    -0.01525385    -0.00183730  0.61D-03  0.78D-03  2  2     2.06
   3      1.12787703    -0.75054395  -145.08188882    -0.00234915    -0.00034487  0.22D-03  0.12D-03  3  3     2.86
   4      1.13370600    -0.75213072  -145.08347559    -0.00158677    -0.00004279  0.26D-04  0.16D-04  4  4     3.66
   5      1.13648348    -0.75268151  -145.08402638    -0.00055079    -0.00000252  0.16D-05  0.80D-06  5  5     4.47
   6      1.13685870    -0.75272479  -145.08406966    -0.00004328    -0.00000028  0.12D-06  0.12D-06  6  6     5.24
   7      1.13693710    -0.75273517  -145.08408003    -0.00001038    -0.00000005  0.26D-07  0.20D-07  6  1     6.03
   8      1.13695176    -0.75273691  -145.08408178    -0.00000174    -0.00000000  0.76D-09  0.27D-08  6  2     6.82
   9      1.13694718    -0.75273529  -145.08408015     0.00000163    -0.00000000  0.13D-09  0.31D-09  6  4     7.62
  10      1.13694638    -0.75273549  -145.08408035    -0.00000020    -0.00000000  0.22D-10  0.50D-10  6  3     8.40

 Norm of t1 vector:      0.12455849      S-energy:    -0.00769750      T1 diagnostic:  0.01943641
                                                                       D1 diagnostic:  0.06703910
 Norm of t2 vector:      0.34847032      P-energy:    -0.74503799
                                         Alpha-Beta:  -0.54258335
                                         Alpha-Alpha: -0.13960670
                                         Beta-Beta:   -0.06284794

 Singles amplitudes (print threshold =  0.500E-01):

         I         SYM. A    A   T(IA) [Alpha-Alpha]

         2         1         5      0.06633620

 Doubles amplitudes (print threshold =  0.500E-01):

         I         J         SYM. A    SYM. B    A         B      T(IJ, AB) [Alpha-Beta]

         2         2         2         2         2         2     -0.05031645
         2         2         3         3         2         2     -0.05031778
         2         2         5         5         2         2     -0.05031917

 Spin contamination <S**2-Sz**2-Sz>     0.00000000

 Memory could be reduced to 17.10 Mwords without degradation in triples
 

  Correlated core orbitals:             1.1       1.2       1.3       1.5
  Orbital energies:                    -4.8041   -3.2200   -3.2200   -3.2200
 
  RCCSD core-core energy               -0.150161472042
  RCCSD core-valence energy            -0.329390964419
  RCCSD valence correlation energy     -0.273183050246
 

 RESULTS
 =======

  Reference energy                   -144.331344864540
  RCCSD singles energy                 -0.007697498192
  RCCSD pair energy                    -0.745037988515
  RCCSD correlation energy             -0.752735486707
  Triples (T) contribution             -0.023109211255
  Total correlation energy             -0.775844697961
 
  RHF-RCCSD energy                   -145.084080351247
  RHF-RCCSD[T] energy                -145.108359901864
  RHF-RCCSD-T energy                 -145.106868044465
 !RHF-RCCSD(T) energy                -145.107189562502

 Program statistics:

 Available memory in ccsd:               511999000
 Min. memory needed in ccsd:               1444754
 Max. memory used in ccsd:                 2016844
 Max. memory used in cckext:               1536075 (10 integral passes)
 Max. memory used in cckint:               3297069 ( 1 integral passes)



 **********************************************************************************************************************************
 DATASETS  * FILE   NREC   LENGTH (MB)   RECORD NAMES
              1      20      103.05       500      610      700      900      950      970     1000      129      960     1100   
                                          VAR    BASINP    GEOM    SYMINP    ZMAT    AOBASIS   BASIS     P2S    ABASIS      S 
                                         1400     1410     1420     1200     1210     1080     1600     1650     1300     1700   
                                         EKIN       V       ECP      H0       H01     AOSYM     SMH    MOLCAS    ERIS     OPER   

              2       4        2.94       700     1000      520     2100   
                                         GEOM     BASIS   MCVARS     RHF  

 PROGRAMS   *        TOTAL  RCCSD(T)        HF       INT
 CPU TIMES  *        34.03     25.49      1.02      7.44
 REAL TIME  *        40.44 SEC
 DISK USED  *       389.08 MB      
 **********************************************************************************************************************************
 SETTING POSTHF(I)      =      -145.10718956  AU                              
                                                                                                                                                                                                                                                                

         SCF            POSTHF       EKIN           POT
    -144.3313449   -145.1071896   88.36254177   -21.14728007
                                                  

 RCCSD(T)/USERDEF energy=   -145.107189562502

        RCCSD(T)        HF-SCF  
   -145.10718956   -144.33134486
 **********************************************************************************************************************************
 Variable memory released
