nohup: ignoring input
----- GAMESS execution script 'rungms' -----
This job is running on host gwang18-OptiPlex-3040
under operating system Linux at 2018年 07月 20日 星期五 14:48:27 EDT
Available scratch disk space (Kbyte units) at beginning of the job is
Filesystem     1K-blocks      Used Available Use% Mounted on
/dev/sda6      216112148 110266732  94844432  54% /
GAMESS temporary binary files will be written to /home/gwang18/research/gamess/ecpcorrelation/fe/ccecp
GAMESS supplementary output files will be written to /home/gwang18/research/gamess/ecpcorrelation/fe/ccecp
Copying input file fe_gs.inp to your run's scratch directory...
cp fe_gs.inp /home/gwang18/research/gamess/ecpcorrelation/fe/ccecp/fe_gs.F05
unset echo
/home/gwang18/software/gamess/ddikick.x /home/gwang18/software/gamess/gamess.00.x fe_gs -ddi 1 1 gwang18-OptiPlex-3040 -scr /home/gwang18/research/gamess/ecpcorrelation/fe/ccecp

 Distributed Data Interface kickoff program.
 Initiating 1 compute processes on 1 nodes to run the following command:
 /home/gwang18/software/gamess/gamess.00.x fe_gs 

          ******************************************************
          *         GAMESS VERSION =  5 DEC 2014 (R1)          *
          *             FROM IOWA STATE UNIVERSITY             *
          * M.W.SCHMIDT, K.K.BALDRIDGE, J.A.BOATZ, S.T.ELBERT, *
          *   M.S.GORDON, J.H.JENSEN, S.KOSEKI, N.MATSUNAGA,   *
          *          K.A.NGUYEN, S.J.SU, T.L.WINDUS,           *
          *       TOGETHER WITH M.DUPUIS, J.A.MONTGOMERY       *
          *         J.COMPUT.CHEM.  14, 1347-1363(1993)        *
          **************** 64 BIT LINUX VERSION ****************

  SINCE 1993, STUDENTS AND POSTDOCS WORKING AT IOWA STATE UNIVERSITY
  AND ALSO IN THEIR VARIOUS JOBS AFTER LEAVING ISU HAVE MADE IMPORTANT
  CONTRIBUTIONS TO THE CODE:
     IVANA ADAMOVIC, CHRISTINE AIKENS, YURI ALEXEEV, POOJA ARORA,
     ANDREY ASADCHEV, ROB BELL, PRADIPTA BANDYOPADHYAY, JONATHAN BENTZ,
     BRETT BODE, KURT BRORSEN, CALEB CARLIN, GALINA CHABAN, WEI CHEN,
     CHEOL HO CHOI, PAUL DAY, ALBERT DEFUSCO, NUWAN DESILVA, TIM DUDLEY,
     DMITRI FEDOROV, GRAHAM FLETCHER, MARK FREITAG, KURT GLAESEMANN,
     DAN KEMP, GRANT MERRILL, NORIYUKI MINEZAWA, JONATHAN MULLIN,
     TAKESHI NAGATA, SEAN NEDD, HEATHER NETZLOFF, BOSILJKA NJEGIC, RYAN OLSON,
     MIKE PAK, SPENCER PRUITT, LUKE ROSKOP, JIM SHOEMAKER, LYUDMILA SLIPCHENKO,
     TONY SMITH, SAROM SOK, JIE SONG, TETSUYA TAKETSUGU, SIMON WEBB,
     PENG XU, SOOHAENG YOO, FEDERICO ZAHARIEV

  ADDITIONAL CODE HAS BEEN PROVIDED BY COLLABORATORS IN OTHER GROUPS:
     IOWA STATE UNIVERSITY:
          JOE IVANIC, AARON WEST, LAIMUTIS BYTAUTAS, KLAUS RUEDENBERG
     UNIVERSITY OF TOKYO: KIMIHIKO HIRAO, TAKAHITO NAKAJIMA,
          TAKAO TSUNEDA, MUNEAKI KAMIYA, SUSUMU YANAGISAWA,
          KIYOSHI YAGI, MAHITO CHIBA, SEIKEN TOKURA, NAOAKI KAWAKAMI
     UNIVERSITY OF AARHUS: FRANK JENSEN
     UNIVERSITY OF IOWA: VISVALDAS KAIRYS, HUI LI
     NATIONAL INST. OF STANDARDS AND TECHNOLOGY: WALT STEVENS, DAVID GARMER
     UNIVERSITY OF PISA: BENEDETTA MENNUCCI, JACOPO TOMASI
     UNIVERSITY OF MEMPHIS: HENRY KURTZ, PRAKASHAN KORAMBATH
     UNIVERSITY OF ALBERTA: TOBY ZENG, MARIUSZ KLOBUKOWSKI
     UNIVERSITY OF NEW ENGLAND: MARK SPACKMAN
     MIE UNIVERSITY: HIROAKI UMEDA
     NAT. INST. OF ADVANCED INDUSTRIAL SCIENCE AND TECHNOLOGY: KAZUO KITAURA
     MICHIGAN STATE UNIVERSITY:
          KAROL KOWALSKI, MARTA WLOCH, JEFFREY GOUR, JESSE LUTZ,
          WEI LI, PIOTR PIECUCH
     UNIVERSITY OF SILESIA: MONIKA MUSIAL, STANISLAW KUCHARSKI
     FACULTES UNIVERSITAIRES NOTRE-DAME DE LA PAIX:
          OLIVIER QUINET, BENOIT CHAMPAGNE
     UNIVERSITY OF CALIFORNIA - SANTA BARBARA: BERNARD KIRTMAN
     INSTITUTE FOR MOLECULAR SCIENCE:
          KAZUYA ISHIMURA, MICHIO KATOUDA, AND SHIGERU NAGASE
     UNIVERSITY OF NOTRE DAME: ANNA POMOGAEVA, DAN CHIPMAN
     KYUSHU UNIVERSITY:
          HARUYUKI NAKANO,
          FENG LONG GU, JACEK KORCHOWIEC, MARCIN MAKOWSKI, AND YURIKO AOKI,
          HIROTOSHI MORI AND EISAKU MIYOSHI
     PENNSYLVANIA STATE UNIVERSITY:
          TZVETELIN IORDANOV, CHET SWALINA, JONATHAN SKONE,
          SHARON HAMMES-SCHIFFER
     WASEDA UNIVERSITY:
          MASATO KOBAYASHI, TOMOKO AKAMA, TSUGUKI TOUMA,
          TAKESHI YOSHIKAWA, YASUHIRO IKABATA, HIROMI NAKAI
     NANJING UNIVERSITY: SHUHUA LI
     UNIVERSITY OF NEBRASKA:
          PEIFENG SU, DEJUN SI, NANDUN THELLAMUREGE, YALI WANG, HUI LI
     UNIVERSITY OF ZURICH: ROBERTO PEVERATI, KIM BALDRIDGE
     N. COPERNICUS UNIVERSITY AND JACKSON STATE UNIVERSITY:
          MARIA BARYSZ
     UNIVERSITY OF COPENHAGEN: CASPER STEINMANN
     TOKYO INSTITUTE OF TECHNOLOGY: HIROYA NAKATA
     NAGOYA UNIVERSITY: YOSHIO NISHIMOTO, STEPHAN IRLE

 EXECUTION OF GAMESS BEGUN Fri Jul 20 14:48:27 2018

            ECHO OF THE FIRST FEW INPUT CARDS -
 INPUT CARD> $CONTRL                                                                        
 INPUT CARD>     SCFTYP=ROHF                                                                
 INPUT CARD>     MULT=5                                                                     
 INPUT CARD>     ICHARG=0                                                                   
 INPUT CARD>     RUNTYP=ENERGY                                                              
 INPUT CARD>     MAXIT=150                                                                  
 INPUT CARD>     PP=READ                                                                    
 INPUT CARD> $END                                                                           
 INPUT CARD>                                                                                
 INPUT CARD> $CONTRL                                                                        
 INPUT CARD>     ISPHER=1                                                                   
 INPUT CARD> $END                                                                           
 INPUT CARD>                                                                                
 INPUT CARD> $SYSTEM                                                                        
 INPUT CARD>     KDIAG=3                                                                    
 INPUT CARD>     mwords=125                                                                 
 INPUT CARD> $END                                                                           
 INPUT CARD>                                                                                
 INPUT CARD> $GUESS                                                                         
 INPUT CARD>    GUESS=MOREAD                                                                
 INPUT CARD>    NORB=37                                                                     
 INPUT CARD>    NORDER=1                                                                    
 INPUT CARD>    IORDER(5)=10,5,6,7,8,9                                                      
 INPUT CARD> $END                                                                           
 INPUT CARD>                                                                                
 INPUT CARD> $DATA                                                                          
 INPUT CARD>                                                                                
 INPUT CARD>C1                                                                              
 INPUT CARD>Fe 26 0. 0. 0.                                                                  
 INPUT CARD>S    13                                                                         
 INPUT CARD>  1     84.322332       0.000785                                                
 INPUT CARD>  2     44.203528       -0.012781                                               
 INPUT CARD>  3     23.288963       0.104635                                                
 INPUT CARD>  4     13.385163       -0.119385                                               
 INPUT CARD>  5      7.518052       -0.339804                                               
 INPUT CARD>  6      4.101835       -0.049994                                               
 INPUT CARD>  7      2.253571       0.476955                                                
 INPUT CARD>  8      1.134924       0.593222                                                
 INPUT CARD>  9      0.561550       0.200151                                                
 INPUT CARD>  10     0.201961       0.008591                                                
 INPUT CARD>  11     0.108698       -0.002188                                               
 INPUT CARD>  12     0.053619       0.000677                                                
 INPUT CARD>  13     0.025823       -0.000144                                               
 INPUT CARD>S    13                                                                         
 INPUT CARD>  1     84.322332      -0.000162                                                
 INPUT CARD>  2     44.203528      0.002921                                                 
 INPUT CARD>  3     23.288963      -0.025466                                                
 INPUT CARD>  4     13.385163      0.031182                                                 
 INPUT CARD>  5      7.518052      0.086849                                                 
 INPUT CARD>  6      4.101835      0.006846                                                 
  125000000 WORDS OF MEMORY AVAILABLE


     RUN TITLE
     ---------
                                                                                 

 THE POINT GROUP OF THE MOLECULE IS C1      
 THE ORDER OF THE PRINCIPAL AXIS IS     0
 *** WARNING! ATOM   1 SHELL    1 TYPE S HAS NORMALIZATION   1.00000127
 *** WARNING! ATOM   1 SHELL    3 TYPE S HAS NORMALIZATION   1.00000536

 ATOM      ATOMIC                      COORDINATES (BOHR)
           CHARGE         X                   Y                   Z
 FE         26.0     0.0000000000        0.0000000000        0.0000000000

          INTERNUCLEAR DISTANCES (ANGS.)
          ------------------------------

                1 FE    

   1 FE      0.0000000  

  * ... LESS THAN  3.000


     ATOMIC BASIS SET
     ----------------
 THE CONTRACTED PRIMITIVE FUNCTIONS HAVE BEEN UNNORMALIZED
 THE CONTRACTED BASIS FUNCTIONS ARE NOW NORMALIZED TO UNITY

  SHELL TYPE  PRIMITIVE        EXPONENT          CONTRACTION COEFFICIENT(S)

 FE        

      1   S       1            84.3223320    0.000785000994
      1   S       2            44.2035280   -0.012781016184
      1   S       3            23.2889630    0.104635132497
      1   S       4            13.3851630   -0.119385151175
      1   S       5             7.5180520   -0.339804430286
      1   S       6             4.1018350   -0.049994063306
      1   S       7             2.2535710    0.476955603958
      1   S       8             1.1349240    0.593222751184
      1   S       9             0.5615500    0.200151253447
      1   S      10             0.2019610    0.008591010879
      1   S      11             0.1086980   -0.002188002771
      1   S      12             0.0536190    0.000677000857
      1   S      13             0.0258230   -0.000144000182

      2   S      14            84.3223320   -0.000161999994
      2   S      15            44.2035280    0.002920999892
      2   S      16            23.2889630   -0.025465999056
      2   S      17            13.3851630    0.031181998844
      2   S      18             7.5180520    0.086848996779
      2   S      19             4.1018350    0.006845999746
      2   S      20             2.2535710   -0.131855995111
      2   S      21             1.1349240   -0.227745991555
      2   S      22             0.5615500   -0.173078993582
      2   S      23             0.2019610    0.136141994952
      2   S      24             0.1086980    0.434012983906
      2   S      25             0.0536190    0.477554982291
      2   S      26             0.0258230    0.128803995224

      3   S      27            84.3223320    0.000002000011
      3   S      28            44.2035280    0.004103022006
      3   S      29            23.2889630   -0.046840251225
      3   S      30            13.3851630    0.052833283369
      3   S      31             7.5180520    0.218095169742
      3   S      32             4.1018350   -0.044999241351
      3   S      33             2.2535710   -0.287387541388
      3   S      34             1.1349240   -0.713223825340
      3   S      35             0.5615500    0.249175336439
      3   S      36             0.2019610    1.299878971835
      3   S      37             0.1086980    0.192120030426
      3   S      38             0.0536190   -0.658619532472
      3   S      39             0.0258230   -0.521049794624

      4   S      40            84.3223320    0.000012000006
      4   S      41            44.2035280    0.007598003966
      4   S      42            23.2889630   -0.094133049133
      4   S      43            13.3851630    0.127655066630
      4   S      44             7.5180520    0.435598227363
      4   S      45             4.1018350   -0.147911077203
      4   S      46             2.2535710   -1.084477566050
      4   S      47             1.1349240   -0.887003462977
      4   S      48             0.5615500    2.449947278766
      4   S      49             0.2019610    0.167976087676
      4   S      50             0.1086980   -2.114669103766
      4   S      51             0.0536190    0.452579236227
      4   S      52             0.0258230    0.801444418319

      5   S      53            84.3223320    0.003301000752
      5   S      54            44.2035280   -0.029197006652
      5   S      55            23.2889630    0.213227048580
      5   S      56            13.3851630   -0.408109092980
      5   S      57             7.5180520   -0.385651087863
      5   S      58             4.1018350    0.168093038297
      5   S      59             2.2535710    3.102529706854
      5   S      60             1.1349240   -3.360446765615
      5   S      61             0.5615500   -0.531619121120
      5   S      62             0.2019610    4.493982023870
      5   S      63             0.1086980   -3.689750840641
      5   S      64             0.0536190   -0.510604116332
      5   S      65             0.0258230    1.301021296413

      6   S      66             0.0258230    1.000000000000

      7   S      67             0.0120000    1.000000000000

      8   P      68           125.0927750    0.000055999974
      8   P      69            65.2115890   -0.000571999734
      8   P      70            34.4375990    0.007387996568
      8   P      71            18.9307040   -0.028480986770
      8   P      72            10.8734150   -0.063004970733
      8   P      73             6.0121720    0.024854988454
      8   P      74             3.3722050    0.277473871106
      8   P      75             1.7686410    0.425385802398
      8   P      76             0.9145160    0.314144854072
      8   P      77             0.4608950    0.090421957997
      8   P      78             0.2044900    0.006976996759
      8   P      79             0.0747410    0.001153999464
      8   P      80             0.0356710    0.000302999859

      9   P      81           125.0927750    0.000024999983
      9   P      82            65.2115890   -0.000069999952
      9   P      83            34.4375990   -0.001041999280
      9   P      84            18.9307040    0.005126996459
      9   P      85            10.8734150    0.018403987289
      9   P      86             6.0121720   -0.014691989852
      9   P      87             3.3722050   -0.061306957656
      9   P      88             1.7686410   -0.128637911151
      9   P      89             0.9145160   -0.070636951212
      9   P      90             0.4608950   -0.016313988732
      9   P      91             0.2044900    0.380701737054
      9   P      92             0.0747410    0.523070638722
      9   P      93             0.0356710    0.235764837160

     10   P      94           125.0927750   -0.000196999919
     10   P      95            65.2115890    0.001250999486
     10   P      96            34.4375990   -0.009153996241
     10   P      97            18.9307040    0.038200984312
     10   P      98            10.8734150    0.043096982302
     10   P      99             6.0121720   -0.029474987896
     10   P     100             3.3722050   -0.426995824649
     10   P     101             1.7686410   -0.394839837854
     10   P     102             0.9145160    0.077229968285
     10   P     103             0.4608950    1.119880540107
     10   P     104             0.2044900   -0.066493972693
     10   P     105             0.0747410   -0.721582703673
     10   P     106             0.0356710   -0.005694997661

     11   P     107           125.0927750    0.000263999846
     11   P     108            65.2115890   -0.001075999372
     11   P     109            34.4375990   -0.002590998487
     11   P     110            18.9307040    0.035518979254
     11   P     111            10.8734150    0.119553930170
     11   P     112             6.0121720   -0.204713880428
     11   P     113             3.3722050   -0.760626555725
     11   P     114             1.7686410   -0.262739846536
     11   P     115             0.9145160    1.779028960885
     11   P     116             0.4608950   -0.462741729717
     11   P     117             0.2044900   -1.241029275126
     11   P     118             0.0747410    0.940986450378
     11   P     119             0.0356710    0.083495951231

     12   P     120           125.0927750   -0.000083999994
     12   P     121            65.2115890    0.000767999942
     12   P     122            34.4375990   -0.009484999281
     12   P     123            18.9307040    0.088061993322
     12   P     124            10.8734150    0.156190988156
     12   P     125             6.0121720   -0.619165953048
     12   P     126             3.3722050   -1.385533894935
     12   P     127             1.7686410    2.492124811021
     12   P     128             0.9145160    0.008075999388
     12   P     129             0.4608950   -2.499514810461
     12   P     130             0.2044900    2.265575828201
     12   P     131             0.0747410   -0.748341943253
     12   P     132             0.0356710   -0.211597983954

     13   P     133           125.0927750   -0.002544000178
     13   P     134            65.2115890    0.013040000914
     13   P     135            34.4375990   -0.039444002766
     13   P     136            18.9307040   -0.024594001725
     13   P     137            10.8734150   -0.521571036575
     13   P     138             6.0121720    2.739993192144
     13   P     139             3.3722050   -1.742649122204
     13   P     140             1.7686410   -2.844006199437
     13   P     141             0.9145160    5.870826411695
     13   P     142             0.4608950   -4.902306343777
     13   P     143             0.2044900    2.136176149801
     13   P     144             0.0747410   -0.121626008529
     13   P     145             0.0356710   -0.486219034096

     14   P     146             0.0356710    1.000000000000

     15   P     147             0.0170000    1.000000000000

     16   D     148           152.7367420    0.000029000017
     16   D     149            50.7724850    0.005238003073
     16   D     150            26.2535890    0.029325017202
     16   D     151            12.1370220    0.074901043936
     16   D     152             5.8537190    0.163411095855
     16   D     153             2.8562240    0.251057147268
     16   D     154             1.3861320    0.287603168705
     16   D     155             0.6708020    0.251862147740
     16   D     156             0.3302800    0.186736109538
     16   D     157             0.1709070    0.093570054887
     16   D     158             0.0867940    0.073811043297

     17   D     159           152.7367420   -0.000026000007
     17   D     160            50.7724850   -0.006329001603
     17   D     161            26.2535890   -0.034398008711
     17   D     162            12.1370220   -0.091765023239
     17   D     163             5.8537190   -0.201592051053
     17   D     164             2.8562240   -0.283930071905
     17   D     165             1.3861320   -0.161981041021
     17   D     166             0.6708020    0.128822032624
     17   D     167             0.3302800    0.360160091210
     17   D     168             0.1709070    0.277592070300
     17   D     169             0.0867940    0.261403066200

     18   D     170           152.7367420    0.000050999990
     18   D     171            50.7724850    0.008768998302
     18   D     172            26.2535890    0.047920990722
     18   D     173            12.1370220    0.132474974350
     18   D     174             5.8537190    0.297278942441
     18   D     175             2.8562240    0.275017946751
     18   D     176             1.3861320   -0.222841956854
     18   D     177             0.6708020   -0.619066880137
     18   D     178             0.3302800   -0.076289985229
     18   D     179             0.1709070    0.256055950423
     18   D     180             0.0867940    0.541481895159

     19   D     181           152.7367420   -0.000095999986
     19   D     182            50.7724850   -0.012143998168
     19   D     183            26.2535890   -0.066970989898
     19   D     184            12.1370220   -0.196024970430
     19   D     185             5.8537190   -0.469002929253
     19   D     186             2.8562240    0.046559992977
     19   D     187             1.3861320    0.985939851275
     19   D     188             0.6708020   -0.220434966748
     19   D     189             0.3302800   -0.752481886491
     19   D     190             0.1709070   -0.111122983238
     19   D     191             0.0867940    0.753099886398

     20   D     192           152.7367420   -0.000032000005
     20   D     193            50.7724850   -0.016411002468
     20   D     194            26.2535890   -0.081036012188
     20   D     195            12.1370220   -0.292641044015
     20   D     196             5.8537190   -0.575819086606
     20   D     197             2.8562240    1.151156173140
     20   D     198             1.3861320    0.168963025413
     20   D     199             0.6708020   -1.489545224035
     20   D     200             0.3302800    0.741536111531
     20   D     201             0.1709070    0.979279147289
     20   D     202             0.0867940   -1.044905157159

     21   D     203             0.0867940    1.000000000000

     22   D     204             0.0400000    1.000000000000

     23   F     205             0.1157780    1.000000000000

     24   F     206             0.3343670    1.000000000000

     25   F     207             0.9656500    1.000000000000

     26   F     208             2.7887930    1.000000000000

     27   F     209             8.0540200    1.000000000000

     28   G     210             0.2277260    1.000000000000

     29   G     211             0.6734440    1.000000000000

     30   G     212             1.9915500    1.000000000000

     31   G     213             5.8895320    1.000000000000

 TOTAL NUMBER OF BASIS SET SHELLS             =   31
 NUMBER OF CARTESIAN GAUSSIAN BASIS FUNCTIONS =  183
 NOTE: THIS RUN WILL RESTRICT THE MO VARIATION SPACE TO SPHERICAL HARMONICS.
 THE NUMBER OF ORBITALS KEPT IN THE VARIATIONAL SPACE WILL BE PRINTED LATER.
 NUMBER OF ELECTRONS                          =   26
 CHARGE OF MOLECULE                           =    0
 SPIN MULTIPLICITY                            =    5
 NUMBER OF OCCUPIED ORBITALS (ALPHA)          =   15
 NUMBER OF OCCUPIED ORBITALS (BETA )          =   11
 TOTAL NUMBER OF ATOMS                        =    1
 THE NUCLEAR REPULSION ENERGY IS        0.0000000000
 NOTE THIS RUN IS USING CORE POTENTIALS, AND THE NUMBER OF ELECTRONS,
 OCCUPIED ORBITALS, AND NUCLEAR REPULSION ENERGY WILL BE ADJUSTED BELOW
 AFTER REMOVAL OF THE CORE CHARGES.

 THIS MOLECULE IS RECOGNIZED AS BEING LINEAR,
 ORBITAL LZ DEGENERACY TOLERANCE ETOLLZ= 1.00E-06

     $CONTRL OPTIONS
     ---------------
 SCFTYP=ROHF         RUNTYP=ENERGY       EXETYP=RUN     
 MPLEVL=       0     CITYP =NONE         CCTYP =NONE         VBTYP =NONE    
 DFTTYP=NONE         TDDFT =NONE    
 MULT  =       5     ICHARG=       0     NZVAR =       0     COORD =UNIQUE  
 PP    =READ         RELWFN=NONE         LOCAL =NONE         NUMGRD=       F
 ISPHER=       1     NOSYM =       0     MAXIT =     150     UNITS =ANGS    
 PLTORB=       F     MOLPLT=       F     AIMPAC=       F     FRIEND=        
 NPRINT=       7     IREST =       0     GEOM  =INPUT   
 NORMF =       0     NORMP =       0     ITOL  =      20     ICUT  =       9
 INTTYP=BEST         GRDTYP=BEST         QMTTOL= 1.0E-06

     $SYSTEM OPTIONS
     ---------------
  REPLICATED MEMORY=   125000000 WORDS (ON EVERY NODE).
 DISTRIBUTED MEMDDI=           0 MILLION WORDS IN AGGREGATE,
 MEMDDI DISTRIBUTED OVER   1 PROCESSORS IS           0 WORDS/PROCESSOR.
 TOTAL MEMORY REQUESTED ON EACH PROCESSOR=   125000000 WORDS.
 TIMLIM=      525600.00 MINUTES, OR     365.0 DAYS.
 PARALL= F  BALTYP=  DLB     KDIAG=    3  COREFL= F
 MXSEQ2=     300 MXSEQ3=     150  mem10=         0

          --------------
          ECP POTENTIALS
          --------------

 PARAMETERS FOR "FE-CCECP" ON ATOM    1 WITH ZCORE  10 AND LMAX  2 ARE
 FOR L= 2      COEFF    N           ZETA
    1       16.00000    1       23.22092
    2      371.53467    3       23.54715
    3     -181.22603    2       23.47256
    4       -2.37305    2        9.85239
 FOR L= 0      COEFF    N           ZETA
    1      277.50033    2       22.21063
    2       46.20496    2        9.51516
 FOR L= 1      COEFF    N           ZETA
    1      194.99875    2       24.57001
    2       31.67945    2        8.86649

 THE ECP RUN REMOVES   10 CORE ELECTRONS, AND THE SAME NUMBER OF PROTONS.
 NUMBER OF ELECTRONS KEPT IN THE CALCULATION IS =   16
 NUMBER OF OCCUPIED ORBITALS (ALPHA) KEPT IS    =   10
 NUMBER OF OCCUPIED ORBITALS (BETA ) KEPT IS    =    6
 THE ADJUSTED NUCLEAR REPULSION ENERGY=        0.0000000000
          ECP ANGULAR INTS.........     0.01 SECONDS

          ----------------
          PROPERTIES INPUT
          ----------------

     MOMENTS            FIELD           POTENTIAL          DENSITY
 IEMOM =       1   IEFLD =       0   IEPOT =       0   IEDEN =       0
 WHERE =COMASS     WHERE =NUCLEI     WHERE =NUCLEI     WHERE =NUCLEI  
 OUTPUT=BOTH       OUTPUT=BOTH       OUTPUT=BOTH       OUTPUT=BOTH    
 IEMINT=       0   IEFINT=       0                     IEDINT=       0
                                                       MORB  =       0
          EXTRAPOLATION IN EFFECT
          SOSCF IN EFFECT
 ORBITAL PRINTING OPTION: NPREO=     1   183     2     1

     -------------------------------
     INTEGRAL TRANSFORMATION OPTIONS
     -------------------------------
     NWORD  =            0
     CUTOFF = 1.0E-09     MPTRAN =       0
     DIRTRF =       F     AOINTS =DUP     

          ----------------------
          INTEGRAL INPUT OPTIONS
          ----------------------
 NOPK  =       1 NORDER=       0 SCHWRZ=       F

     ------------------------------------------
     THE POINT GROUP IS C1 , NAXIS= 0, ORDER= 1
     ------------------------------------------

 -- VARIATIONAL SPACE WILL BE RESTRICTED TO PURE SPHERICAL HARMONICS ONLY --
 AFTER EXCLUDING CONTAMINANT COMBINATIONS FROM THE CARTESIAN GAUSSIAN BASIS
 SET, THE NUMBER OF SPHERICAL HARMONICS KEPT IN THE VARIATION SPACE IS  137

     DIMENSIONS OF THE SYMMETRY SUBSPACES ARE
 A   =  137

 ..... DONE SETTING UP THE RUN .....
 STEP CPU TIME =     0.13 TOTAL CPU TIME =        0.1 (    0.0 MIN)
 TOTAL WALL CLOCK TIME=        0.1 SECONDS, CPU UTILIZATION IS  86.67%

          ********************
          1 ELECTRON INTEGRALS
          ********************
 TIME TO DO ORDINARY INTEGRALS=      0.02
 TIME TO DO      ECP INTEGRALS=      0.01
 ...... END OF ONE-ELECTRON INTEGRALS ......
 STEP CPU TIME =     0.03 TOTAL CPU TIME =        0.2 (    0.0 MIN)
 TOTAL WALL CLOCK TIME=        0.2 SECONDS, CPU UTILIZATION IS  94.12%

          -------------
          GUESS OPTIONS
          -------------
          GUESS =MOREAD            NORB  =      37          NORDER=       1
          MIX   =       F          PRTMO =       F          PUNMO =       F
          TOLZ  = 1.0E-08          TOLE  = 1.0E-05
          SYMDEN=       F          PURIFY=       F

 INITIAL GUESS ORBITALS GENERATED BY MOREAD   ROUTINE.

 STATISTICS FOR GENERATION OF SYMMETRY ORBITAL -Q- MATRIX
 NUMBER OF CARTESIAN ATOMIC ORBITALS=        183
 NUMBER OF SPHERICAL CONTAMINANTS DROPPED=    46
 NUMBER OF LINEARLY DEPENDENT MOS DROPPED=     0
 TOTAL NUMBER OF MOS IN VARIATION SPACE=     137

 SYMMETRIES FOR INITIAL GUESS ORBITALS FOLLOW.  ALPHA SET(S).
    10 ORBITALS ARE OCCUPIED (    4 CORE ORBITALS).
     5=A        6=A        7=A        8=A        9=A       10=A       11=A   
    12=A       13=A       14=A       15=A       16=A       17=A       18=A   
    19=A       20=A   

 SYMMETRIES FOR INITIAL GUESS ORBITALS FOLLOW.   BETA SET(S).
     6 ORBITALS ARE OCCUPIED (    4 CORE ORBITALS).
     5=A        6=A        7=A        8=A        9=A       10=A       11=A   
    12=A       13=A       14=A       15=A       16=A   
 ...... END OF INITIAL ORBITAL SELECTION ......
 STEP CPU TIME =     0.03 TOTAL CPU TIME =        0.2 (    0.0 MIN)
 TOTAL WALL CLOCK TIME=        0.2 SECONDS, CPU UTILIZATION IS 100.00%

                    ----------------------
                    AO INTEGRAL TECHNOLOGY
                    ----------------------
     S,P,L SHELL ROTATED AXIS INTEGRALS, REPROGRAMMED BY
        KAZUYA ISHIMURA (IMS) AND JOSE SIERRA (SYNSTAR).
     S,P,D,L SHELL ROTATED AXIS INTEGRALS PROGRAMMED BY
        KAZUYA ISHIMURA (INSTITUTE FOR MOLECULAR SCIENCE).
     S,P,D,F,G SHELL TO TOTAL QUARTET ANGULAR MOMENTUM SUM 5,
        ERIC PROGRAM BY GRAHAM FLETCHER (ELORET AND NASA ADVANCED
        SUPERCOMPUTING DIVISION, AMES RESEARCH CENTER).
     S,P,D,F,G,L SHELL GENERAL RYS QUADRATURE PROGRAMMED BY
        MICHEL DUPUIS (PACIFIC NORTHWEST NATIONAL LABORATORY).

          --------------------
          2 ELECTRON INTEGRALS
          --------------------

 THE -PK- OPTION IS OFF, THE INTEGRALS ARE NOT IN SUPERMATRIX FORM.
 STORING   15000 INTEGRALS/RECORD ON DISK, USING 12 BYTES/INTEGRAL.
 TWO ELECTRON INTEGRAL EVALUATION REQUIRES  140221 WORDS OF MEMORY.
 II,JST,KST,LST =  1  1  1  1 NREC =         1 INTLOC =    1
 II,JST,KST,LST =  2  1  1  1 NREC =         1 INTLOC =    2
 II,JST,KST,LST =  3  1  1  1 NREC =         1 INTLOC =    7
 II,JST,KST,LST =  4  1  1  1 NREC =         1 INTLOC =   22
 II,JST,KST,LST =  5  1  1  1 NREC =         1 INTLOC =   56
 II,JST,KST,LST =  6  1  1  1 NREC =         1 INTLOC =  121
 II,JST,KST,LST =  7  1  1  1 NREC =         1 INTLOC =  232
 II,JST,KST,LST =  8  1  1  1 NREC =         1 INTLOC =  407
 II,JST,KST,LST =  9  1  1  1 NREC =         1 INTLOC =  584
 II,JST,KST,LST = 10  1  1  1 NREC =         1 INTLOC = 1049
 II,JST,KST,LST = 11  1  1  1 NREC =         1 INTLOC = 1910
 II,JST,KST,LST = 12  1  1  1 NREC =         1 INTLOC = 3338
 II,JST,KST,LST = 13  1  1  1 NREC =         1 INTLOC = 5567
 II,JST,KST,LST = 14  1  1  1 NREC =         1 INTLOC = 8894
 II,JST,KST,LST = 15  1  1  1 NREC =         1 INTLOC =13679
 II,JST,KST,LST = 16  1  1  1 NREC =         2 INTLOC = 5345
 II,JST,KST,LST = 17  1  1  1 NREC =         3 INTLOC = 6680
 II,JST,KST,LST = 18  1  1  1 NREC =         5 INTLOC = 4256
 II,JST,KST,LST = 19  1  1  1 NREC =         8 INTLOC =  953
 II,JST,KST,LST = 20  1  1  1 NREC =        12 INTLOC =  659
 II,JST,KST,LST = 21  1  1  1 NREC =        17 INTLOC = 8270
 II,JST,KST,LST = 22  1  1  1 NREC =        24 INTLOC =14690
 II,JST,KST,LST = 23  1  1  1 NREC =        34 INTLOC =11831
 II,JST,KST,LST = 24  1  1  1 NREC =        55 INTLOC = 5780
 II,JST,KST,LST = 25  1  1  1 NREC =        85 INTLOC = 3416
 II,JST,KST,LST = 26  1  1  1 NREC =       126 INTLOC = 4607
 II,JST,KST,LST = 27  1  1  1 NREC =       181 INTLOC = 1757
 II,JST,KST,LST = 28  1  1  1 NREC =       252 INTLOC = 9680
 II,JST,KST,LST = 29  1  1  1 NREC =       396 INTLOC =  506
 II,JST,KST,LST = 30  1  1  1 NREC =       594 INTLOC =10436
 II,JST,KST,LST = 31  1  1  1 NREC =       860 INTLOC =13172
 TOTAL NUMBER OF NONZERO TWO-ELECTRON INTEGRALS =            18125527
       1209 INTEGRAL RECORDS WERE STORED ON DISK FILE  8.
  ...... END OF TWO-ELECTRON INTEGRALS .....
 STEP CPU TIME =   486.00 TOTAL CPU TIME =      486.2 (    8.1 MIN)
 TOTAL WALL CLOCK TIME=      486.6 SECONDS, CPU UTILIZATION IS  99.91%

          ---------------------------
                 ROHF SCF CALCULATION
          ---------------------------

     NUCLEAR ENERGY =         0.0000000000
     MAXIT =150     NPUNCH=  2     MULT=  5
     EXTRAP=T  DAMP=F  SHIFT=F  RSTRCT=F  DIIS=F  SOSCF=T
     DENSITY MATRIX CONV=  1.00E-05
     ROHF CANONICALIZATION PARAMETERS
             C-C     O-O     V-V
     ALPHA -0.5000  0.5000  1.5000
     BETA   1.5000  0.5000 -0.5000
     SOSCF WILL OPTIMIZE    1294 ORBITAL ROTATION ANGLES. SOGTOL= 2.500E-01
     MEMORY REQUIRED FOR UHF/ROHF ITERS=    341378 WORDS.

 ITER EX      TOTAL ENERGY        E CHANGE  DENSITY CHANGE    ORB. GRAD 
   1  0     -122.6197545528  -122.6197545528   0.306950912   0.000000000
          ---------------START SECOND ORDER SCF---------------
   2  1     -122.6376396237    -0.0178850708   0.155232441   0.030887255
   3  2     -122.6206250553     0.0170145684   0.149596629   0.052690885
   4  3     -122.6458155547    -0.0251904995   0.181261682   0.016511683
   5  4     -122.6393149801     0.0065005746   0.207148213   0.040440428
   6  5     -122.6463596712    -0.0070446911   0.202112318   0.019938319
   7  6     -122.6395063649     0.0068533063   0.138351764   0.037422155
   8  7     -122.6472087859    -0.0077024211   0.032878551   0.003777986
   9  8     -122.6467139759     0.0004948100   0.024043760   0.009218345
  10  9     -122.6473052991    -0.0005913232   0.003520936   0.000318828
  11 10     -122.6473041008     0.0000011984   0.002211810   0.000844451
  12 11     -122.6473056927    -0.0000015919   0.000952457   0.000050886
  13 12     -122.6473056884     0.0000000043   0.000475824   0.000063307
  14 13     -122.6473057122    -0.0000000238   0.000045119   0.000003553
  15 14     -122.6473057122    -0.0000000000   0.000021373   0.000004409
  16 15     -122.6473057122    -0.0000000001   0.000005447   0.000000528
  17 16     -122.6473057122    -0.0000000000   0.000002741   0.000000398

          -----------------
          DENSITY CONVERGED
          -----------------
     TIME TO FORM FOCK OPERATORS=       4.7 SECONDS (       0.3 SEC/ITER)
     TIME TO SOLVE SCF EQUATIONS=       0.1 SECONDS (       0.0 SEC/ITER)

 FINAL ROHF ENERGY IS     -122.6473057122 AFTER  17 ITERATIONS

          --------------------
          SPIN SZ   =    2.000
          S-SQUARED =    6.000
          --------------------

 LZ VALUE ANALYSIS FOR THE MOS
 ----------------------------------------
 MO     1 (    1) HAS LZ(WEIGHT)= 0.00(100.0%) 
 MO     2 (    2) HAS LZ(WEIGHT)=-1.00( 50.0%)  1.00( 50.0%) 
 MO     3 (    2) HAS LZ(WEIGHT)=-1.00( 50.0%)  1.00( 50.0%) 
 MO     4 (    3) HAS LZ(WEIGHT)= 0.00(100.0%) 
 MO     5 (    4) HAS LZ(WEIGHT)= 0.00(100.0%) 
 MO     6 (    5) HAS LZ(WEIGHT)= 0.00(100.0%) 
 MO     7 (    6) HAS LZ(WEIGHT)= 0.00(100.0%) 
 MO     8 (    7) HAS LZ(WEIGHT)=-1.00( 50.0%)  1.00( 50.0%) 
 MO     9 (    7) HAS LZ(WEIGHT)=-1.00( 50.0%)  1.00( 50.0%) 
 MO    10 (    8) HAS LZ(WEIGHT)= 0.00(100.0%) 
 MO    11 (    9) HAS LZ(WEIGHT)= 0.00(100.0%) 
 MO    12 (   10) HAS LZ(WEIGHT)=-1.00( 50.0%)  1.00( 50.0%) 
 MO    13 (   10) HAS LZ(WEIGHT)=-1.00( 50.0%)  1.00( 50.0%) 
 MO    14 (   11) HAS LZ(WEIGHT)= 0.00(100.0%) 
 MO    15 (   12) HAS LZ(WEIGHT)= 0.00(100.0%) 
 MO    16 (   13) HAS LZ(WEIGHT)=-1.00( 50.0%)  1.00( 50.0%) 
 MO    17 (   13) HAS LZ(WEIGHT)=-1.00( 50.0%)  1.00( 50.0%) 
 MO    18 (   14) HAS LZ(WEIGHT)= 0.00(100.0%) 
 MO    19 (   15) HAS LZ(WEIGHT)=-1.00( 50.0%)  1.00( 50.0%) 
 MO    20 (   15) HAS LZ(WEIGHT)=-1.00( 50.0%)  1.00( 50.0%) 
 MO    21 (   16) HAS LZ(WEIGHT)= 0.00(100.0%) 
 MO    22 (   17) HAS LZ(WEIGHT)= 0.00(100.0%) 
 MO    23 (   18) HAS LZ(WEIGHT)= 0.00(100.0%) 
 MO    24 (   19) HAS LZ(WEIGHT)= 0.00(100.0%) 
 MO    25 (   20) HAS LZ(WEIGHT)=-1.00( 50.0%)  1.00( 50.0%) 
 MO    26 (   20) HAS LZ(WEIGHT)=-1.00( 50.0%)  1.00( 50.0%) 
 MO    27 (   21) HAS LZ(WEIGHT)= 0.00(100.0%) 
 MO    28 (   22) HAS LZ(WEIGHT)=-1.00( 50.0%)  1.00( 50.0%) 
 MO    29 (   22) HAS LZ(WEIGHT)=-1.00( 50.0%)  1.00( 50.0%) 
 MO    30 (   23) HAS LZ(WEIGHT)= 0.00(100.0%) 
 MO    31 (   24) HAS LZ(WEIGHT)= 0.00(100.0%) 
 MO    32 (   25) HAS LZ(WEIGHT)= 0.00(100.0%) 
 MO    33 (   26) HAS LZ(WEIGHT)=-0.92( 50.0%)  0.92( 50.0%) 
 MO    34 (   26) HAS LZ(WEIGHT)=-0.92( 50.0%)  0.92( 50.0%) 
 MO    35 (   27) HAS LZ(WEIGHT)= 0.00(100.0%) 
 MO    36 (   28) HAS LZ(WEIGHT)= 0.00(100.0%) 
 MO    37 (   29) HAS LZ(WEIGHT)=-2.92( 50.0%)  2.92( 50.0%) 
 MO    38 (   29) HAS LZ(WEIGHT)=-2.92( 50.0%)  2.92( 50.0%) 
 MO    39 (   30) HAS LZ(WEIGHT)= 0.00(100.0%) 
 MO    40 (   31) HAS LZ(WEIGHT)=-1.00( 50.0%)  1.00( 50.0%) 
 MO    41 (   31) HAS LZ(WEIGHT)=-1.00( 50.0%)  1.00( 50.0%) 
 MO    42 (   32) HAS LZ(WEIGHT)= 0.00(100.0%) 
 MO    43 (   33) HAS LZ(WEIGHT)=-1.00( 50.0%)  1.00( 50.0%) 
 MO    44 (   33) HAS LZ(WEIGHT)=-1.00( 50.0%)  1.00( 50.0%) 
 MO    45 (   34) HAS LZ(WEIGHT)= 0.00(100.0%) 
 MO    46 (   35) HAS LZ(WEIGHT)= 0.00(100.0%) 
 MO    47 (   36) HAS LZ(WEIGHT)= 0.00(100.0%) 
 MO    48 (   37) HAS LZ(WEIGHT)= 0.00(100.0%) 
 MO    49 (   38) HAS LZ(WEIGHT)=-0.72( 50.0%)  0.72( 50.0%) 
 MO    50 (   38) HAS LZ(WEIGHT)=-0.72( 50.0%)  0.72( 50.0%) 
 MO    51 (   39) HAS LZ(WEIGHT)= 0.00(100.0%) 
 MO    52 (   40) HAS LZ(WEIGHT)= 0.00(100.0%) 
 MO    53 (   41) HAS LZ(WEIGHT)=-2.72( 50.0%)  2.72( 50.0%) 
 MO    54 (   41) HAS LZ(WEIGHT)=-2.72( 50.0%)  2.72( 50.0%) 
 MO    55 (   42) HAS LZ(WEIGHT)= 0.00(100.0%) 
 MO    56 (   43) HAS LZ(WEIGHT)= 0.00(100.0%) 
 MO    57 (   44) HAS LZ(WEIGHT)= 0.00(100.0%) 
 MO    58 (   45) HAS LZ(WEIGHT)=-0.82( 50.0%)  0.82( 50.0%) 
 MO    59 (   45) HAS LZ(WEIGHT)=-0.82( 50.0%)  0.82( 50.0%) 
 MO    60 (   46) HAS LZ(WEIGHT)= 0.00(100.0%) 
 MO    61 (   47) HAS LZ(WEIGHT)= 0.00(100.0%) 
 MO    62 (   48) HAS LZ(WEIGHT)=-2.82( 50.0%)  2.82( 50.0%) 
 MO    63 (   48) HAS LZ(WEIGHT)=-2.82( 50.0%)  2.82( 50.0%) 
 MO    64 (   49) HAS LZ(WEIGHT)= 0.00(100.0%) 
 MO    65 (   50) HAS LZ(WEIGHT)=-1.00( 50.0%)  1.00( 50.0%) 
 MO    66 (   50) HAS LZ(WEIGHT)=-1.00( 50.0%)  1.00( 50.0%) 
 MO    67 (   51) HAS LZ(WEIGHT)= 0.00(100.0%) 
 MO    68 (   52) HAS LZ(WEIGHT)=-1.00( 50.0%)  1.00( 50.0%) 
 MO    69 (   52) HAS LZ(WEIGHT)=-1.00( 50.0%)  1.00( 50.0%) 
 MO    70 (   53) HAS LZ(WEIGHT)= 0.00(100.0%) 
 MO    71 (   54) HAS LZ(WEIGHT)= 0.00(100.0%) 
 MO    72 (   55) HAS LZ(WEIGHT)= 0.00(100.0%) 
 MO    73 (   56) HAS LZ(WEIGHT)= 0.00(100.0%) 
 MO    74 (   57) HAS LZ(WEIGHT)=-0.54( 50.0%)  0.54( 50.0%) 
 MO    75 (   57) HAS LZ(WEIGHT)=-0.54( 50.0%)  0.54( 50.0%) 
 MO    76 (   58) HAS LZ(WEIGHT)= 0.00(100.0%) 
 MO    77 (   59) HAS LZ(WEIGHT)= 0.00(100.0%) 
 MO    78 (   60) HAS LZ(WEIGHT)=-2.54( 50.0%)  2.54( 50.0%) 
 MO    79 (   60) HAS LZ(WEIGHT)=-2.54( 50.0%)  2.54( 50.0%) 
 MO    80 (   61) HAS LZ(WEIGHT)= 0.00(100.0%) 
 MO    81 (   62) HAS LZ(WEIGHT)= 0.00(100.0%) 
 MO    82 (   63) HAS LZ(WEIGHT)= 0.00(100.0%) 
 MO    83 (   64) HAS LZ(WEIGHT)=-0.79( 50.0%)  0.79( 50.0%) 
 MO    84 (   64) HAS LZ(WEIGHT)=-0.79( 50.0%)  0.79( 50.0%) 
 MO    85 (   65) HAS LZ(WEIGHT)= 0.00(100.0%) 
 MO    86 (   66) HAS LZ(WEIGHT)= 0.00(100.0%) 
 MO    87 (   67) HAS LZ(WEIGHT)=-2.79( 50.0%)  2.79( 50.0%) 
 MO    88 (   67) HAS LZ(WEIGHT)=-2.79( 50.0%)  2.79( 50.0%) 
 MO    89 (   68) HAS LZ(WEIGHT)= 0.00(100.0%) 
 MO    90 (   69) HAS LZ(WEIGHT)=-1.00( 50.0%)  1.00( 50.0%) 
 MO    91 (   69) HAS LZ(WEIGHT)=-1.00( 50.0%)  1.00( 50.0%) 
 MO    92 (   70) HAS LZ(WEIGHT)= 0.00(100.0%) 
 MO    93 (   71) HAS LZ(WEIGHT)=-1.00( 50.0%)  1.00( 50.0%) 
 MO    94 (   71) HAS LZ(WEIGHT)=-1.00( 50.0%)  1.00( 50.0%) 
 MO    95 (   72) HAS LZ(WEIGHT)= 0.00(100.0%) 
 MO    96 (   73) HAS LZ(WEIGHT)= 0.00(100.0%) 
 MO    97 (   74) HAS LZ(WEIGHT)= 0.00(100.0%) 
 MO    98 (   75) HAS LZ(WEIGHT)= 0.00(100.0%) 
 MO    99 (   76) HAS LZ(WEIGHT)=-0.79( 50.0%)  0.79( 50.0%) 
 MO   100 (   76) HAS LZ(WEIGHT)=-0.79( 50.0%)  0.79( 50.0%) 
 MO   101 (   77) HAS LZ(WEIGHT)= 0.00(100.0%) 
 MO   102 (   78) HAS LZ(WEIGHT)= 0.00(100.0%) 
 MO   103 (   79) HAS LZ(WEIGHT)=-2.79( 50.0%)  2.79( 50.0%) 
 MO   104 (   79) HAS LZ(WEIGHT)=-2.79( 50.0%)  2.79( 50.0%) 
 MO   105 (   80) HAS LZ(WEIGHT)= 0.00(100.0%) 
 MO   106 (   81) HAS LZ(WEIGHT)=-0.46( 50.0%)  0.46( 50.0%) 
 MO   107 (   81) HAS LZ(WEIGHT)=-0.46( 50.0%)  0.46( 50.0%) 
 MO   108 (   82) HAS LZ(WEIGHT)= 0.00(100.0%) 
 MO   109 (   83) HAS LZ(WEIGHT)= 0.00(100.0%) 
 MO   110 (   84) HAS LZ(WEIGHT)=-2.46( 50.0%)  2.46( 50.0%) 
 MO   111 (   84) HAS LZ(WEIGHT)=-2.46( 50.0%)  2.46( 50.0%) 
 MO   112 (   85) HAS LZ(WEIGHT)= 0.00(100.0%) 
 MO   113 (   86) HAS LZ(WEIGHT)= 0.00(100.0%) 
 MO   114 (   87) HAS LZ(WEIGHT)= 0.00(100.0%) 
 MO   115 (   88) HAS LZ(WEIGHT)=-1.00( 50.0%)  1.00( 50.0%) 
 MO   116 (   88) HAS LZ(WEIGHT)=-1.00( 50.0%)  1.00( 50.0%) 
 MO   117 (   89) HAS LZ(WEIGHT)= 0.00(100.0%) 
 MO   118 (   90) HAS LZ(WEIGHT)= 0.00(100.0%) 
 MO   119 (   91) HAS LZ(WEIGHT)= 0.00(100.0%) 
 MO   120 (   92) HAS LZ(WEIGHT)=-1.00( 50.0%)  1.00( 50.0%) 
 MO   121 (   92) HAS LZ(WEIGHT)=-1.00( 50.0%)  1.00( 50.0%) 
 MO   122 (   93) HAS LZ(WEIGHT)= 0.00(100.0%) 
 MO   123 (   94) HAS LZ(WEIGHT)=-0.81( 50.0%)  0.81( 50.0%) 
 MO   124 (   94) HAS LZ(WEIGHT)=-0.81( 50.0%)  0.81( 50.0%) 
 MO   125 (   95) HAS LZ(WEIGHT)= 0.00(100.0%) 
 MO   126 (   96) HAS LZ(WEIGHT)= 0.00(100.0%) 
 MO   127 (   97) HAS LZ(WEIGHT)=-2.81( 50.0%)  2.81( 50.0%) 
 MO   128 (   97) HAS LZ(WEIGHT)=-2.81( 50.0%)  2.81( 50.0%) 
 MO   129 (   98) HAS LZ(WEIGHT)= 0.00(100.0%) 
 MO   130 (   99) HAS LZ(WEIGHT)=-0.48( 50.0%)  0.48( 50.0%) 
 MO   131 (   99) HAS LZ(WEIGHT)=-0.48( 50.0%)  0.48( 50.0%) 
 MO   132 (  100) HAS LZ(WEIGHT)= 0.00(100.0%) 
 MO   133 (  101) HAS LZ(WEIGHT)= 0.00(100.0%) 
 MO   134 (  102) HAS LZ(WEIGHT)=-2.48( 50.0%)  2.48( 50.0%) 
 MO   135 (  102) HAS LZ(WEIGHT)=-2.48( 50.0%)  2.48( 50.0%) 
 MO   136 (  103) HAS LZ(WEIGHT)= 0.00(100.0%) 
 MO   137 (  104) HAS LZ(WEIGHT)= 0.00(100.0%) 

          ------------
          EIGENVECTORS
          ------------

                      1          2          3          4          5
                   -3.9036    -2.3582    -2.3582    -2.2223    -0.4151
                     A          A          A          A          A   
    1  FE 1  S    0.999990   0.000000   0.000000  -0.000000  -0.000000
    2  FE 1  S    0.002740   0.000000   0.000000  -0.000000  -0.000000
    3  FE 1  S   -0.000009   0.000000   0.000000  -0.000000  -0.000000
    4  FE 1  S   -0.000023   0.000000   0.000000  -0.000000  -0.000000
    5  FE 1  S   -0.000011   0.000000   0.000000  -0.000000  -0.000000
    6  FE 1  S   -0.000017   0.000000   0.000000  -0.000000  -0.000000
    7  FE 1  S    0.000034   0.000000   0.000000  -0.000000  -0.000000
    8  FE 1  X   -0.000000   0.000000   1.000414  -0.000000  -0.000000
    9  FE 1  Y   -0.000000   1.000414   0.000000  -0.000000  -0.000000
   10  FE 1  Z   -0.000000   0.000000   0.000000   1.000405  -0.000000
   11  FE 1  X   -0.000000   0.000000   0.016325  -0.000000  -0.000000
   12  FE 1  Y   -0.000000   0.016325   0.000000  -0.000000  -0.000000
   13  FE 1  Z   -0.000000   0.000000   0.000000   0.013546  -0.000000
   14  FE 1  X   -0.000000   0.000000   0.014092  -0.000000  -0.000000
   15  FE 1  Y   -0.000000   0.014092   0.000000  -0.000000  -0.000000
   16  FE 1  Z   -0.000000   0.000000   0.000000   0.012205  -0.000000
   17  FE 1  X   -0.000000   0.000000   0.000619  -0.000000  -0.000000
   18  FE 1  Y   -0.000000   0.000619   0.000000  -0.000000  -0.000000
   19  FE 1  Z   -0.000000   0.000000   0.000000   0.001201  -0.000000
   20  FE 1  X   -0.000000   0.000000  -0.000995  -0.000000  -0.000000
   21  FE 1  Y   -0.000000  -0.000995   0.000000  -0.000000  -0.000000
   22  FE 1  Z   -0.000000   0.000000   0.000000  -0.000666  -0.000000
   23  FE 1  X   -0.000000   0.000000   0.000109  -0.000000  -0.000000
   24  FE 1  Y   -0.000000   0.000109   0.000000  -0.000000  -0.000000
   25  FE 1  Z   -0.000000   0.000000   0.000000  -0.000092  -0.000000
   26  FE 1  X   -0.000000   0.000000  -0.004472  -0.000000  -0.000000
   27  FE 1  Y   -0.000000  -0.004472   0.000000  -0.000000  -0.000000
   28  FE 1  Z   -0.000000   0.000000   0.000000  -0.004096  -0.000000
   29  FE 1  X   -0.000000   0.000000   0.000078  -0.000000  -0.000000
   30  FE 1  Y   -0.000000   0.000078   0.000000  -0.000000  -0.000000
   31  FE 1  Z   -0.000000   0.000000   0.000000   0.000146  -0.000000
   32  FE 1 XX    0.001254   0.000000   0.000000  -0.000000   0.871037
   33  FE 1 YY    0.001254   0.000000   0.000000  -0.000000  -0.871037
   34  FE 1 ZZ   -0.002507   0.000000   0.000000  -0.000000  -0.000000
   35  FE 1 XY   -0.000000   0.000000   0.000000  -0.000000  -0.000000
   36  FE 1 XZ   -0.000000   0.000000   0.000000  -0.000000  -0.000000
   37  FE 1 YZ   -0.000000   0.000000   0.000000  -0.000000  -0.000000
   38  FE 1 XX    0.001622   0.000000   0.000000  -0.000000  -0.061348
   39  FE 1 YY    0.001622   0.000000   0.000000  -0.000000   0.061348
   40  FE 1 ZZ   -0.003244   0.000000   0.000000  -0.000000  -0.000000
   41  FE 1 XY   -0.000000   0.000000   0.000000  -0.000000  -0.000000
   42  FE 1 XZ   -0.000000   0.000000   0.000000  -0.000000  -0.000000
   43  FE 1 YZ   -0.000000   0.000000   0.000000  -0.000000  -0.000000
   44  FE 1 XX    0.000151   0.000000   0.000000  -0.000000  -0.018651
   45  FE 1 YY    0.000151   0.000000   0.000000  -0.000000   0.018651
   46  FE 1 ZZ   -0.000302   0.000000   0.000000  -0.000000  -0.000000
   47  FE 1 XY   -0.000000   0.000000   0.000000  -0.000000  -0.000000
   48  FE 1 XZ   -0.000000   0.000000   0.000000  -0.000000  -0.000000
   49  FE 1 YZ   -0.000000   0.000000   0.000000  -0.000000  -0.000000
   50  FE 1 XX   -0.000034   0.000000   0.000000  -0.000000  -0.001920
   51  FE 1 YY   -0.000034   0.000000   0.000000  -0.000000   0.001920
   52  FE 1 ZZ    0.000069   0.000000   0.000000  -0.000000  -0.000000
   53  FE 1 XY   -0.000000   0.000000   0.000000  -0.000000  -0.000000
   54  FE 1 XZ   -0.000000   0.000000   0.000000  -0.000000  -0.000000
   55  FE 1 YZ   -0.000000   0.000000   0.000000  -0.000000  -0.000000
   56  FE 1 XX   -0.000351   0.000000   0.000000  -0.000000  -0.000841
   57  FE 1 YY   -0.000351   0.000000   0.000000  -0.000000   0.000841
   58  FE 1 ZZ    0.000702   0.000000   0.000000  -0.000000  -0.000000
   59  FE 1 XY   -0.000000   0.000000   0.000000  -0.000000  -0.000000
   60  FE 1 XZ   -0.000000   0.000000   0.000000  -0.000000  -0.000000
   61  FE 1 YZ   -0.000000   0.000000   0.000000  -0.000000  -0.000000
   62  FE 1 XX   -0.000955   0.000000   0.000000  -0.000000  -0.019754
   63  FE 1 YY   -0.000955   0.000000   0.000000  -0.000000   0.019754
   64  FE 1 ZZ    0.001910   0.000000   0.000000  -0.000000  -0.000000
   65  FE 1 XY   -0.000000   0.000000   0.000000  -0.000000  -0.000000
   66  FE 1 XZ   -0.000000   0.000000   0.000000  -0.000000  -0.000000
   67  FE 1 YZ   -0.000000   0.000000   0.000000  -0.000000  -0.000000
   68  FE 1 XX    0.000013   0.000000   0.000000  -0.000000   0.000044
   69  FE 1 YY    0.000013   0.000000   0.000000  -0.000000  -0.000044
   70  FE 1 ZZ   -0.000027   0.000000   0.000000  -0.000000  -0.000000
   71  FE 1 XY   -0.000000   0.000000   0.000000  -0.000000  -0.000000
   72  FE 1 XZ   -0.000000   0.000000   0.000000  -0.000000  -0.000000
   73  FE 1 YZ   -0.000000   0.000000   0.000000  -0.000000  -0.000000
   74  FE 1 XXX  -0.000000   0.000000   0.000000  -0.000000  -0.000000
   75  FE 1 YYY  -0.000000   0.000000   0.000000  -0.000000  -0.000000
   76  FE 1 ZZZ  -0.000000   0.000000   0.000000   0.000056  -0.000000
   77  FE 1 XXY  -0.000000  -0.000042   0.000000  -0.000000  -0.000000
   78  FE 1 XXZ  -0.000000   0.000000   0.000000  -0.000038  -0.000000
   79  FE 1 YYX  -0.000000   0.000000  -0.000042  -0.000000  -0.000000
   80  FE 1 YYZ  -0.000000   0.000000   0.000000  -0.000038  -0.000000
   81  FE 1 ZZX  -0.000000   0.000000   0.000041  -0.000000  -0.000000
   82  FE 1 ZZY  -0.000000   0.000041   0.000000  -0.000000  -0.000000
   83  FE 1 XYZ  -0.000000   0.000000   0.000000  -0.000000  -0.000000
   84  FE 1 XXX  -0.000000   0.000000   0.001153  -0.000000  -0.000000
   85  FE 1 YYY  -0.000000   0.001153   0.000000  -0.000000  -0.000000
   86  FE 1 ZZZ  -0.000000   0.000000   0.000000  -0.000044  -0.000000
   87  FE 1 XXY  -0.000000  -0.001173   0.000000  -0.000000  -0.000000
   88  FE 1 XXZ  -0.000000   0.000000   0.000000   0.000030  -0.000000
   89  FE 1 YYX  -0.000000   0.000000  -0.001173  -0.000000  -0.000000
   90  FE 1 YYZ  -0.000000   0.000000   0.000000   0.000030  -0.000000
   91  FE 1 ZZX  -0.000000   0.000000  -0.000375  -0.000000  -0.000000
   92  FE 1 ZZY  -0.000000  -0.000375   0.000000  -0.000000  -0.000000
   93  FE 1 XYZ  -0.000000   0.000000   0.000000  -0.000000  -0.000000
   94  FE 1 XXX  -0.000000   0.000000   0.002315  -0.000000  -0.000000
   95  FE 1 YYY  -0.000000   0.002315   0.000000  -0.000000  -0.000000
   96  FE 1 ZZZ  -0.000000   0.000000   0.000000   0.001921  -0.000000
   97  FE 1 XXY  -0.000000  -0.003847   0.000000  -0.000000  -0.000000
   98  FE 1 XXZ  -0.000000   0.000000   0.000000  -0.001289  -0.000000
   99  FE 1 YYX  -0.000000   0.000000  -0.003847  -0.000000  -0.000000
  100  FE 1 YYZ  -0.000000   0.000000   0.000000  -0.001289  -0.000000
  101  FE 1 ZZX  -0.000000   0.000000   0.000741  -0.000000  -0.000000
  102  FE 1 ZZY  -0.000000   0.000741   0.000000  -0.000000  -0.000000
  103  FE 1 XYZ  -0.000000   0.000000   0.000000  -0.000000  -0.000000
  104  FE 1 XXX  -0.000000   0.000000   0.001138  -0.000000  -0.000000
  105  FE 1 YYY  -0.000000   0.001138   0.000000  -0.000000  -0.000000
  106  FE 1 ZZZ  -0.000000   0.000000   0.000000   0.002540  -0.000000
  107  FE 1 XXY  -0.000000  -0.003073   0.000000  -0.000000  -0.000000
  108  FE 1 XXZ  -0.000000   0.000000   0.000000  -0.001704  -0.000000
  109  FE 1 YYX  -0.000000   0.000000  -0.003073  -0.000000  -0.000000
  110  FE 1 YYZ  -0.000000   0.000000   0.000000  -0.001704  -0.000000
  111  FE 1 ZZX  -0.000000   0.000000   0.001547  -0.000000  -0.000000
  112  FE 1 ZZY  -0.000000   0.001547   0.000000  -0.000000  -0.000000
  113  FE 1 XYZ  -0.000000   0.000000   0.000000  -0.000000  -0.000000
  114  FE 1 XXX  -0.000000   0.000000   0.000559  -0.000000  -0.000000
  115  FE 1 YYY  -0.000000   0.000559   0.000000  -0.000000  -0.000000
  116  FE 1 ZZZ  -0.000000   0.000000   0.000000   0.000477  -0.000000
  117  FE 1 XXY  -0.000000  -0.000938   0.000000  -0.000000  -0.000000
  118  FE 1 XXZ  -0.000000   0.000000   0.000000  -0.000320  -0.000000
  119  FE 1 YYX  -0.000000   0.000000  -0.000938  -0.000000  -0.000000
  120  FE 1 YYZ  -0.000000   0.000000   0.000000  -0.000320  -0.000000
  121  FE 1 ZZX  -0.000000   0.000000   0.000188  -0.000000  -0.000000
  122  FE 1 ZZY  -0.000000   0.000188   0.000000  -0.000000  -0.000000
  123  FE 1 XYZ  -0.000000   0.000000   0.000000  -0.000000  -0.000000
  124  FE 1XXXX   0.000003   0.000000   0.000000  -0.000000  -0.000097
  125  FE 1YYYY   0.000003   0.000000   0.000000  -0.000000   0.000097
  126  FE 1ZZZZ  -0.000002   0.000000   0.000000  -0.000000  -0.000000
  127  FE 1XXXY  -0.000000   0.000000   0.000000  -0.000000  -0.000000
  128  FE 1XXXZ  -0.000000   0.000000   0.000000  -0.000000  -0.000000
  129  FE 1YYYX  -0.000000   0.000000   0.000000  -0.000000  -0.000000
  130  FE 1YYYZ  -0.000000   0.000000   0.000000  -0.000000  -0.000000
  131  FE 1ZZZX  -0.000000   0.000000   0.000000  -0.000000  -0.000000
  132  FE 1ZZZY  -0.000000   0.000000   0.000000  -0.000000  -0.000000
  133  FE 1XXYY  -0.000006   0.000000   0.000000  -0.000000  -0.000000
  134  FE 1XXZZ   0.000002   0.000000   0.000000  -0.000000   0.000170
  135  FE 1YYZZ   0.000002   0.000000   0.000000  -0.000000  -0.000170
  136  FE 1XXYZ  -0.000000   0.000000   0.000000  -0.000000  -0.000000
  137  FE 1YYXZ  -0.000000   0.000000   0.000000  -0.000000  -0.000000
  138  FE 1ZZXY  -0.000000   0.000000   0.000000  -0.000000  -0.000000
  139  FE 1XXXX   0.000435   0.000000   0.000000  -0.000000  -0.000548
  140  FE 1YYYY   0.000435   0.000000   0.000000  -0.000000   0.000548
  141  FE 1ZZZZ   0.000077   0.000000   0.000000  -0.000000  -0.000000
  142  FE 1XXXY  -0.000000   0.000000   0.000000  -0.000000  -0.000000
  143  FE 1XXXZ  -0.000000   0.000000   0.000000  -0.000000  -0.000000
  144  FE 1YYYX  -0.000000   0.000000   0.000000  -0.000000  -0.000000
  145  FE 1YYYZ  -0.000000   0.000000   0.000000  -0.000000  -0.000000
  146  FE 1ZZZX  -0.000000   0.000000   0.000000  -0.000000  -0.000000
  147  FE 1ZZZY  -0.000000   0.000000   0.000000  -0.000000  -0.000000
  148  FE 1XXYY  -0.000696   0.000000   0.000000  -0.000000  -0.000000
  149  FE 1XXZZ  -0.000068   0.000000   0.000000  -0.000000   0.000962
  150  FE 1YYZZ  -0.000068   0.000000   0.000000  -0.000000  -0.000962
  151  FE 1XXYZ  -0.000000   0.000000   0.000000  -0.000000  -0.000000
  152  FE 1YYXZ  -0.000000   0.000000   0.000000  -0.000000  -0.000000
  153  FE 1ZZXY  -0.000000   0.000000   0.000000  -0.000000  -0.000000
  154  FE 1XXXX   0.000396   0.000000   0.000000  -0.000000  -0.000623
  155  FE 1YYYY   0.000396   0.000000   0.000000  -0.000000   0.000623
  156  FE 1ZZZZ   0.000077   0.000000   0.000000  -0.000000  -0.000000
  157  FE 1XXXY  -0.000000   0.000000   0.000000  -0.000000  -0.000000
  158  FE 1XXXZ  -0.000000   0.000000   0.000000  -0.000000  -0.000000
  159  FE 1YYYX  -0.000000   0.000000   0.000000  -0.000000  -0.000000
  160  FE 1YYYZ  -0.000000   0.000000   0.000000  -0.000000  -0.000000
  161  FE 1ZZZX  -0.000000   0.000000   0.000000  -0.000000  -0.000000
  162  FE 1ZZZY  -0.000000   0.000000   0.000000  -0.000000  -0.000000
  163  FE 1XXYY  -0.000628   0.000000   0.000000  -0.000000  -0.000000
  164  FE 1XXZZ  -0.000068   0.000000   0.000000  -0.000000   0.001095
  165  FE 1YYZZ  -0.000068   0.000000   0.000000  -0.000000  -0.001095
  166  FE 1XXYZ  -0.000000   0.000000   0.000000  -0.000000  -0.000000
  167  FE 1YYXZ  -0.000000   0.000000   0.000000  -0.000000  -0.000000
  168  FE 1ZZXY  -0.000000   0.000000   0.000000  -0.000000  -0.000000
  169  FE 1XXXX   0.000160   0.000000   0.000000  -0.000000  -0.000206
  170  FE 1YYYY   0.000160   0.000000   0.000000  -0.000000   0.000206
  171  FE 1ZZZZ   0.000033   0.000000   0.000000  -0.000000  -0.000000
  172  FE 1XXXY  -0.000000   0.000000   0.000000  -0.000000  -0.000000
  173  FE 1XXXZ  -0.000000   0.000000   0.000000  -0.000000  -0.000000
  174  FE 1YYYX  -0.000000   0.000000   0.000000  -0.000000  -0.000000
  175  FE 1YYYZ  -0.000000   0.000000   0.000000  -0.000000  -0.000000
  176  FE 1ZZZX  -0.000000   0.000000   0.000000  -0.000000  -0.000000
  177  FE 1ZZZY  -0.000000   0.000000   0.000000  -0.000000  -0.000000
  178  FE 1XXYY  -0.000252   0.000000   0.000000  -0.000000  -0.000000
  179  FE 1XXZZ  -0.000029   0.000000   0.000000  -0.000000   0.000363
  180  FE 1YYZZ  -0.000029   0.000000   0.000000  -0.000000  -0.000363
  181  FE 1XXYZ  -0.000000   0.000000   0.000000  -0.000000  -0.000000
  182  FE 1YYXZ  -0.000000   0.000000   0.000000  -0.000000  -0.000000
  183  FE 1ZZXY  -0.000000   0.000000   0.000000  -0.000000  -0.000000

                      6          7          8          9         10
                   -0.2336    -0.1889    -0.1770    -0.1770    -0.1417
                     A          A          A          A          A   
    1  FE 1  S   -0.002677   0.001703   0.000000   0.000000   0.000000
    2  FE 1  S    0.999881  -0.011855   0.000000   0.000000   0.000000
    3  FE 1  S    0.000736  -0.000940   0.000000   0.000000   0.000000
    4  FE 1  S   -0.000126  -0.000465   0.000000   0.000000   0.000000
    5  FE 1  S   -0.000010   0.000065   0.000000   0.000000   0.000000
    6  FE 1  S   -0.000113   0.000576   0.000000   0.000000   0.000000
    7  FE 1  S    0.000032  -0.000215   0.000000   0.000000   0.000000
    8  FE 1  X   -0.000000   0.000000   0.000000   0.000000   0.000000
    9  FE 1  Y   -0.000000   0.000000   0.000000   0.000000   0.000000
   10  FE 1  Z   -0.000000   0.000000   0.000000   0.000000   0.000000
   11  FE 1  X   -0.000000   0.000000   0.000000   0.000000   0.000000
   12  FE 1  Y   -0.000000   0.000000   0.000000   0.000000   0.000000
   13  FE 1  Z   -0.000000   0.000000   0.000000   0.000000   0.000000
   14  FE 1  X   -0.000000   0.000000   0.000000   0.000000   0.000000
   15  FE 1  Y   -0.000000   0.000000   0.000000   0.000000   0.000000
   16  FE 1  Z   -0.000000   0.000000   0.000000   0.000000   0.000000
   17  FE 1  X   -0.000000   0.000000   0.000000   0.000000   0.000000
   18  FE 1  Y   -0.000000   0.000000   0.000000   0.000000   0.000000
   19  FE 1  Z   -0.000000   0.000000   0.000000   0.000000   0.000000
   20  FE 1  X   -0.000000   0.000000   0.000000   0.000000   0.000000
   21  FE 1  Y   -0.000000   0.000000   0.000000   0.000000   0.000000
   22  FE 1  Z   -0.000000   0.000000   0.000000   0.000000   0.000000
   23  FE 1  X   -0.000000   0.000000   0.000000   0.000000   0.000000
   24  FE 1  Y   -0.000000   0.000000   0.000000   0.000000   0.000000
   25  FE 1  Z   -0.000000   0.000000   0.000000   0.000000   0.000000
   26  FE 1  X   -0.000000   0.000000   0.000000   0.000000   0.000000
   27  FE 1  Y   -0.000000   0.000000   0.000000   0.000000   0.000000
   28  FE 1  Z   -0.000000   0.000000   0.000000   0.000000   0.000000
   29  FE 1  X   -0.000000   0.000000   0.000000   0.000000   0.000000
   30  FE 1  Y   -0.000000   0.000000   0.000000   0.000000   0.000000
   31  FE 1  Z   -0.000000   0.000000   0.000000   0.000000   0.000000
   32  FE 1 XX   -0.006650  -0.498300   0.000000   0.000000   0.000000
   33  FE 1 YY   -0.006650  -0.498300   0.000000   0.000000   0.000000
   34  FE 1 ZZ    0.013300   0.996601   0.000000   0.000000   0.000000
   35  FE 1 XY   -0.000000   0.000000   0.000000   0.000000   0.998957
   36  FE 1 XZ   -0.000000   0.000000   0.997256   0.000000   0.000000
   37  FE 1 YZ   -0.000000   0.000000   0.000000   0.997256   0.000000
   38  FE 1 XX   -0.006313   0.067361   0.000000   0.000000   0.000000
   39  FE 1 YY   -0.006313   0.067361   0.000000   0.000000   0.000000
   40  FE 1 ZZ    0.012626  -0.134722   0.000000   0.000000   0.000000
   41  FE 1 XY   -0.000000   0.000000   0.000000   0.000000  -0.120849
   42  FE 1 XZ   -0.000000   0.000000  -0.131227   0.000000   0.000000
   43  FE 1 YZ   -0.000000   0.000000   0.000000  -0.131227   0.000000
   44  FE 1 XX   -0.001742   0.019259   0.000000   0.000000   0.000000
   45  FE 1 YY   -0.001742   0.019259   0.000000   0.000000   0.000000
   46  FE 1 ZZ    0.003484  -0.038517   0.000000   0.000000   0.000000
   47  FE 1 XY   -0.000000   0.000000   0.000000   0.000000  -0.035119
   48  FE 1 XZ   -0.000000   0.000000  -0.037689   0.000000   0.000000
   49  FE 1 YZ   -0.000000   0.000000   0.000000  -0.037689   0.000000
   50  FE 1 XX   -0.000105   0.001232   0.000000   0.000000   0.000000
   51  FE 1 YY   -0.000105   0.001232   0.000000   0.000000   0.000000
   52  FE 1 ZZ    0.000210  -0.002464   0.000000   0.000000   0.000000
   53  FE 1 XY   -0.000000   0.000000   0.000000   0.000000  -0.002465
   54  FE 1 XZ   -0.000000   0.000000  -0.002479   0.000000   0.000000
   55  FE 1 YZ   -0.000000   0.000000   0.000000  -0.002479   0.000000
   56  FE 1 XX    0.000076  -0.000058   0.000000   0.000000   0.000000
   57  FE 1 YY    0.000076  -0.000058   0.000000   0.000000   0.000000
   58  FE 1 ZZ   -0.000153   0.000117   0.000000   0.000000   0.000000
   59  FE 1 XY   -0.000000   0.000000   0.000000   0.000000  -0.000108
   60  FE 1 XZ   -0.000000   0.000000   0.000056   0.000000   0.000000
   61  FE 1 YZ   -0.000000   0.000000   0.000000   0.000056   0.000000
   62  FE 1 XX    0.000801   0.002791   0.000000   0.000000   0.000000
   63  FE 1 YY    0.000801   0.002791   0.000000   0.000000   0.000000
   64  FE 1 ZZ   -0.001601  -0.005582   0.000000   0.000000   0.000000
   65  FE 1 XY   -0.000000   0.000000   0.000000   0.000000  -0.009604
   66  FE 1 XZ   -0.000000   0.000000  -0.006586   0.000000   0.000000
   67  FE 1 YZ   -0.000000   0.000000   0.000000  -0.006586   0.000000
   68  FE 1 XX   -0.000574   0.000199   0.000000   0.000000   0.000000
   69  FE 1 YY   -0.000574   0.000199   0.000000   0.000000   0.000000
   70  FE 1 ZZ    0.001147  -0.000398   0.000000   0.000000   0.000000
   71  FE 1 XY   -0.000000   0.000000   0.000000   0.000000  -0.000327
   72  FE 1 XZ   -0.000000   0.000000  -0.000373   0.000000   0.000000
   73  FE 1 YZ   -0.000000   0.000000   0.000000  -0.000373   0.000000
   74  FE 1 XXX  -0.000000   0.000000   0.000000   0.000000   0.000000
   75  FE 1 YYY  -0.000000   0.000000   0.000000   0.000000   0.000000
   76  FE 1 ZZZ  -0.000000   0.000000   0.000000   0.000000   0.000000
   77  FE 1 XXY  -0.000000   0.000000   0.000000   0.000000   0.000000
   78  FE 1 XXZ  -0.000000   0.000000   0.000000   0.000000   0.000000
   79  FE 1 YYX  -0.000000   0.000000   0.000000   0.000000   0.000000
   80  FE 1 YYZ  -0.000000   0.000000   0.000000   0.000000   0.000000
   81  FE 1 ZZX  -0.000000   0.000000   0.000000   0.000000   0.000000
   82  FE 1 ZZY  -0.000000   0.000000   0.000000   0.000000   0.000000
   83  FE 1 XYZ  -0.000000   0.000000   0.000000   0.000000   0.000000
   84  FE 1 XXX  -0.000000   0.000000   0.000000   0.000000   0.000000
   85  FE 1 YYY  -0.000000   0.000000   0.000000   0.000000   0.000000
   86  FE 1 ZZZ  -0.000000   0.000000   0.000000   0.000000   0.000000
   87  FE 1 XXY  -0.000000   0.000000   0.000000   0.000000   0.000000
   88  FE 1 XXZ  -0.000000   0.000000   0.000000   0.000000   0.000000
   89  FE 1 YYX  -0.000000   0.000000   0.000000   0.000000   0.000000
   90  FE 1 YYZ  -0.000000   0.000000   0.000000   0.000000   0.000000
   91  FE 1 ZZX  -0.000000   0.000000   0.000000   0.000000   0.000000
   92  FE 1 ZZY  -0.000000   0.000000   0.000000   0.000000   0.000000
   93  FE 1 XYZ  -0.000000   0.000000   0.000000   0.000000   0.000000
   94  FE 1 XXX  -0.000000   0.000000   0.000000   0.000000   0.000000
   95  FE 1 YYY  -0.000000   0.000000   0.000000   0.000000   0.000000
   96  FE 1 ZZZ  -0.000000   0.000000   0.000000   0.000000   0.000000
   97  FE 1 XXY  -0.000000   0.000000   0.000000   0.000000   0.000000
   98  FE 1 XXZ  -0.000000   0.000000   0.000000   0.000000   0.000000
   99  FE 1 YYX  -0.000000   0.000000   0.000000   0.000000   0.000000
  100  FE 1 YYZ  -0.000000   0.000000   0.000000   0.000000   0.000000
  101  FE 1 ZZX  -0.000000   0.000000   0.000000   0.000000   0.000000
  102  FE 1 ZZY  -0.000000   0.000000   0.000000   0.000000   0.000000
  103  FE 1 XYZ  -0.000000   0.000000   0.000000   0.000000   0.000000
  104  FE 1 XXX  -0.000000   0.000000   0.000000   0.000000   0.000000
  105  FE 1 YYY  -0.000000   0.000000   0.000000   0.000000   0.000000
  106  FE 1 ZZZ  -0.000000   0.000000   0.000000   0.000000   0.000000
  107  FE 1 XXY  -0.000000   0.000000   0.000000   0.000000   0.000000
  108  FE 1 XXZ  -0.000000   0.000000   0.000000   0.000000   0.000000
  109  FE 1 YYX  -0.000000   0.000000   0.000000   0.000000   0.000000
  110  FE 1 YYZ  -0.000000   0.000000   0.000000   0.000000   0.000000
  111  FE 1 ZZX  -0.000000   0.000000   0.000000   0.000000   0.000000
  112  FE 1 ZZY  -0.000000   0.000000   0.000000   0.000000   0.000000
  113  FE 1 XYZ  -0.000000   0.000000   0.000000   0.000000   0.000000
  114  FE 1 XXX  -0.000000   0.000000   0.000000   0.000000   0.000000
  115  FE 1 YYY  -0.000000   0.000000   0.000000   0.000000   0.000000
  116  FE 1 ZZZ  -0.000000   0.000000   0.000000   0.000000   0.000000
  117  FE 1 XXY  -0.000000   0.000000   0.000000   0.000000   0.000000
  118  FE 1 XXZ  -0.000000   0.000000   0.000000   0.000000   0.000000
  119  FE 1 YYX  -0.000000   0.000000   0.000000   0.000000   0.000000
  120  FE 1 YYZ  -0.000000   0.000000   0.000000   0.000000   0.000000
  121  FE 1 ZZX  -0.000000   0.000000   0.000000   0.000000   0.000000
  122  FE 1 ZZY  -0.000000   0.000000   0.000000   0.000000   0.000000
  123  FE 1 XYZ  -0.000000   0.000000   0.000000   0.000000   0.000000
  124  FE 1XXXX  -0.000124   0.000139   0.000000   0.000000   0.000000
  125  FE 1YYYY  -0.000124   0.000139   0.000000   0.000000   0.000000
  126  FE 1ZZZZ   0.000013   0.000357   0.000000   0.000000   0.000000
  127  FE 1XXXY  -0.000000   0.000000   0.000000   0.000000  -0.000109
  128  FE 1XXXZ  -0.000000   0.000000  -0.000308   0.000000   0.000000
  129  FE 1YYYX  -0.000000   0.000000   0.000000   0.000000  -0.000109
  130  FE 1YYYZ  -0.000000   0.000000   0.000000  -0.000308   0.000000
  131  FE 1ZZZX  -0.000000   0.000000   0.000403   0.000000   0.000000
  132  FE 1ZZZY  -0.000000   0.000000   0.000000   0.000403   0.000000
  133  FE 1XXYY   0.000229   0.000069   0.000000   0.000000   0.000000
  134  FE 1XXZZ  -0.000011  -0.000313   0.000000   0.000000   0.000000
  135  FE 1YYZZ  -0.000011  -0.000313   0.000000   0.000000   0.000000
  136  FE 1XXYZ  -0.000000   0.000000   0.000000  -0.000127   0.000000
  137  FE 1YYXZ  -0.000000   0.000000  -0.000127   0.000000   0.000000
  138  FE 1ZZXY  -0.000000   0.000000   0.000000   0.000000   0.000291
  139  FE 1XXXX  -0.000055   0.001495   0.000000   0.000000   0.000000
  140  FE 1YYYY  -0.000055   0.001495   0.000000   0.000000   0.000000
  141  FE 1ZZZZ   0.000028   0.002253   0.000000   0.000000   0.000000
  142  FE 1XXXY  -0.000000   0.000000   0.000000   0.000000  -0.000589
  143  FE 1XXXZ  -0.000000   0.000000  -0.002361   0.000000   0.000000
  144  FE 1YYYX  -0.000000   0.000000   0.000000   0.000000  -0.000589
  145  FE 1YYYZ  -0.000000   0.000000   0.000000  -0.002361   0.000000
  146  FE 1ZZZX  -0.000000   0.000000   0.002563   0.000000   0.000000
  147  FE 1ZZZY  -0.000000   0.000000   0.000000   0.002563   0.000000
  148  FE 1XXYY   0.000121  -0.000646   0.000000   0.000000   0.000000
  149  FE 1XXZZ  -0.000025  -0.001979   0.000000   0.000000   0.000000
  150  FE 1YYZZ  -0.000025  -0.001979   0.000000   0.000000   0.000000
  151  FE 1XXYZ  -0.000000   0.000000   0.000000  -0.000271   0.000000
  152  FE 1YYXZ  -0.000000   0.000000  -0.000271   0.000000   0.000000
  153  FE 1ZZXY  -0.000000   0.000000   0.000000   0.000000   0.001581
  154  FE 1XXXX   0.000129   0.002066   0.000000   0.000000   0.000000
  155  FE 1YYYY   0.000129   0.002066   0.000000   0.000000   0.000000
  156  FE 1ZZZZ   0.000040   0.002715   0.000000   0.000000   0.000000
  157  FE 1XXXY  -0.000000   0.000000   0.000000   0.000000  -0.000676
  158  FE 1XXXZ  -0.000000   0.000000  -0.003029   0.000000   0.000000
  159  FE 1YYYX  -0.000000   0.000000   0.000000   0.000000  -0.000676
  160  FE 1YYYZ  -0.000000   0.000000   0.000000  -0.003029   0.000000
  161  FE 1ZZZX  -0.000000   0.000000   0.003103   0.000000   0.000000
  162  FE 1ZZZY  -0.000000   0.000000   0.000000   0.003103   0.000000
  163  FE 1XXYY  -0.000192  -0.001244   0.000000   0.000000   0.000000
  164  FE 1XXZZ  -0.000035  -0.002385   0.000000   0.000000   0.000000
  165  FE 1YYZZ  -0.000035  -0.002385   0.000000   0.000000   0.000000
  166  FE 1XXYZ  -0.000000   0.000000   0.000000  -0.000099   0.000000
  167  FE 1YYXZ  -0.000000   0.000000  -0.000099   0.000000   0.000000
  168  FE 1ZZXY  -0.000000   0.000000   0.000000   0.000000   0.001813
  169  FE 1XXXX   0.000018   0.000721   0.000000   0.000000   0.000000
  170  FE 1YYYY   0.000018   0.000721   0.000000   0.000000   0.000000
  171  FE 1ZZZZ   0.000006   0.000946   0.000000   0.000000   0.000000
  172  FE 1XXXY  -0.000000   0.000000   0.000000   0.000000  -0.000234
  173  FE 1XXXZ  -0.000000   0.000000  -0.001054   0.000000   0.000000
  174  FE 1YYYX  -0.000000   0.000000   0.000000   0.000000  -0.000234
  175  FE 1YYYZ  -0.000000   0.000000   0.000000  -0.001054   0.000000
  176  FE 1ZZZX  -0.000000   0.000000   0.001079   0.000000   0.000000
  177  FE 1ZZZY  -0.000000   0.000000   0.000000   0.001079   0.000000
  178  FE 1XXYY  -0.000026  -0.000436   0.000000   0.000000   0.000000
  179  FE 1XXZZ  -0.000005  -0.000831   0.000000   0.000000   0.000000
  180  FE 1YYZZ  -0.000005  -0.000831   0.000000   0.000000   0.000000
  181  FE 1XXYZ  -0.000000   0.000000   0.000000  -0.000034   0.000000
  182  FE 1YYXZ  -0.000000   0.000000  -0.000034   0.000000   0.000000
  183  FE 1ZZXY  -0.000000   0.000000   0.000000   0.000000   0.000627

                     11         12         13         14         15
                    0.0179     0.0209     0.0209     0.0247     0.0671
                     A          A          A          A          A   
    1  FE 1  S   -0.000000   0.000000   0.000000   0.017028  -0.000000
    2  FE 1  S   -0.000000   0.000000   0.000000  -0.212284  -0.000000
    3  FE 1  S   -0.000000   0.000000   0.000000   0.016424  -0.000000
    4  FE 1  S   -0.000000   0.000000   0.000000  -0.023936  -0.000000
    5  FE 1  S   -0.000000   0.000000   0.000000  -0.010747  -0.000000
    6  FE 1  S   -0.000000   0.000000   0.000000  -1.253643  -0.000000
    7  FE 1  S   -0.000000   0.000000   0.000000   2.010481  -0.000000
    8  FE 1  X   -0.000000  -0.002550   0.000000  -0.000000  -0.000000
    9  FE 1  Y   -0.000000   0.000000  -0.002550  -0.000000  -0.000000
   10  FE 1  Z   -0.005154   0.000000   0.000000  -0.000000  -0.094014
   11  FE 1  X   -0.000000   0.473578   0.000000  -0.000000  -0.000000
   12  FE 1  Y   -0.000000   0.000000   0.473578  -0.000000  -0.000000
   13  FE 1  Z    0.514645   0.000000   0.000000  -0.000000  -0.041635
   14  FE 1  X   -0.000000  -0.067009   0.000000  -0.000000  -0.000000
   15  FE 1  Y   -0.000000   0.000000  -0.067009  -0.000000  -0.000000
   16  FE 1  Z   -0.057601   0.000000   0.000000  -0.000000   0.148251
   17  FE 1  X   -0.000000   0.046065   0.000000  -0.000000  -0.000000
   18  FE 1  Y   -0.000000   0.000000   0.046065  -0.000000  -0.000000
   19  FE 1  Z    0.040785   0.000000   0.000000  -0.000000  -0.106722
   20  FE 1  X   -0.000000  -0.020807   0.000000  -0.000000  -0.000000
   21  FE 1  Y   -0.000000   0.000000  -0.020807  -0.000000  -0.000000
   22  FE 1  Z   -0.018542   0.000000   0.000000  -0.000000   0.049912
   23  FE 1  X   -0.000000  -0.006773   0.000000  -0.000000  -0.000000
   24  FE 1  Y   -0.000000   0.000000  -0.006773  -0.000000  -0.000000
   25  FE 1  Z   -0.006021   0.000000   0.000000  -0.000000   0.015702
   26  FE 1  X   -0.000000  -0.496199   0.000000  -0.000000  -0.000000
   27  FE 1  Y   -0.000000   0.000000  -0.496199  -0.000000  -0.000000
   28  FE 1  Z   -0.409245   0.000000   0.000000  -0.000000   2.030619
   29  FE 1  X   -0.000000   1.092510   0.000000  -0.000000  -0.000000
   30  FE 1  Y   -0.000000   0.000000   1.092510  -0.000000  -0.000000
   31  FE 1  Z    0.988006   0.000000   0.000000  -0.000000  -1.769193
   32  FE 1 XX   -0.000000   0.000000   0.000000   0.000395  -0.000000
   33  FE 1 YY   -0.000000   0.000000   0.000000   0.000395  -0.000000
   34  FE 1 ZZ   -0.000000   0.000000   0.000000  -0.000789  -0.000000
   35  FE 1 XY   -0.000000   0.000000   0.000000  -0.000000  -0.000000
   36  FE 1 XZ   -0.000000   0.000000   0.000000  -0.000000  -0.000000
   37  FE 1 YZ   -0.000000   0.000000   0.000000  -0.000000  -0.000000
   38  FE 1 XX   -0.000000   0.000000   0.000000   0.002446  -0.000000
   39  FE 1 YY   -0.000000   0.000000   0.000000   0.002446  -0.000000
   40  FE 1 ZZ   -0.000000   0.000000   0.000000  -0.004891  -0.000000
   41  FE 1 XY   -0.000000   0.000000   0.000000  -0.000000  -0.000000
   42  FE 1 XZ   -0.000000   0.000000   0.000000  -0.000000  -0.000000
   43  FE 1 YZ   -0.000000   0.000000   0.000000  -0.000000  -0.000000
   44  FE 1 XX   -0.000000   0.000000   0.000000   0.000275  -0.000000
   45  FE 1 YY   -0.000000   0.000000   0.000000   0.000275  -0.000000
   46  FE 1 ZZ   -0.000000   0.000000   0.000000  -0.000550  -0.000000
   47  FE 1 XY   -0.000000   0.000000   0.000000  -0.000000  -0.000000
   48  FE 1 XZ   -0.000000   0.000000   0.000000  -0.000000  -0.000000
   49  FE 1 YZ   -0.000000   0.000000   0.000000  -0.000000  -0.000000
   50  FE 1 XX   -0.000000   0.000000   0.000000  -0.000063  -0.000000
   51  FE 1 YY   -0.000000   0.000000   0.000000  -0.000063  -0.000000
   52  FE 1 ZZ   -0.000000   0.000000   0.000000   0.000127  -0.000000
   53  FE 1 XY   -0.000000   0.000000   0.000000  -0.000000  -0.000000
   54  FE 1 XZ   -0.000000   0.000000   0.000000  -0.000000  -0.000000
   55  FE 1 YZ   -0.000000   0.000000   0.000000  -0.000000  -0.000000
   56  FE 1 XX   -0.000000   0.000000   0.000000  -0.000038  -0.000000
   57  FE 1 YY   -0.000000   0.000000   0.000000  -0.000038  -0.000000
   58  FE 1 ZZ   -0.000000   0.000000   0.000000   0.000077  -0.000000
   59  FE 1 XY   -0.000000   0.000000   0.000000  -0.000000  -0.000000
   60  FE 1 XZ   -0.000000   0.000000   0.000000  -0.000000  -0.000000
   61  FE 1 YZ   -0.000000   0.000000   0.000000  -0.000000  -0.000000
   62  FE 1 XX   -0.000000   0.000000   0.000000   0.000177  -0.000000
   63  FE 1 YY   -0.000000   0.000000   0.000000   0.000177  -0.000000
   64  FE 1 ZZ   -0.000000   0.000000   0.000000  -0.000353  -0.000000
   65  FE 1 XY   -0.000000   0.000000   0.000000  -0.000000  -0.000000
   66  FE 1 XZ   -0.000000   0.000000   0.000000  -0.000000  -0.000000
   67  FE 1 YZ   -0.000000   0.000000   0.000000  -0.000000  -0.000000
   68  FE 1 XX   -0.000000   0.000000   0.000000  -0.000308  -0.000000
   69  FE 1 YY   -0.000000   0.000000   0.000000  -0.000308  -0.000000
   70  FE 1 ZZ   -0.000000   0.000000   0.000000   0.000616  -0.000000
   71  FE 1 XY   -0.000000   0.000000   0.000000  -0.000000  -0.000000
   72  FE 1 XZ   -0.000000   0.000000   0.000000  -0.000000  -0.000000
   73  FE 1 YZ   -0.000000   0.000000   0.000000  -0.000000  -0.000000
   74  FE 1 XXX  -0.000000  -0.002003   0.000000  -0.000000  -0.000000
   75  FE 1 YYY  -0.000000   0.000000  -0.002003  -0.000000  -0.000000
   76  FE 1 ZZZ   0.002879   0.000000   0.000000  -0.000000   0.003466
   77  FE 1 XXY  -0.000000   0.000000   0.000128  -0.000000  -0.000000
   78  FE 1 XXZ  -0.001931   0.000000   0.000000  -0.000000  -0.002325
   79  FE 1 YYX  -0.000000   0.000128   0.000000  -0.000000  -0.000000
   80  FE 1 YYZ  -0.001931   0.000000   0.000000  -0.000000  -0.002325
   81  FE 1 ZZX  -0.000000   0.002559   0.000000  -0.000000  -0.000000
   82  FE 1 ZZY  -0.000000   0.000000   0.002559  -0.000000  -0.000000
   83  FE 1 XYZ  -0.000000   0.000000   0.000000  -0.000000  -0.000000
   84  FE 1 XXX  -0.000000  -0.001891   0.000000  -0.000000  -0.000000
   85  FE 1 YYY  -0.000000   0.000000  -0.001891  -0.000000  -0.000000
   86  FE 1 ZZZ   0.001968   0.000000   0.000000  -0.000000   0.002622
   87  FE 1 XXY  -0.000000   0.000000   0.000740  -0.000000  -0.000000
   88  FE 1 XXZ  -0.001320   0.000000   0.000000  -0.000000  -0.001759
   89  FE 1 YYX  -0.000000   0.000740   0.000000  -0.000000  -0.000000
   90  FE 1 YYZ  -0.001320   0.000000   0.000000  -0.000000  -0.001759
   91  FE 1 ZZX  -0.000000   0.001797   0.000000  -0.000000  -0.000000
   92  FE 1 ZZY  -0.000000   0.000000   0.001797  -0.000000  -0.000000
   93  FE 1 XYZ  -0.000000   0.000000   0.000000  -0.000000  -0.000000
   94  FE 1 XXX  -0.000000  -0.000474   0.000000  -0.000000  -0.000000
   95  FE 1 YYY  -0.000000   0.000000  -0.000474  -0.000000  -0.000000
   96  FE 1 ZZZ   0.000374   0.000000   0.000000  -0.000000   0.000482
   97  FE 1 XXY  -0.000000   0.000000   0.000277  -0.000000  -0.000000
   98  FE 1 XXZ  -0.000251   0.000000   0.000000  -0.000000  -0.000323
   99  FE 1 YYX  -0.000000   0.000277   0.000000  -0.000000  -0.000000
  100  FE 1 YYZ  -0.000251   0.000000   0.000000  -0.000000  -0.000323
  101  FE 1 ZZX  -0.000000   0.000359   0.000000  -0.000000  -0.000000
  102  FE 1 ZZY  -0.000000   0.000000   0.000359  -0.000000  -0.000000
  103  FE 1 XYZ  -0.000000   0.000000   0.000000  -0.000000  -0.000000
  104  FE 1 XXX  -0.000000   0.000494   0.000000  -0.000000  -0.000000
  105  FE 1 YYY  -0.000000   0.000000   0.000494  -0.000000  -0.000000
  106  FE 1 ZZZ  -0.000411   0.000000   0.000000  -0.000000  -0.000508
  107  FE 1 XXY  -0.000000   0.000000  -0.000253  -0.000000  -0.000000
  108  FE 1 XXZ   0.000276   0.000000   0.000000  -0.000000   0.000341
  109  FE 1 YYX  -0.000000  -0.000253   0.000000  -0.000000  -0.000000
  110  FE 1 YYZ   0.000276   0.000000   0.000000  -0.000000   0.000341
  111  FE 1 ZZX  -0.000000  -0.000410   0.000000  -0.000000  -0.000000
  112  FE 1 ZZY  -0.000000   0.000000  -0.000410  -0.000000  -0.000000
  113  FE 1 XYZ  -0.000000   0.000000   0.000000  -0.000000  -0.000000
  114  FE 1 XXX  -0.000000   0.000121   0.000000  -0.000000  -0.000000
  115  FE 1 YYY  -0.000000   0.000000   0.000121  -0.000000  -0.000000
  116  FE 1 ZZZ  -0.000081   0.000000   0.000000  -0.000000  -0.000105
  117  FE 1 XXY  -0.000000   0.000000  -0.000076  -0.000000  -0.000000
  118  FE 1 XXZ   0.000054   0.000000   0.000000  -0.000000   0.000070
  119  FE 1 YYX  -0.000000  -0.000076   0.000000  -0.000000  -0.000000
  120  FE 1 YYZ   0.000054   0.000000   0.000000  -0.000000   0.000070
  121  FE 1 ZZX  -0.000000  -0.000087   0.000000  -0.000000  -0.000000
  122  FE 1 ZZY  -0.000000   0.000000  -0.000087  -0.000000  -0.000000
  123  FE 1 XYZ  -0.000000   0.000000   0.000000  -0.000000  -0.000000
  124  FE 1XXXX  -0.000000   0.000000   0.000000   0.000188  -0.000000
  125  FE 1YYYY  -0.000000   0.000000   0.000000   0.000188  -0.000000
  126  FE 1ZZZZ  -0.000000   0.000000   0.000000   0.000026  -0.000000
  127  FE 1XXXY  -0.000000   0.000000   0.000000  -0.000000  -0.000000
  128  FE 1XXXZ  -0.000000   0.000000   0.000000  -0.000000  -0.000000
  129  FE 1YYYX  -0.000000   0.000000   0.000000  -0.000000  -0.000000
  130  FE 1YYYZ  -0.000000   0.000000   0.000000  -0.000000  -0.000000
  131  FE 1ZZZX  -0.000000   0.000000   0.000000  -0.000000  -0.000000
  132  FE 1ZZZY  -0.000000   0.000000   0.000000  -0.000000  -0.000000
  133  FE 1XXYY  -0.000000   0.000000   0.000000  -0.000308  -0.000000
  134  FE 1XXZZ  -0.000000   0.000000   0.000000  -0.000023  -0.000000
  135  FE 1YYZZ  -0.000000   0.000000   0.000000  -0.000023  -0.000000
  136  FE 1XXYZ  -0.000000   0.000000   0.000000  -0.000000  -0.000000
  137  FE 1YYXZ  -0.000000   0.000000   0.000000  -0.000000  -0.000000
  138  FE 1ZZXY  -0.000000   0.000000   0.000000  -0.000000  -0.000000
  139  FE 1XXXX  -0.000000   0.000000   0.000000   0.000436  -0.000000
  140  FE 1YYYY  -0.000000   0.000000   0.000000   0.000436  -0.000000
  141  FE 1ZZZZ  -0.000000   0.000000   0.000000   0.000078  -0.000000
  142  FE 1XXXY  -0.000000   0.000000   0.000000  -0.000000  -0.000000
  143  FE 1XXXZ  -0.000000   0.000000   0.000000  -0.000000  -0.000000
  144  FE 1YYYX  -0.000000   0.000000   0.000000  -0.000000  -0.000000
  145  FE 1YYYZ  -0.000000   0.000000   0.000000  -0.000000  -0.000000
  146  FE 1ZZZX  -0.000000   0.000000   0.000000  -0.000000  -0.000000
  147  FE 1ZZZY  -0.000000   0.000000   0.000000  -0.000000  -0.000000
  148  FE 1XXYY  -0.000000   0.000000   0.000000  -0.000697  -0.000000
[...]
   51  FE 1 YY    0.000000   0.003719
   52  FE 1 ZZ    0.000000  -0.007439
   53  FE 1 XY    0.000000  -0.000000
   54  FE 1 XZ    0.000000  -0.000000
   55  FE 1 YZ    0.000000  -0.000000
   56  FE 1 XX    0.000000  -0.002134
   57  FE 1 YY    0.000000  -0.002134
   58  FE 1 ZZ    0.000000   0.004268
   59  FE 1 XY    0.000000  -0.000000
   60  FE 1 XZ    0.000000  -0.000000
   61  FE 1 YZ    0.000000  -0.000000
   62  FE 1 XX    0.000000  -0.011597
   63  FE 1 YY    0.000000  -0.011597
   64  FE 1 ZZ    0.000000   0.023194
   65  FE 1 XY    0.000000  -0.000000
   66  FE 1 XZ    0.000000  -0.000000
   67  FE 1 YZ    0.000000  -0.000000
   68  FE 1 XX    0.000000   0.000294
   69  FE 1 YY    0.000000   0.000294
   70  FE 1 ZZ    0.000000  -0.000588
   71  FE 1 XY    0.000000  -0.000000
   72  FE 1 XZ    0.000000  -0.000000
   73  FE 1 YZ    0.000000  -0.000000
   74  FE 1 XXX   0.000000  -0.000000
   75  FE 1 YYY   0.000000  -0.000000
   76  FE 1 ZZZ   0.000000  -0.000000
   77  FE 1 XXY   0.000000  -0.000000
   78  FE 1 XXZ   0.000000  -0.000000
   79  FE 1 YYX   0.000000  -0.000000
   80  FE 1 YYZ   0.000000  -0.000000
   81  FE 1 ZZX   0.000000  -0.000000
   82  FE 1 ZZY   0.000000  -0.000000
   83  FE 1 XYZ   0.000000  -0.000000
   84  FE 1 XXX   0.000000  -0.000000
   85  FE 1 YYY   0.000000  -0.000000
   86  FE 1 ZZZ   0.000000  -0.000000
   87  FE 1 XXY   0.000000  -0.000000
   88  FE 1 XXZ   0.000000  -0.000000
   89  FE 1 YYX   0.000000  -0.000000
   90  FE 1 YYZ   0.000000  -0.000000
   91  FE 1 ZZX   0.000000  -0.000000
   92  FE 1 ZZY   0.000000  -0.000000
   93  FE 1 XYZ   0.000000  -0.000000
   94  FE 1 XXX   0.000000  -0.000000
   95  FE 1 YYY   0.000000  -0.000000
   96  FE 1 ZZZ   0.000000  -0.000000
   97  FE 1 XXY   0.000000  -0.000000
   98  FE 1 XXZ   0.000000  -0.000000
   99  FE 1 YYX   0.000000  -0.000000
  100  FE 1 YYZ   0.000000  -0.000000
  101  FE 1 ZZX   0.000000  -0.000000
  102  FE 1 ZZY   0.000000  -0.000000
  103  FE 1 XYZ   0.000000  -0.000000
  104  FE 1 XXX   0.000000  -0.000000
  105  FE 1 YYY   0.000000  -0.000000
  106  FE 1 ZZZ   0.000000  -0.000000
  107  FE 1 XXY   0.000000  -0.000000
  108  FE 1 XXZ   0.000000  -0.000000
  109  FE 1 YYX   0.000000  -0.000000
  110  FE 1 YYZ   0.000000  -0.000000
  111  FE 1 ZZX   0.000000  -0.000000
  112  FE 1 ZZY   0.000000  -0.000000
  113  FE 1 XYZ   0.000000  -0.000000
  114  FE 1 XXX   0.000000  -0.000000
  115  FE 1 YYY   0.000000  -0.000000
  116  FE 1 ZZZ   0.000000  -0.000000
  117  FE 1 XXY   0.000000  -0.000000
  118  FE 1 XXZ   0.000000  -0.000000
  119  FE 1 YYX   0.000000  -0.000000
  120  FE 1 YYZ   0.000000  -0.000000
  121  FE 1 ZZX   0.000000  -0.000000
  122  FE 1 ZZY   0.000000  -0.000000
  123  FE 1 XYZ   0.000000  -0.000000
  124  FE 1XXXX   0.000000   0.053612
  125  FE 1YYYY   0.000000   0.053612
  126  FE 1ZZZZ   0.000000   0.011567
  127  FE 1XXXY  -0.075620  -0.000000
  128  FE 1XXXZ   0.000000  -0.000000
  129  FE 1YYYX   0.075620  -0.000000
  130  FE 1YYYZ   0.000000  -0.000000
  131  FE 1ZZZX   0.000000  -0.000000
  132  FE 1ZZZY   0.000000  -0.000000
  133  FE 1XXYY   0.000000  -0.084017
  134  FE 1XXZZ   0.000000  -0.010159
  135  FE 1YYZZ   0.000000  -0.010159
  136  FE 1XXYZ   0.000000  -0.000000
  137  FE 1YYXZ   0.000000  -0.000000
  138  FE 1ZZXY   0.000000  -0.000000
  139  FE 1XXXX   0.000000  -0.173503
  140  FE 1YYYY   0.000000  -0.173503
  141  FE 1ZZZZ   0.000000  -0.037433
  142  FE 1XXXY   0.244726  -0.000000
  143  FE 1XXXZ   0.000000  -0.000000
  144  FE 1YYYX  -0.244726  -0.000000
  145  FE 1YYYZ   0.000000  -0.000000
  146  FE 1ZZZX   0.000000  -0.000000
  147  FE 1ZZZY   0.000000  -0.000000
  148  FE 1XXYY   0.000000   0.271902
  149  FE 1XXZZ   0.000000   0.032878
  150  FE 1YYZZ   0.000000   0.032878
  151  FE 1XXYZ   0.000000  -0.000000
  152  FE 1YYXZ   0.000000  -0.000000
  153  FE 1ZZXY   0.000000  -0.000000
  154  FE 1XXXX   0.000000   0.470795
  155  FE 1YYYY   0.000000   0.470795
  156  FE 1ZZZZ   0.000000   0.101575
  157  FE 1XXXY  -0.664031  -0.000000
  158  FE 1XXXZ   0.000000  -0.000000
  159  FE 1YYYX   0.664031  -0.000000
  160  FE 1YYYZ   0.000000  -0.000000
  161  FE 1ZZZX   0.000000  -0.000000
  162  FE 1ZZZY   0.000000  -0.000000
  163  FE 1XXYY   0.000000  -0.737794
  164  FE 1XXZZ   0.000000  -0.089214
  165  FE 1YYZZ   0.000000  -0.089214
  166  FE 1XXYZ   0.000000  -0.000000
  167  FE 1YYXZ   0.000000  -0.000000
  168  FE 1ZZXY   0.000000  -0.000000
  169  FE 1XXXX   0.000000  -0.912120
  170  FE 1YYYY   0.000000  -0.912120
  171  FE 1ZZZZ   0.000000  -0.196850
  172  FE 1XXXY   1.286367  -0.000000
  173  FE 1XXXZ   0.000000  -0.000000
  174  FE 1YYYX  -1.286367  -0.000000
  175  FE 1YYYZ   0.000000  -0.000000
  176  FE 1ZZZX   0.000000  -0.000000
  177  FE 1ZZZY   0.000000  -0.000000
  178  FE 1XXYY   0.000000   1.429353
  179  FE 1XXZZ   0.000000   0.172895
  180  FE 1YYZZ   0.000000   0.172895
  181  FE 1XXYZ   0.000000  -0.000000
  182  FE 1YYXZ   0.000000  -0.000000
  183  FE 1ZZXY   0.000000  -0.000000
 ...... END OF ROHF CALCULATION ......
 STEP CPU TIME =     4.93 TOTAL CPU TIME =      491.1 (    8.2 MIN)
 TOTAL WALL CLOCK TIME=      491.6 SECONDS, CPU UTILIZATION IS  99.91%

     ----------------------------------------------------------------
     PROPERTY VALUES FOR THE ROHF  SELF-CONSISTENT FIELD WAVEFUNCTION
     ----------------------------------------------------------------

          -----------------
          ENERGY COMPONENTS
          -----------------

         WAVEFUNCTION NORMALIZATION =       1.0000000000

                ONE ELECTRON ENERGY =    -215.8044174973
                TWO ELECTRON ENERGY =      93.1571117851
           NUCLEAR REPULSION ENERGY =       0.0000000000
                                      ------------------
                       TOTAL ENERGY =    -122.6473057122

 ELECTRON-ELECTRON POTENTIAL ENERGY =      93.1571117851
  NUCLEUS-ELECTRON POTENTIAL ENERGY =    -287.6640193404
   NUCLEUS-NUCLEUS POTENTIAL ENERGY =       0.0000000000
                                      ------------------
             TOTAL POTENTIAL ENERGY =    -194.5069075553
               TOTAL KINETIC ENERGY =      71.8596018431
                 VIRIAL RATIO (V/T) =       2.7067629456

          ---------------------------------------
          MULLIKEN AND LOWDIN POPULATION ANALYSES
          ---------------------------------------

     ATOMIC MULLIKEN POPULATION IN EACH MOLECULAR ORBITAL

                      1          2          3          4          5

                  2.000000   2.000000   2.000000   2.000000   2.000000

    1             2.000000   2.000000   2.000000   2.000000   2.000000

                      6          7          8          9         10

                  2.000000   1.000000   1.000000   1.000000   1.000000

    1             2.000000   1.000000   1.000000   1.000000   1.000000

          MULLIKEN SPHERICAL HARMONIC POPULATIONS
       ATOM           S       P       D      F      G      H      I    TOTAL
    1 FE            2.00    3.00    5.00   0.00   0.00   0.00   0.00   10.00

          MULLIKEN SPHERICAL HARMONIC POPULATIONS
       ATOM           S       P       D      F      G      H      I    TOTAL
    1 FE            2.00    3.00    1.00   0.00   0.00   0.00   0.00    6.00

     ATOMIC SPIN POPULATION (ALPHA MINUS BETA)
       ATOM         MULL.POP.                    LOW.POP.
    1 FE            4.000000                     4.000000

               ----- POPULATIONS IN EACH AO -----
                             MULLIKEN      LOWDIN
              1  FE 1  S      1.99998     0.34857
              2  FE 1  S      1.99957     0.24537
              3  FE 1  S      0.00005     0.00507
              4  FE 1  S      0.00000     0.00155
              5  FE 1  S      0.00000     0.00037
              6  FE 1  S     -0.00020     0.14592
              7  FE 1  S      0.00005     0.05718
              8  FE 1  X      2.00046     0.51024
              9  FE 1  Y      2.00046     0.51024
             10  FE 1  Z      2.00056     0.51068
             11  FE 1  X      0.00032     0.00164
             12  FE 1  Y      0.00032     0.00164
             13  FE 1  Z      0.00021     0.00176
             14  FE 1  X     -0.00019     0.00062
             15  FE 1  Y     -0.00019     0.00062
             16  FE 1  Z     -0.00020     0.00070
             17  FE 1  X     -0.00000     0.00049
             18  FE 1  Y     -0.00000     0.00049
             19  FE 1  Z      0.00000     0.00052
             20  FE 1  X     -0.00000     0.00028
             21  FE 1  Y     -0.00000     0.00028
             22  FE 1  Z     -0.00000     0.00030
             23  FE 1  X      0.00000     0.00002
             24  FE 1  Y      0.00000     0.00002
             25  FE 1  Z      0.00000     0.00002
             26  FE 1  X     -0.00067     0.00097
             27  FE 1  Y     -0.00067     0.00097
             28  FE 1  Z     -0.00061     0.00095
             29  FE 1  X      0.00000     0.00009
             30  FE 1  Y      0.00000     0.00009
             31  FE 1  Z      0.00001     0.00009
             32  FE 1 XX      0.98639     0.49602
             33  FE 1 YY      2.00284     0.49602
             34  FE 1 ZZ      0.98998     0.35035
             35  FE 1 XY      0.98715     0.27022
             36  FE 1 XZ      0.98715     0.27026
             37  FE 1 YZ      0.00000     0.27026
             38  FE 1 XX      0.01398     0.16273
             39  FE 1 YY      0.00687     0.16273
             40  FE 1 ZZ      0.01088     0.17038
             41  FE 1 XY      0.01292     0.01372
             42  FE 1 XZ      0.01292     0.01481
             43  FE 1 YZ      0.00000     0.01481
             44  FE 1 XX      0.00133     0.00750
             45  FE 1 YY      0.00115     0.00750
             46  FE 1 ZZ      0.00115     0.00777
             47  FE 1 XY      0.00127     0.00047
             48  FE 1 XZ      0.00127     0.00047
             49  FE 1 YZ      0.00000     0.00047
             50  FE 1 XX     -0.00000     0.00756
             51  FE 1 YY      0.00002     0.00756
             52  FE 1 ZZ      0.00000     0.00529
             53  FE 1 XY      0.00000     0.00413
             54  FE 1 XZ      0.00000     0.00404
             55  FE 1 YZ      0.00000     0.00404
             56  FE 1 XX      0.00000     0.00365
             57  FE 1 YY     -0.00000     0.00365
             58  FE 1 ZZ      0.00000     0.00311
             59  FE 1 XY     -0.00000     0.00184
             60  FE 1 XZ     -0.00000     0.00189
             61  FE 1 YZ      0.00000     0.00189
             62  FE 1 XX     -0.00117     0.10218
             63  FE 1 YY     -0.01089     0.10218
             64  FE 1 ZZ     -0.00200     0.10377
             65  FE 1 XY     -0.00133     0.00460
             66  FE 1 XZ     -0.00133     0.00424
             67  FE 1 YZ      0.00000     0.00424
             68  FE 1 XX     -0.00001     0.03265
             69  FE 1 YY      0.00001     0.03265
             70  FE 1 ZZ     -0.00003     0.03451
             71  FE 1 XY     -0.00003     0.00028
             72  FE 1 XZ     -0.00003     0.00024
             73  FE 1 YZ      0.00000     0.00024
             74  FE 1 XXX     0.00000     0.00010
             75  FE 1 YYY     0.00000     0.00010
             76  FE 1 ZZZ    -0.00000     0.00009
             77  FE 1 XXY     0.00000     0.00003
             78  FE 1 XXZ    -0.00000     0.00003
             79  FE 1 YYX     0.00000     0.00003
             80  FE 1 YYZ     0.00000     0.00003
             81  FE 1 ZZX     0.00000     0.00004
             82  FE 1 ZZY     0.00000     0.00004
             83  FE 1 XYZ     0.00000     0.00000
             84  FE 1 XXX     0.00001     0.01515
             85  FE 1 YYY     0.00000     0.01515
             86  FE 1 ZZZ    -0.00000     0.01445
             87  FE 1 XXY    -0.00000     0.00531
             88  FE 1 XXZ    -0.00000     0.00546
             89  FE 1 YYX     0.00000     0.00531
             90  FE 1 YYZ     0.00001     0.00546
             91  FE 1 ZZX     0.00000     0.00569
             92  FE 1 ZZY     0.00000     0.00569
             93  FE 1 XYZ     0.00000     0.00000
             94  FE 1 XXX     0.00004     0.18453
             95  FE 1 YYY     0.00000     0.18453
             96  FE 1 ZZZ     0.00000     0.18314
             97  FE 1 XXY     0.00001     0.07017
             98  FE 1 XXZ     0.00000     0.07161
             99  FE 1 YYX     0.00000     0.07017
            100  FE 1 YYZ     0.00004     0.07161
            101  FE 1 ZZX     0.00000     0.07376
            102  FE 1 ZZY     0.00000     0.07376
            103  FE 1 XYZ     0.00000     0.00000
            104  FE 1 XXX     0.00003     0.43000
            105  FE 1 YYY     0.00000     0.43000
            106  FE 1 ZZZ     0.00001     0.43210
            107  FE 1 XXY     0.00002     0.16917
            108  FE 1 XXZ     0.00001     0.17160
            109  FE 1 YYX     0.00000     0.16917
            110  FE 1 YYZ     0.00003     0.17160
            111  FE 1 ZZX     0.00000     0.17482
            112  FE 1 ZZY     0.00000     0.17482
            113  FE 1 XYZ     0.00000     0.00000
            114  FE 1 XXX     0.00000     0.19767
            115  FE 1 YYY     0.00000     0.19767
            116  FE 1 ZZZ     0.00000     0.19845
            117  FE 1 XXY     0.00000     0.07879
            118  FE 1 XXZ     0.00000     0.07967
            119  FE 1 YYX     0.00000     0.07879
            120  FE 1 YYZ     0.00000     0.07967
            121  FE 1 ZZX     0.00000     0.08041
            122  FE 1 ZZY     0.00000     0.08041
            123  FE 1 XYZ     0.00000     0.00000
            124  FE 1XXXX     0.00000     0.09550
            125  FE 1YYYY     0.00000     0.09550
            126  FE 1ZZZZ     0.00000     0.08891
            127  FE 1XXXY     0.00000     0.00818
            128  FE 1XXXZ     0.00000     0.00759
            129  FE 1YYYX     0.00000     0.00818
            130  FE 1YYYZ     0.00000     0.00759
            131  FE 1ZZZX     0.00000     0.00780
            132  FE 1ZZZY     0.00000     0.00780
            133  FE 1XXYY     0.00000     0.07689
            134  FE 1XXZZ     0.00000     0.08335
            135  FE 1YYZZ     0.00000     0.08335
            136  FE 1XXYZ     0.00000     0.00308
            137  FE 1YYXZ     0.00000     0.00308
            138  FE 1ZZXY     0.00000     0.00338
            139  FE 1XXXX     0.00000     0.18408
            140  FE 1YYYY     0.00000     0.18408
            141  FE 1ZZZZ     0.00000     0.12447
            142  FE 1XXXY     0.00001     0.05539
            143  FE 1XXXZ     0.00001     0.05359
            144  FE 1YYYX     0.00001     0.05539
            145  FE 1YYYZ     0.00000     0.05359
            146  FE 1ZZZX     0.00000     0.05545
            147  FE 1ZZZY     0.00000     0.05545
            148  FE 1XXYY     0.00000     0.06585
            149  FE 1XXZZ     0.00000     0.08232
            150  FE 1YYZZ     0.00000     0.08232
            151  FE 1XXYZ     0.00000     0.02251
            152  FE 1YYXZ     0.00000     0.02251
            153  FE 1ZZXY     0.00000     0.02356
            154  FE 1XXXX     0.00000     0.36359
            155  FE 1YYYY     0.00000     0.36359
            156  FE 1ZZZZ     0.00000     0.24470
            157  FE 1XXXY     0.00001     0.13086
            158  FE 1XXXZ     0.00001     0.12998
            159  FE 1YYYX     0.00001     0.13086
            160  FE 1YYYZ     0.00000     0.12998
            161  FE 1ZZZX     0.00000     0.13341
            162  FE 1ZZZY     0.00000     0.13341
            163  FE 1XXYY     0.00000     0.11080
            164  FE 1XXZZ     0.00000     0.13725
            165  FE 1YYZZ     0.00000     0.13725
            166  FE 1XXYZ     0.00000     0.05392
            167  FE 1YYXZ     0.00000     0.05392
            168  FE 1ZZXY     0.00000     0.05466
            169  FE 1XXXX     0.00000     0.30979
            170  FE 1YYYY     0.00000     0.30979
            171  FE 1ZZZZ     0.00000     0.23060
            172  FE 1XXXY     0.00000     0.09631
            173  FE 1XXXZ     0.00000     0.09680
            174  FE 1YYYX     0.00000     0.09631
            175  FE 1YYYZ     0.00000     0.09680
            176  FE 1ZZZX     0.00000     0.09821
            177  FE 1ZZZY     0.00000     0.09821
            178  FE 1XXYY     0.00000     0.13456
            179  FE 1XXZZ     0.00000     0.15382
            180  FE 1YYZZ     0.00000     0.15382
            181  FE 1XXYZ     0.00000     0.04171
            182  FE 1YYXZ     0.00000     0.04171
            183  FE 1ZZXY     0.00000     0.04163

          ----- MULLIKEN ATOMIC OVERLAP POPULATIONS -----
          (OFF-DIAGONAL ELEMENTS NEED TO BE MULTIPLIED BY 2)

             1

    1   16.0000000

          TOTAL MULLIKEN AND LOWDIN ATOMIC POPULATIONS
       ATOM         MULL.POP.    CHARGE          LOW.POP.     CHARGE
    1 FE           16.000000    0.000000        16.000000   -0.000000

          MULLIKEN SPHERICAL HARMONIC POPULATIONS
       ATOM           S       P       D      F      G      H      I    TOTAL
    1 FE            4.00    6.00    6.00   0.00   0.00   0.00   0.00   16.00

          -------------------------------
          BOND ORDER AND VALENCE ANALYSIS     BOND ORDER THRESHOLD=0.050
          -------------------------------

                   BOND                       BOND                       BOND
  ATOM PAIR DIST  ORDER      ATOM PAIR DIST  ORDER      ATOM PAIR DIST  ORDER

                       TOTAL       BONDED        FREE
      ATOM            VALENCE     VALENCE     VALENCE
    1 FE                4.000       0.000       4.000

          -----------------------------------------
          ATOMIC SPIN DENSITY AT THE NUCLEUS (A.U.)
          -----------------------------------------
                            SPIN DENS    ALPHA DENS     BETA DENS
    1  FE          16.0     0.0000001       0.00142       0.00142

          ---------------------
          ELECTROSTATIC MOMENTS
          ---------------------

 POINT   1           X           Y           Z (BOHR)    CHARGE
                 0.000000    0.000000    0.000000       -0.00 (A.U.)
         DX          DY          DZ         /D/  (DEBYE)
     0.000000    0.000000    0.000000    0.000000
 ...... END OF PROPERTY EVALUATION ......
 STEP CPU TIME =     0.10 TOTAL CPU TIME =      491.2 (    8.2 MIN)
 TOTAL WALL CLOCK TIME=      491.7 SECONDS, CPU UTILIZATION IS  99.91%
               820873  WORDS OF DYNAMIC MEMORY USED
 EXECUTION OF GAMESS TERMINATED NORMALLY Fri Jul 20 14:56:39 2018
 DDI: 263640 bytes (0.3 MB / 0 MWords) used by master data server.

 ----------------------------------------
 CPU timing information for all processes
 ========================================
 0: 489.768 + 1.460 = 491.228
 ----------------------------------------
Note: The following floating-point exceptions are signalling: IEEE_UNDERFLOW_FLAG IEEE_DENORMAL
 ddikick.x: exited gracefully.
unset echo
----- accounting info -----
Files used on the master node gwang18-OptiPlex-3040 were:
-rw-rw-r-- 1 gwang18 gwang18    417065 7月  20 14:56 /home/gwang18/research/gamess/ecpcorrelation/fe/ccecp/fe_gs.dat
-rw------- 1 gwang18 gwang18    414328 7月  20 14:48 /home/gwang18/research/gamess/ecpcorrelation/fe/ccecp/fe_gs.F05
-rw-rw-r-- 1 gwang18 gwang18 217639344 7月  20 14:56 /home/gwang18/research/gamess/ecpcorrelation/fe/ccecp/fe_gs.F08
-rw-rw-r-- 1 gwang18 gwang18  11648320 7月  20 14:56 /home/gwang18/research/gamess/ecpcorrelation/fe/ccecp/fe_gs.F10
-rw------- 1 gwang18 gwang18    414328 7月  20 14:48 /home/gwang18/research/gamess/ecpcorrelation/fe/ccecp/fe_gs.inp
-rw-rw-r-- 1 gwang18 gwang18    420553 7月  20 14:56 /home/gwang18/research/gamess/ecpcorrelation/fe/ccecp/fe_gs.out
ls: No match.
ls: No match.
ls: No match.
2018年 07月 20日 星期五 14:56:42 EDT
0.0u 0.0s 8:14.81 0.0% 0+0k 0+816io 0pf+0w
