
 Primary working directories    : /global/cscratch1/sd/aannabe
 Secondary working directories  : /global/cscratch1/sd/aannabe
 Wavefunction directory         : /global/homes/a/aannabe/wfu/
 Main file repository           : /global/cscratch1/sd/aannabe/

 SHA1      : 2873118e99aab1bc19f5b6fc1784693c06d15c95
 NAME      : 2015.1.8
 ARCHNAME  : linux/x86_64
 FC        : /opt/cray/pe/craype/2.5.5/bin/ftn
 BLASLIB   : -Wl,-_start-group /opt/intel/compilers_and_libraries_2016.3.210/linux/mkl/lib/intel64/libmkl_intel_ilp64.a /opt/intel/compilers_and_libraries_2016.3.210/linux/mkl/lib/intel64/libmkl_intel_thread.a /opt/intel/compilers_and_libraries_2016.3.210/linux/mkl/lib/intel64/libmkl_core.a -Wl,-_end-group
 id        : lbl

 Nodes     nprocs
 nid00495     1

 Using customized tuning parameters: mindgm=8; mindgv=16; mindgc=4; mindgr=1; noblas=0; minvec=7
 default implementation of scratch files=df  

 ***,V
 memory,512,m
 gthresh,twoint=1.e-12
 
 gprint,basis,orbitals
 gexpec,ekin,pot
 
 angstrom
 geometry={
 1                                                                               ! Number of atoms
 V 0.0 0.0 0.0
 }
 
 basis={
 Including file /global/homes/a/aannabe/docs/accurate/ccECP_D2h/pps/V.pp
                                              !include,/global/homes/a/aannabe/docs/accurate/ccECP_D2h/basis/aug-cc-pVnZ/V_tz.basis
 Including file /global/homes/a/aannabe/docs/accurate/ccECP_D2h/basis/cc-pVnZ/V_tz.basis
 }
 
 {hf
 wf,13,6,3
 occ,4,1,1,0,1,1,0,0
 open,3.1,4.1,1.6
 sym,1,1,1
 }
 scf(i)=energy
 
 _CC_NORM_MAX=2.0
 {rccsd(t)
 maxit,100
 core
 }
 posthf(i)=energy
 
 table,scf,posthf,ekin,pot
 save,3.csv,new
 
 

 Variables initialized (889), CPU time= 0.00 sec
 Commands  initialized (702), CPU time= 0.01 sec, 572 directives.
 Default parameters read. Elapsed time= 0.20 sec

 Checking input...
 Passed
1


                                         ***  PROGRAM SYSTEM MOLPRO  ***
                                       Copyright, TTI GmbH Stuttgart, 2015
                                    Version 2015.1 linked Sep  7 2016 23:09:38


 **********************************************************************************************************************************
 LABEL *   V                                                                             
  64 bit serial version                                                                  DATE: 13-Nov-18          TIME: 22:25:37  
 **********************************************************************************************************************************

 SHA1:             2873118e99aab1bc19f5b6fc1784693c06d15c95
 **********************************************************************************************************************************

 THRESHOLDS:

 ZERO    =  1.00D-12  ONEINT  =  1.00D-12  TWOINT  =  1.00D-12  PREFAC  =  1.00D-14  LOCALI  =  1.00D-09  EORDER  =  1.00D-04
 ENERGY  =  0.00D+00  ETEST   =  0.00D+00  EDENS   =  0.00D+00  THRDEDEF=  1.00D-06  GRADIENT=  1.00D-02  STEP    =  1.00D-03
 ORBITAL =  1.00D-05  CIVEC   =  1.00D-05  COEFF   =  1.00D-04  PRINTCI =  5.00D-02  PUNCHCI =  9.90D+01  OPTGRAD =  3.00D-04
 OPTENERG=  1.00D-06  OPTSTEP =  3.00D-04  THRGRAD =  1.00D-10  COMPRESS=  1.00D-11  VARMIN  =  1.00D-07  VARMAX  =  1.00D-03
 THRDOUB =  0.00D+00  THRDIV  =  1.00D-05  THRRED  =  1.00D-07  THRPSP  =  1.00D+00  THRDC   =  1.00D-10  THRCS   =  1.00D-10
 THRNRM  =  1.00D-08  THREQ   =  0.00D+00  THRDE   =  1.00D+00  THRREF  =  1.00D-05  SPARFAC =  1.00D+00  THRDLP  =  1.00D-07
 THRDIA  =  1.00D-10  THRDLS  =  1.00D-07  THRGPS  =  0.00D+00  THRKEX  =  0.00D+00  THRDIS  =  2.00D-01  THRVAR  =  1.00D-10
 THRLOC  =  1.00D-06  THRGAP  =  1.00D-06  THRLOCT = -1.00D+00  THRGAPT = -1.00D+00  THRORB  =  1.00D-06  THRMLTP =  0.00D+00
 THRCPQCI=  1.00D-10  KEXTA   =  0.00D+00  THRCOARS=  0.00D+00  SYMTOL  =  1.00D-06  GRADTOL =  1.00D-06  THROVL  =  1.00D-08
 THRORTH =  1.00D-08  GRID    =  1.00D-06  GRIDMAX =  1.00D-03  DTMAX   =  0.00D+00  THROCCDE=  1.00D-01  THROCCDE=  1.00D-01



 ZUNIT=ANG
 

Geometry recognized as XYZ


 Variable memory set to  512000000 words,  buffer space   230000 words

 SETTING BASIS          =    USERDEF


 Recomputing integrals since basis changed


 Using spherical harmonics



 PROGRAM * SEWARD (Integral evaluation for generally contracted gaussian basis sets)     Author: Roland Lindh, 1990

 Geometry written to block  1 of record 700

 Orientation using atomic masses  
 Molecule type: Atom
 Symmetry elements: X,Y,Z
 Rotational constants:       0.0000000      0.0000000      0.0000000 GHz  (calculated with average atomic masses)

 Point group  D2h 



 ATOMIC COORDINATES

 NR  ATOM    CHARGE       X              Y              Z

   1  V      13.00    0.000000000    0.000000000    0.000000000


          V   CORE POTENTIAL

          d POTENTIAL

 POWERS             1              3              2              2
 EXPONENTIALS   20.32169       19.59698       17.33147       5.123207    
 COEFFICIENTS   13.00000       264.1820      -115.2929     -0.6628873    

          s - d POTENTIAL

 POWERS             2              2
 EXPONENTIALS   15.12502       6.298989    
 COEFFICIENTS   195.5671       22.88643    

          p - d POTENTIAL

 POWERS             2              2
 EXPONENTIALS   15.93855       5.740063    
 COEFFICIENTS   126.4212       16.03597    


 BASIS DATA

   Nr Sym  Nuc  Type         Exponents   Contraction coefficients

    1.1 Ag    1  1s          68.577621     0.000804   -0.000177   -0.000583   -0.000765    0.000000
    2.1 Ag                   34.937147    -0.011594    0.002791    0.009570    0.014529    0.000000
    3.1 Ag                   17.939491     0.092209   -0.023650   -0.085606   -0.139618    0.000000
    4.1 Ag                   11.262123    -0.045477    0.012504    0.048426    0.063073    0.000000
    5.1 Ag                    6.776264    -0.287983    0.078761    0.331239    0.704193    0.000000
                              3.524091    -0.217648    0.054974    0.140352   -0.011602    0.000000
                              1.938421     0.407509   -0.118955   -0.907962   -2.311604    0.000000
                              0.927153     0.658193   -0.245341   -0.503878    0.768269    0.000000
                              0.448420     0.255234   -0.222959    0.398938    2.168920    0.000000
                              0.209668     0.008620    0.047809    0.971131   -1.062671    0.000000
                              0.103660     0.002734    0.415374    0.423999   -1.218151    0.000000
                              0.050630    -0.001161    0.540880   -0.628646    0.340809    0.000000
                              0.024201     0.000294    0.183421   -0.467495    0.713322    1.000000
    6.1 Ag    1  1s           0.500174     1.000000
    7.1 Ag    1  1s           1.490795     1.000000
    8.1 Ag    1  3d0         89.989649     0.000051
                             33.132961     0.004804
                             15.879656     0.029485
                              7.465803     0.086249
                              3.551993     0.179728
                              1.728185     0.261850
                              0.850498     0.291794
                              0.417673     0.259356
                              0.201523     0.174944
                              0.100711     0.062278
                              0.058959     0.027653
    9.1 Ag    1  3d2+        89.989649     0.000051
                             33.132961     0.004804
                             15.879656     0.029485
                              7.465803     0.086249
                              3.551993     0.179728
                              1.728185     0.261850
                              0.850498     0.291794
                              0.417673     0.259356
                              0.201523     0.174944
                              0.100711     0.062278
                              0.058959     0.027653
   10.1 Ag    1  3d0         89.989649    -0.000038
                             33.132961    -0.004590
                             15.879656    -0.027563
                              7.465803    -0.082775
                              3.551993    -0.173494
                              1.728185    -0.236188
                              0.850498    -0.149226
                              0.417673     0.044145
                              0.201523     0.390500
                              0.100711     0.203064
                              0.058959     0.398002
   11.1 Ag    1  3d2+        89.989649    -0.000038
                             33.132961    -0.004590
                             15.879656    -0.027563
                              7.465803    -0.082775
                              3.551993    -0.173494
                              1.728185    -0.236188
                              0.850498    -0.149226
                              0.417673     0.044145
                              0.201523     0.390500
                              0.100711     0.203064
                              0.058959     0.398002
   12.1 Ag    1  3d0         89.989649     0.000128
                             33.132961     0.006652
                             15.879656     0.044635
                              7.465803     0.122559
                              3.551993     0.311147
                              1.728185     0.288813
                              0.850498    -0.142246
                              0.417673    -0.613737
                              0.201523    -0.123916
                              0.100711    -0.020235
                              0.058959     0.733259
   13.1 Ag    1  3d2+        89.989649     0.000128
                             33.132961     0.006652
                             15.879656     0.044635
                              7.465803     0.122559
                              3.551993     0.311147
                              1.728185     0.288813
                              0.850498    -0.142246
                              0.417673    -0.613737
                              0.201523    -0.123916
                              0.100711    -0.020235
                              0.058959     0.733259
   14.1 Ag    1  3d0         89.989649     0.000000
                             33.132961     0.000000
                             15.879656     0.000000
                              7.465803     0.000000
                              3.551993     0.000000
                              1.728185     0.000000
                              0.850498     0.000000
                              0.417673     0.000000
                              0.201523     0.000000
                              0.100711     0.000000
                              0.058959     1.000000
   15.1 Ag    1  3d2+        89.989649     0.000000
                             33.132961     0.000000
                             15.879656     0.000000
                              7.465803     0.000000
                              3.551993     0.000000
                              1.728185     0.000000
                              0.850498     0.000000
                              0.417673     0.000000
                              0.201523     0.000000
                              0.100711     0.000000
                              0.058959     1.000000
   16.1 Ag    1  3d0          1.563648     1.000000
   17.1 Ag    1  3d2+         1.563648     1.000000
   18.1 Ag    1  3d0          2.740176     1.000000
   19.1 Ag    1  3d2+         2.740176     1.000000
   20.1 Ag    1  5g0          1.977796     1.000000
   21.1 Ag    1  5g4+         1.977796     1.000000
   22.1 Ag    1  5g2+         1.977796     1.000000
   23.1 Ag    1  5g0          4.370840     1.000000
   24.1 Ag    1  5g4+         4.370840     1.000000
   25.1 Ag    1  5g2+         4.370840     1.000000
    1.2 B3u   1  2px         96.215967     0.000069    0.000040   -0.000053   -0.001262    0.000000
    2.2 B3u                  49.579340    -0.000672   -0.000133    0.000023    0.006419    0.000000
    3.2 B3u                  25.638009     0.008199   -0.000955    0.004629   -0.021229    0.000000
    4.2 B3u                  14.025942    -0.027108    0.003719   -0.007755    0.115777    0.000000
    5.2 B3u                   8.740334    -0.053021    0.018866   -0.104133   -0.420740    0.000000
                              4.634840     0.005002   -0.012074   -0.017762    0.197742    0.000000
                              2.553374     0.261986   -0.057107    0.728212    1.575600    0.000000
                              1.321166     0.433544   -0.146433    0.218826   -1.067913    0.000000
                              0.681285     0.324947   -0.067365   -0.493223   -1.310083    0.000000
                              0.349458     0.092342   -0.068254   -0.838192    1.191147    0.000000
                              0.172773     0.008964    0.403103    0.398401    0.550516    0.000000
                              0.063300     0.001185    0.502668    0.664589   -0.718788    0.000000
                              0.033969     0.000104    0.261291    0.033011   -0.157441    1.000000
    6.2 B3u   1  2px          1.552979     1.000000
    7.2 B3u   1  2px          4.879132     1.000000
    8.2 B3u   1  4f1+         0.552620     1.000000
    9.2 B3u   1  4f3+         0.552620     1.000000
   10.2 B3u   1  4f1+         2.328788     1.000000
   11.2 B3u   1  4f3+         2.328788     1.000000
   12.2 B3u   1  4f1+         4.698117     1.000000
   13.2 B3u   1  4f3+         4.698117     1.000000
    1.3 B2u   1  2py         96.215967     0.000069    0.000040   -0.000053   -0.001262    0.000000
    2.3 B2u                  49.579340    -0.000672   -0.000133    0.000023    0.006419    0.000000
    3.3 B2u                  25.638009     0.008199   -0.000955    0.004629   -0.021229    0.000000
    4.3 B2u                  14.025942    -0.027108    0.003719   -0.007755    0.115777    0.000000
    5.3 B2u                   8.740334    -0.053021    0.018866   -0.104133   -0.420740    0.000000
                              4.634840     0.005002   -0.012074   -0.017762    0.197742    0.000000
                              2.553374     0.261986   -0.057107    0.728212    1.575600    0.000000
                              1.321166     0.433544   -0.146433    0.218826   -1.067913    0.000000
                              0.681285     0.324947   -0.067365   -0.493223   -1.310083    0.000000
                              0.349458     0.092342   -0.068254   -0.838192    1.191147    0.000000
                              0.172773     0.008964    0.403103    0.398401    0.550516    0.000000
                              0.063300     0.001185    0.502668    0.664589   -0.718788    0.000000
                              0.033969     0.000104    0.261291    0.033011   -0.157441    1.000000
    6.3 B2u   1  2py          1.552979     1.000000
    7.3 B2u   1  2py          4.879132     1.000000
    8.3 B2u   1  4f1-         0.552620     1.000000
    9.3 B2u   1  4f3-         0.552620     1.000000
   10.3 B2u   1  4f1-         2.328788     1.000000
   11.3 B2u   1  4f3-         2.328788     1.000000
   12.3 B2u   1  4f1-         4.698117     1.000000
   13.3 B2u   1  4f3-         4.698117     1.000000
    1.4 B1g   1  3d2-        89.989649     0.000051   -0.000038    0.000128    0.000000
    2.4 B1g                  33.132961     0.004804   -0.004590    0.006652    0.000000
    3.4 B1g                  15.879656     0.029485   -0.027563    0.044635    0.000000
    4.4 B1g                   7.465803     0.086249   -0.082775    0.122559    0.000000
                              3.551993     0.179728   -0.173494    0.311147    0.000000
                              1.728185     0.261850   -0.236188    0.288813    0.000000
                              0.850498     0.291794   -0.149226   -0.142246    0.000000
                              0.417673     0.259356    0.044145   -0.613737    0.000000
                              0.201523     0.174944    0.390500   -0.123916    0.000000
                              0.100711     0.062278    0.203064   -0.020235    0.000000
                              0.058959     0.027653    0.398002    0.733259    1.000000
    5.4 B1g   1  3d2-         1.563648     1.000000
    6.4 B1g   1  3d2-         2.740176     1.000000
    7.4 B1g   1  5g2-         1.977796     1.000000
    8.4 B1g   1  5g4-         1.977796     1.000000
    9.4 B1g   1  5g2-         4.370840     1.000000
   10.4 B1g   1  5g4-         4.370840     1.000000
    1.5 B1u   1  2pz         96.215967     0.000069    0.000040   -0.000053   -0.001262    0.000000
    2.5 B1u                  49.579340    -0.000672   -0.000133    0.000023    0.006419    0.000000
    3.5 B1u                  25.638009     0.008199   -0.000955    0.004629   -0.021229    0.000000
    4.5 B1u                  14.025942    -0.027108    0.003719   -0.007755    0.115777    0.000000
    5.5 B1u                   8.740334    -0.053021    0.018866   -0.104133   -0.420740    0.000000
                              4.634840     0.005002   -0.012074   -0.017762    0.197742    0.000000
                              2.553374     0.261986   -0.057107    0.728212    1.575600    0.000000
                              1.321166     0.433544   -0.146433    0.218826   -1.067913    0.000000
                              0.681285     0.324947   -0.067365   -0.493223   -1.310083    0.000000
                              0.349458     0.092342   -0.068254   -0.838192    1.191147    0.000000
                              0.172773     0.008964    0.403103    0.398401    0.550516    0.000000
                              0.063300     0.001185    0.502668    0.664589   -0.718788    0.000000
                              0.033969     0.000104    0.261291    0.033011   -0.157441    1.000000
    6.5 B1u   1  2pz          1.552979     1.000000
    7.5 B1u   1  2pz          4.879132     1.000000
    8.5 B1u   1  4f0          0.552620     1.000000
    9.5 B1u   1  4f2+         0.552620     1.000000
   10.5 B1u   1  4f0          2.328788     1.000000
   11.5 B1u   1  4f2+         2.328788     1.000000
   12.5 B1u   1  4f0          4.698117     1.000000
   13.5 B1u   1  4f2+         4.698117     1.000000
    1.6 B2g   1  3d1+        89.989649     0.000051   -0.000038    0.000128    0.000000
    2.6 B2g                  33.132961     0.004804   -0.004590    0.006652    0.000000
    3.6 B2g                  15.879656     0.029485   -0.027563    0.044635    0.000000
    4.6 B2g                   7.465803     0.086249   -0.082775    0.122559    0.000000
                              3.551993     0.179728   -0.173494    0.311147    0.000000
                              1.728185     0.261850   -0.236188    0.288813    0.000000
                              0.850498     0.291794   -0.149226   -0.142246    0.000000
                              0.417673     0.259356    0.044145   -0.613737    0.000000
                              0.201523     0.174944    0.390500   -0.123916    0.000000
                              0.100711     0.062278    0.203064   -0.020235    0.000000
                              0.058959     0.027653    0.398002    0.733259    1.000000
    5.6 B2g   1  3d1+         1.563648     1.000000
    6.6 B2g   1  3d1+         2.740176     1.000000
    7.6 B2g   1  5g1+         1.977796     1.000000
    8.6 B2g   1  5g3+         1.977796     1.000000
    9.6 B2g   1  5g1+         4.370840     1.000000
   10.6 B2g   1  5g3+         4.370840     1.000000
    1.7 B3g   1  3d1-        89.989649     0.000051   -0.000038    0.000128    0.000000
    2.7 B3g                  33.132961     0.004804   -0.004590    0.006652    0.000000
    3.7 B3g                  15.879656     0.029485   -0.027563    0.044635    0.000000
    4.7 B3g                   7.465803     0.086249   -0.082775    0.122559    0.000000
                              3.551993     0.179728   -0.173494    0.311147    0.000000
                              1.728185     0.261850   -0.236188    0.288813    0.000000
                              0.850498     0.291794   -0.149226   -0.142246    0.000000
                              0.417673     0.259356    0.044145   -0.613737    0.000000
                              0.201523     0.174944    0.390500   -0.123916    0.000000
                              0.100711     0.062278    0.203064   -0.020235    0.000000
                              0.058959     0.027653    0.398002    0.733259    1.000000
    5.7 B3g   1  3d1-         1.563648     1.000000
    6.7 B3g   1  3d1-         2.740176     1.000000
    7.7 B3g   1  5g1-         1.977796     1.000000
    8.7 B3g   1  5g3-         1.977796     1.000000
    9.7 B3g   1  5g1-         4.370840     1.000000
   10.7 B3g   1  5g3-         4.370840     1.000000
    1.8 Au    1  4f2-         0.552620     1.000000
    2.8 Au    1  4f2-         2.328788     1.000000
    3.8 Au    1  4f2-         4.698117     1.000000

 NUCLEAR CHARGE:                   13
 NUMBER OF PRIMITIVE AOS:         198
 NUMBER OF SYMMETRY AOS:          164
 NUMBER OF CONTRACTIONS:           97   (  25Ag  +  13B3u +  13B2u +  10B1g +  13B1u +  10B2g +  10B3g +   3Au  )
 NUMBER OF CORE ORBITALS:           4   (   1Ag  +   1B3u +   1B2u +   0B1g +   1B1u +   0B2g +   0B3g +   0Au  )
 NUMBER OF VALENCE ORBITALS:        6   (   3Ag  +   0B3u +   0B2u +   1B1g +   0B1u +   1B2g +   1B3g +   0Au  )


 NUCLEAR REPULSION ENERGY    0.00000000

 EXTRA SYMMETRY OF AOS IN SYMMETRY 1:   1 1 1 1 1 1 1 2 3 2   3 2 3 2 3 2 3 2 3 4   5 6 4 5 6
 EXTRA SYMMETRY OF AOS IN SYMMETRY 2:   1 1 1 1 1 1 1 2 3 2   3 2 3
 EXTRA SYMMETRY OF AOS IN SYMMETRY 3:   1 1 1 1 1 1 1 2 3 2   3 2 3
 EXTRA SYMMETRY OF AOS IN SYMMETRY 4:   1 1 1 1 1 1 2 3 2 3
 EXTRA SYMMETRY OF AOS IN SYMMETRY 5:   1 1 1 1 1 1 1 2 3 2   3 2 3
 EXTRA SYMMETRY OF AOS IN SYMMETRY 6:   1 1 1 1 1 1 2 3 2 3
 EXTRA SYMMETRY OF AOS IN SYMMETRY 7:   1 1 1 1 1 1 2 3 2 3

 Eigenvalues of metric

         1 0.871E-03 0.109E-01 0.109E-01 0.159E-01 0.353E-01 0.353E-01 0.624E-01 0.945E-01
         2 0.188E-02 0.653E-01 0.202E+00 0.202E+00 0.203E+00 0.555E+00 0.918E+00 0.918E+00
         3 0.188E-02 0.653E-01 0.202E+00 0.202E+00 0.203E+00 0.555E+00 0.918E+00 0.918E+00
         4 0.109E-01 0.353E-01 0.945E-01 0.344E+00 0.344E+00 0.105E+01 0.166E+01 0.166E+01
         5 0.188E-02 0.653E-01 0.202E+00 0.202E+00 0.203E+00 0.555E+00 0.918E+00 0.918E+00
         6 0.109E-01 0.353E-01 0.945E-01 0.344E+00 0.344E+00 0.105E+01 0.166E+01 0.166E+01
         7 0.109E-01 0.353E-01 0.945E-01 0.344E+00 0.344E+00 0.105E+01 0.166E+01 0.166E+01
         8 0.202E+00 0.918E+00 0.188E+01


 Contracted 2-electron integrals neglected if value below      1.0D-12
 AO integral compression algorithm  1   Integral accuracy      1.0D-12

     14.156 MB (compressed) written to integral file ( 64.7%)


 NUMBER OF SORTED TWO-ELECTRON INTEGRALS:    1497820.     BUFFER LENGTH:  32768
 NUMBER OF SEGMENTS:   1  SEGMENT LENGTH:    1497820      RECORD LENGTH: 524288

 Memory used in sort:       2.05 MW

 SORT1 READ     2746375. AND WROTE     1138997. INTEGRALS IN      4 RECORDS. CPU TIME:     0.07 SEC, REAL TIME:     0.12 SEC
 SORT2 READ     1138997. AND WROTE     1497820. INTEGRALS IN     54 RECORDS. CPU TIME:     0.09 SEC, REAL TIME:     0.19 SEC

 FILE SIZES:   FILE 1:    33.5 MBYTE,  FILE 4:    16.8 MBYTE,   TOTAL:     50.3 MBYTE

 OPERATOR DM      FOR CENTER  0  COORDINATES:    0.000000    0.000000    0.000000
 OPERATOR EKIN    FOR CENTER  0  COORDINATES:    0.000000    0.000000    0.000000
 OPERATOR POT     FOR CENTER  0  COORDINATES:    0.000000    0.000000    0.000000


 **********************************************************************************************************************************
 DATASETS  * FILE   NREC   LENGTH (MB)   RECORD NAMES
              1      20       26.83       500      610      700      900      950      970     1000      129      960     1100   
                                          VAR    BASINP    GEOM    SYMINP    ZMAT    AOBASIS   BASIS     P2S    ABASIS      S 
                                         1400     1410     1420     1200     1210     1080     1600     1650     1300     1700   
                                         EKIN       V       ECP      H0       H01     AOSYM     SMH    MOLCAS    ERIS     OPER   

 PROGRAMS   *        TOTAL       INT
 CPU TIMES  *         2.22      2.10
 REAL TIME  *         7.43 SEC
 DISK USED  *        50.59 MB      
 **********************************************************************************************************************************


 PROGRAM * RHF-SCF (OPEN SHELL)       Authors: W. Meyer, H.-J. Werner


 NUMBER OF ELECTRONS:       8+    5-    SPACE SYMMETRY=6    SPIN SYMMETRY: Quartet 
 CONVERGENCE THRESHOLDS:    1.00E-05 (Density)    1.00E-07 (Energy)
 MAX. NUMBER OF ITERATIONS:       60
 INTERPOLATION TYPE:            DIIS
 INTERPOLATION STEPS:              2 (START)      1 (STEP)
 LEVEL SHIFTS:                 -0.60 (CLOSED) -0.30 (OPEN) 


 Singly occupied orbitals:      3.1       4.1       1.6
 
 Extra symmetries of mos in symmetry 1:   1   1

   Atom=V  basis=ECP10MDF_GUESS    lmin=0  lmax=2

 Orbital guess generated from atomic densities. Full valence occupancy:    4   1   1   1   1   1   1   0


 Molecular orbital dump at record        2100.2

 ITERATION    DDIFF          GRAD             ENERGY        2-EL.EN.            DIPOLE MOMENTS         DIIS   ORB.
    1      0.000D+00      0.000D+00       -70.70613103     94.193716    0.00000    0.00000    0.00000    0    start
    2      0.000D+00      0.268D-01       -70.86050752    100.740872    0.00000    0.00000    0.00000    1    diag,B
    3      0.131D-01      0.151D-01       -70.87666769    100.376532    0.00000    0.00000    0.00000    2    diag,B
    4      0.358D-02      0.597D-02       -70.88571583    100.566431    0.00000    0.00000    0.00000    3    diag,B
    5      0.514D-02      0.129D-02       -70.88671642    100.626670    0.00000    0.00000    0.00000    4    diag,B
    6      0.273D-02      0.420D-03       -70.88683606    100.580297    0.00000    0.00000    0.00000    5    diag,B
    7      0.120D-02      0.176D-03       -70.88686408    100.542778    0.00000    0.00000    0.00000    6    fixocc
    8      0.123D-02      0.793D-04       -70.88687093    100.530953    0.00000    0.00000    0.00000    7    diag,B
    9      0.141D-02      0.308D-04       -70.88687196    100.523987    0.00000    0.00000    0.00000    8    diag,B
   10      0.776D-03      0.409D-05       -70.88687197    100.523942    0.00000    0.00000    0.00000    9    orth
   11      0.445D-04      0.112D-05       -70.88687197    100.523921    0.00000    0.00000    0.00000    9    diag,B
   12      0.425D-05      0.567D-06       -70.88687052    100.523243    0.00000    0.00000    0.00000    0    orth

 Final alpha occupancy:   4   1   1   0   1   1   0   0
 Final beta  occupancy:   2   1   1   0   1   0   0   0

 !RHF STATE 1.6 Energy                -70.886870519092
 Nuclear energy                         0.00000000
 One-electron energy                 -121.14849213
 Two-electron energy                   50.26162161
 Virial quotient                       -2.05221965
 !RHF STATE 1.6 Dipole moment           0.00000000     0.00000000     0.00000000
 Dipole moment /Debye                   0.00000000     0.00000000     0.00000000
 

 !RHF expec          <1.6|EKIN|1.6>    34.541561079454
 
 !RHF expec           <1.6|POT|1.6>   -12.768549489981

 ELECTRON ORBITALS
 =================


   Orb  Occ    Energy  Couls-En    Coefficients

                                   1 1s      1 1s      1 1s      1 1s      1 1s      1 1s      1 1s      1 3d0     1 3d2+    1 3d0  
                                   1 3d2+    1 3d0     1 3d2+    1 3d0     1 3d2+    1 3d0     1 3d2+    1 3d0     1 3d2+    1 5g0  
                                   1 5g4+    1 5g2+    1 5g0     1 5g4+    1 5g2+ 

   1.1   2    -3.2343  -15.1576  0.999804 -0.000117  0.000041  0.000034  0.000002  0.000140 -0.000062 -0.006201 -0.010740  0.001441
                                 0.002497 -0.000511 -0.000884 -0.000102 -0.000177 -0.001075 -0.001862 -0.000198 -0.000344  0.000383
                                 0.000755  0.000571  0.000043  0.000085  0.000064

   2.1   2    -0.2326   -4.2551 -0.000054  0.999709 -0.000310  0.000088  0.000001 -0.000164  0.000077 -0.011147 -0.019307 -0.009116
                                -0.015790 -0.000976 -0.001690  0.002011  0.003482  0.000538  0.000931  0.000001  0.000001  0.000100
                                 0.000197  0.000149  0.000002  0.000003  0.000003

   3.1   +    -0.5358   -8.9535  0.014644  0.017286  0.003876 -0.000966  0.001531 -0.000043 -0.000056  0.492840  0.853623 -0.053641
                                -0.092910 -0.007731 -0.013391  0.014400  0.024942  0.000538  0.000931  0.000147  0.000254 -0.001417
                                -0.002795 -0.002113 -0.000132 -0.000260 -0.000197

   4.1   +    -0.4803   -8.8119 -0.000000 -0.000000 -0.000000 -0.000000  0.000000  0.000000 -0.000000  0.860675 -0.496911 -0.063652
                                 0.036749 -0.009606  0.005546  0.013048 -0.007533 -0.000870  0.000502  0.000083 -0.000048  0.001127
                                -0.001333  0.001008  0.000098 -0.000116  0.000088

                                   1 2px     1 2px     1 2px     1 2px     1 2px     1 2px     1 2px     1 4f1+    1 4f3+    1 4f1+ 
                                   1 4f3+    1 4f1+    1 4f3+ 

   1.2   2    -2.0297  -12.7234  1.002452  0.031172 -0.021675  0.004340 -0.005848 -0.002143  0.000172  0.000842  0.003259  0.000206
                                 0.000799  0.000125  0.000485

                                   1 2py     1 2py     1 2py     1 2py     1 2py     1 2py     1 2py     1 4f1-    1 4f3-    1 4f1- 
                                   1 4f3-    1 4f1-    1 4f3- 

   1.3   2    -2.0381  -12.7385  1.001510  0.027042 -0.019573  0.003328 -0.005022 -0.001015 -0.000295 -0.005625 -0.007262 -0.004524
                                -0.005840 -0.000601 -0.000776

                                   1 2pz     1 2pz     1 2pz     1 2pz     1 2pz     1 2pz     1 2pz     1 4f0     1 4f2+    1 4f0  
                                   1 4f2+    1 4f0     1 4f2+ 

   1.5   2    -2.0297  -12.7234  1.002452  0.031172 -0.021675  0.004340 -0.005848 -0.002143  0.000172  0.002061  0.002661  0.000505
                                 0.000652  0.000306  0.000396

                                   1 3d1+    1 3d1+    1 3d1+    1 3d1+    1 3d1+    1 3d1+    1 5g1+    1 5g3+    1 5g1+    1 5g3+ 


   1.6   +    -0.4803   -8.8119  0.993821 -0.073499 -0.011092  0.015066 -0.001005  0.000096  0.000713  0.001885  0.000062  0.000164

 HOMO      4.1    -0.480341 =     -13.0707eV
 LUMO      2.3     0.028813 =       0.7841eV
 LUMO-HOMO         0.509154 =      13.8548eV


 **********************************************************************************************************************************
 DATASETS  * FILE   NREC   LENGTH (MB)   RECORD NAMES
              1      20       26.83       500      610      700      900      950      970     1000      129      960     1100   
                                          VAR    BASINP    GEOM    SYMINP    ZMAT    AOBASIS   BASIS     P2S    ABASIS      S 
                                         1400     1410     1420     1200     1210     1080     1600     1650     1300     1700   
                                         EKIN       V       ECP      H0       H01     AOSYM     SMH    MOLCAS    ERIS     OPER   

              2       4        2.81       700     1000      520     2100   
                                         GEOM     BASIS   MCVARS     RHF  

 PROGRAMS   *        TOTAL        HF       INT
 CPU TIMES  *         2.35      0.13      2.10
 REAL TIME  *         7.75 SEC
 DISK USED  *        50.59 MB      
 **********************************************************************************************************************************
 SETTING SCF(I)         =       -70.88687052  AU                              
 SETTING _CC_NORM_MAX   =         2.00000000                                  


 PROGRAM * CCSD (Restricted open-shell coupled cluster)     Authors: C. Hampel, H.-J. Werner, 1991, M. Deegan, P.J. Knowles, 1992


 Convergence thresholds:  THRVAR = 1.00D-08  THRDEN = 1.00D-06

 CCSD(T)     terms to be evaluated (factor= 1.000)


 Number of closed-shell orbitals:   5 (   2   1   1   0   1   0   0   0 )
 Number of active  orbitals:        3 (   2   0   0   0   0   1   0   0 )
 Number of external orbitals:      89 (  21  12  12  10  12   9  10   3 )

 Memory could be reduced to 2.00 Mwords without degradation in triples

 Number of N-1 electron functions:              13
 Number of N-2 electron functions:              78
 Number of singly external CSFs:               220
 Number of doubly external CSFs:             65400
 Total number of CSFs:                       65620

 Molecular orbitals read from record     2100.2  Type=RHF/CANONICAL (state 1.6)

 Integral transformation finished. Total CPU:   0.03 sec, npass=  1  Memory used:   0.36 MW

 Starting RMP2 calculation

 Wavefunction is spin-projected

 ITER.      SQ.NORM     CORR.ENERGY   TOTAL ENERGY   ENERGY CHANGE        DEN1      VAR(S)    VAR(P)  DIIS     TIME
   1      1.09561554    -0.45880572   -71.34567624    -0.45880572    -0.00116124  0.37D-05  0.10D-02  1  1     0.04
   2      1.09838691    -0.46006774   -71.34693826    -0.00126202    -0.00002372  0.14D-06  0.28D-04  2  2     0.04
   3      1.09891165    -0.46022707   -71.34709759    -0.00015933    -0.00000013  0.76D-08  0.14D-06  3  3     0.05
   4      1.09893392    -0.46023153   -71.34710205    -0.00000446    -0.00000000  0.35D-09  0.18D-08  4  4     0.05
   5      1.09893427    -0.46023146   -71.34710197     0.00000007    -0.00000000  0.28D-10  0.95D-11  5  5     0.06

 Norm of t1 vector:      0.03333421      S-energy:    -0.00424178      T1 diagnostic:  0.00046369
 Norm of t2 vector:      0.31276685      P-energy:    -0.45598968
                                         Alpha-Beta:  -0.32786099
                                         Alpha-Alpha: -0.08558026
                                         Beta-Beta:   -0.04254843

 Spin contamination <S**2-Sz**2-Sz>     0.00000000
  Reference energy                    -70.886870519092
  RHF-RMP2 correlation energy          -0.460231455001
 !RHF-RMP2 energy                     -71.347101974093
 (NB above energy spin projected)

 Starting RCCSD calculation

 ITER.      SQ.NORM     CORR.ENERGY   TOTAL ENERGY   ENERGY CHANGE        DEN1      VAR(S)    VAR(P)  DIIS     TIME
   1      1.10659405    -0.46711164   -71.35398216    -0.46711164    -0.00864819  0.23D-02  0.33D-02  1  1     0.18
   2      1.12392622    -0.47589977   -71.36277029    -0.00878812    -0.00110745  0.41D-03  0.70D-03  2  2     0.28
   3      1.13539336    -0.47849703   -71.36536755    -0.00259726    -0.00022302  0.11D-03  0.13D-03  3  3     0.39
   4      1.14402294    -0.47997761   -71.36684813    -0.00148058    -0.00003869  0.42D-05  0.23D-04  4  4     0.51
   5      1.14740253    -0.48037132   -71.36724184    -0.00039371    -0.00001642  0.44D-05  0.96D-05  5  5     0.62
   6      1.14819956    -0.48041869   -71.36728921    -0.00004737    -0.00000568  0.22D-05  0.30D-05  6  6     0.74
   7      1.14820727    -0.48040619   -71.36727671     0.00001250    -0.00000117  0.68D-06  0.57D-06  6  1     0.86
   8      1.14808266    -0.48038416   -71.36725468     0.00002204    -0.00000028  0.11D-06  0.16D-06  6  2     0.98
   9      1.14808612    -0.48038658   -71.36725710    -0.00000242    -0.00000007  0.54D-07  0.24D-07  6  3     1.10
  10      1.14809501    -0.48038575   -71.36725627     0.00000083    -0.00000003  0.27D-07  0.67D-08  6  4     1.21
  11      1.14811130    -0.48038611   -71.36725663    -0.00000036    -0.00000001  0.13D-07  0.27D-08  6  5     1.31
  12      1.14811884    -0.48038480   -71.36725532     0.00000131    -0.00000000  0.42D-08  0.93D-09  6  6     1.43
  13      1.14812694    -0.48038428   -71.36725480     0.00000052    -0.00000000  0.31D-09  0.88D-09  6  1     1.54

 Norm of t1 vector:      0.11252020      S-energy:    -0.00440745      T1 diagnostic:  0.02015346
                                                                       D1 diagnostic:  0.06613799
 Norm of t2 vector:      0.36805725      P-energy:    -0.47597683
                                         Alpha-Beta:  -0.35185184
                                         Alpha-Alpha: -0.08318744
                                         Beta-Beta:   -0.04093755

 Singles amplitudes (print threshold =  0.500E-01):

         I         SYM. A    A   T(IA) [Alpha-Alpha]

         2         1         3     -0.07580591

 Doubles amplitudes (print threshold =  0.500E-01):

         I         J         SYM. A    SYM. B    A         B      T(IJ, AB) [Alpha-Beta]

         2         2         2         2         1         1     -0.08501320
         2         2         2         2         1         2     -0.05317523
         2         2         2         2         2         1     -0.05317523
         2         2         3         3         1         1     -0.09690944
         2         2         3         3         1         2     -0.05990410
         2         2         3         3         2         1     -0.05990410
         2         2         5         5         1         1     -0.08501320
         2         2         5         5         1         2     -0.05317523
         2         2         5         5         2         1     -0.05317523

 Spin contamination <S**2-Sz**2-Sz>     0.00000000

 Memory could be reduced to 2.15 Mwords without degradation in triples
 

  Correlated core orbitals:             1.1       1.2       1.3       1.5
  Orbital energies:                    -3.3457   -2.1858   -2.1383   -2.1858
 
  RCCSD core-core energy               -0.228966260031
  RCCSD core-valence energy            -0.180905315498
  RCCSD valence correlation energy     -0.070512705146
 

 RESULTS
 =======

  Reference energy                    -70.886870519092
  RCCSD singles energy                 -0.004407447999
  RCCSD pair energy                    -0.475976832675
  RCCSD correlation energy             -0.480384280674
  Triples (T) contribution             -0.016916220022
  Total correlation energy             -0.497300500697
 
  RHF-RCCSD energy                    -71.367254799766
  RHF-RCCSD[T] energy                 -71.384457360556
  RHF-RCCSD-T energy                  -71.384136432854
 !RHF-RCCSD(T) energy                 -71.384171019789

 Program statistics:

 Available memory in ccsd:               511999308
 Min. memory needed in ccsd:                225069
 Max. memory used in ccsd:                  301139
 Max. memory used in cckext:                268448 (13 integral passes)
 Max. memory used in cckint:                363964 ( 1 integral passes)



 **********************************************************************************************************************************
 DATASETS  * FILE   NREC   LENGTH (MB)   RECORD NAMES
              1      20       26.83       500      610      700      900      950      970     1000      129      960     1100   
                                          VAR    BASINP    GEOM    SYMINP    ZMAT    AOBASIS   BASIS     P2S    ABASIS      S 
                                         1400     1410     1420     1200     1210     1080     1600     1650     1300     1700   
                                         EKIN       V       ECP      H0       H01     AOSYM     SMH    MOLCAS    ERIS     OPER   

              2       4        2.81       700     1000      520     2100   
                                         GEOM     BASIS   MCVARS     RHF  

 PROGRAMS   *        TOTAL  RCCSD(T)        HF       INT
 CPU TIMES  *         4.98      2.62      0.13      2.10
 REAL TIME  *        15.68 SEC
 DISK USED  *        61.92 MB      
 **********************************************************************************************************************************
 SETTING POSTHF(I)      =       -71.38417102  AU                              
                                                                                                                                                                                                                                                                

        SCF            POSTHF        EKIN           POT
    -70.88687052   -71.38417102   34.54156108   -12.76854949
                                                  

 RCCSD(T)/USERDEF energy=    -71.384171019789

        RCCSD(T)        HF-SCF  
    -71.38417102    -70.88687052
 **********************************************************************************************************************************
 Variable memory released
