TACC:  Starting up job 3912524 
TACC:  Starting parallel tasks... 
  Input file(s): Ge.log.qmc.in-wfj.xml 

=====================================================
                    QMCPACK 3.7.9

       (c) Copyright 2003-  QMCPACK developers

                    Please cite:
 J. Kim et al. J. Phys. Cond. Mat. 30 195901 (2018)
      https://doi.org/10.1088/1361-648X/aab9c3

  Git branch: develop
  Last git commit: 9a049a3fb3e0d7110d61a924a52203fd8296522a
  Last git commit date: Mon Jul 1 13:42:43 2019 -0500
  Last git commit subject: Merge pull request #1686 from ye-luo/rename-to-LCAOHDFParser
=====================================================
  Global options 

  Total number of MPI ranks = 1024
  Number of MPI groups      = 1
  MPI group ID              = 0
  Number of ranks in group  = 1024
  MPI ranks per node        = 64
  OMP 1st level threads     = 1
  OMP nested threading disabled or only 1 thread on the 2nd level

  Precision used in this calculation, see definitions in the manual:
  Base precision      = double
  Full precision      = double

  Structure-of-arrays (SoA) optimization enabled

  Input XML = Ge.log.qmc.in-wfj.xml

  Project = Ge.log
  date    = 2019-07-01 18:23:46 CDT
  host    = c403-043.stampede2.tacc.utexas.edu

 Random Number
 -------------
  Offset for the random number seeds based on time: 514

  Range of prime numbers to use as seeds over processors and threads = 3697-12923


 Particle Set 
 ------------
  Name: ion0
  All the species have the same mass 1
  Particle set size: 1

 Particle Set 
 ------------
  Name: e
  All the species have the same mass 1
  Particle set size: 4

 Wavefunction setup: 
 ------------------- 
  Name: psi0
  LCAO: SoaAtomicBasisSet<MultiQuintic,1>
Reading BasisSet from HDF5 file:Ge.log.h5
<input node="atomicBasisSet" name="gaussian" expandYlm="pyscf" angular="spherical" elementType="Ge" normalized="no" type="Numerical" expM="0" />
  AO BasisSet for Ge
   Spherical Harmonics contain (-1)^m factor
   Angular momentum m expanded as -l, ... ,l, with the exception of L=1 (1,-1,0)
   Grid is created by the input paremters in h5
    Using log grid ri = 1e-06 rf = 100 npts = 1001
   R(n,l,m,s) 0 0 0 0
   R(n,l,m,s) 1 0 0 0
   R(n,l,m,s) 2 1 0 0
   R(n,l,m,s) 3 1 0 0
   R(n,l,m,s) 4 2 0 0
Expanding Ylm as L=1 as (1,-1,0) and L>1 as -l,-l+1,...,l-1,l
   Adding 1 spherical orbitals
   Adding 1 spherical orbitals
   Adding 3 spherical orbitals
   Adding 3 spherical orbitals
   Adding 5 spherical orbitals
  Setting cutoff radius 15.8489

   Maximum Angular Momentum  = 2
   Number of Radial functors = 5
   Basis size                = 13

  Created SPOSet builder named 'LCAOBSet' of type molecularorbital
Reuse SPOSetBuilder "LCAOBSet" type MolecularOrbital
  Building SPOSet '' with '' basis set.
Reuse SPOSetBuilder "LCAOBSet" type MolecularOrbital
  Building SPOSet '' with '' basis set.
  Creating a determinant updet group=0 sposet=updet
  Reusing a SPO set updet
Using DiracDeterminant with DelayedUpdate engine
Using rank-1 Sherman-Morrison Fahy update

  Creating a determinant downdet group=1 sposet=downdet
  Reusing a SPO set downdet
Using DiracDeterminant with DelayedUpdate engine
Using rank-1 Sherman-Morrison Fahy update

  FermionWF = SlaterDet

   Jastrow
   -------
    Name: J2   Type: Two-Body   Function: Bspline

    Radial function for species: u - u
     Number of parameters: 10
     Cusp: -0.25
     Cutoff radius: 10

     Name                        Value Type Recompute Use Index
     ---- ---------------------------- ---- --------- --- -----
     uu_0                 3.872419e-01    1         1  ON     0
     uu_1                 2.149031e-01    1         1  ON     1
     uu_2                 8.090860e-02    1         1  ON     2
     uu_3                 1.675894e-03    1         1  ON     3
     uu_4                -5.436763e-02    1         1  ON     4
     uu_5                -9.818710e-02    1         1  ON     5
     uu_6                -1.218724e-01    1         1  ON     6
     uu_7                -1.305922e-01    1         1  ON     7
     uu_8                -1.227772e-01    1         1  ON     8
     uu_9                -1.016413e-01    1         1  ON     9

    Radial function for species: u - d
     Number of parameters: 10
     Cusp: -0.5
     Cutoff radius: 10

     Name                        Value Type Recompute Use Index
     ---- ---------------------------- ---- --------- --- -----
     ud_0                 1.271072e+00    1         1  ON     0
     ud_1                 9.215287e-01    1         1  ON     1
     ud_2                 6.636413e-01    1         1  ON     2
     ud_3                 4.621089e-01    1         1  ON     3
     ud_4                 2.976843e-01    1         1  ON     4
     ud_5                 1.621965e-01    1         1  ON     5
     ud_6                 5.102628e-02    1         1  ON     6
     ud_7                -4.023720e-02    1         1  ON     7
     ud_8                -1.000415e-01    1         1  ON     8
     ud_9                -1.477956e-01    1         1  ON     9


   Jastrow
   -------
    Name: J1   Type: One-Body   Function: Bspline

    Radial function for element: Ge
     Number of parameters: 10
     Cusp: 0
     Cutoff radius: 10

      Name                        Value Type Recompute Use Index
     ----- ---------------------------- ---- --------- --- -----
     eGe_0                -5.463180e-01    1         1  ON     0
     eGe_1                -5.077627e-01    1         1  ON     1
     eGe_2                -4.515209e-01    1         1  ON     2
     eGe_3                -2.349879e-01    1         1  ON     3
     eGe_4                -3.638282e-02    1         1  ON     4
     eGe_5                 1.575875e-01    1         1  ON     5
     eGe_6                 2.949479e-01    1         1  ON     6
     eGe_7                 3.922572e-01    1         1  ON     7
     eGe_8                 3.943008e-01    1         1  ON     8
     eGe_9                 3.217510e-01    1         1  ON     9


   Jastrow
   -------
    Name: J3   Type: eeI   Function: polynomial

     Ion: Ge   electron-electron: u - u
      Number of parameters for e-e: 3, for e-I: 3
      Cutoff radius: 10

Expected 26 parameters, but found 0 in PolynomialFunctor3D.
         Name                        Value Type Recompute Use Index
      ------- ---------------------------- ---- --------- --- -----
       uuGe_0                 0.000000e+00    1         1  ON     0
       uuGe_1                 0.000000e+00    1         1  ON     1
       uuGe_2                 0.000000e+00    1         1  ON     2
       uuGe_3                 0.000000e+00    1         1  ON     3
       uuGe_4                 0.000000e+00    1         1  ON     4
       uuGe_5                 0.000000e+00    1         1  ON     5
       uuGe_6                 0.000000e+00    1         1  ON     6
       uuGe_7                 0.000000e+00    1         1  ON     7
       uuGe_8                 0.000000e+00    1         1  ON     8
       uuGe_9                 0.000000e+00    1         1  ON     9
      uuGe_10                 0.000000e+00    1         1  ON    10
      uuGe_11                 0.000000e+00    1         1  ON    11
      uuGe_12                 0.000000e+00    1         1  ON    12
      uuGe_13                 0.000000e+00    1         1  ON    13
      uuGe_14                 0.000000e+00    1         1  ON    14
      uuGe_15                 0.000000e+00    1         1  ON    15
      uuGe_16                 0.000000e+00    1         1  ON    16
      uuGe_17                 0.000000e+00    1         1  ON    17
      uuGe_18                 0.000000e+00    1         1  ON    18
      uuGe_19                 0.000000e+00    1         1  ON    19
      uuGe_20                 0.000000e+00    1         1  ON    20
      uuGe_21                 0.000000e+00    1         1  ON    21
      uuGe_22                 0.000000e+00    1         1  ON    22
      uuGe_23                 0.000000e+00    1         1  ON    23
      uuGe_24                 0.000000e+00    1         1  ON    24
      uuGe_25                 0.000000e+00    1         1  ON    25

     Ion: Ge   electron-electron: u - d
      Number of parameters for e-e: 3, for e-I: 3
      Cutoff radius: 10

Expected 26 parameters, but found 0 in PolynomialFunctor3D.
         Name                        Value Type Recompute Use Index
      ------- ---------------------------- ---- --------- --- -----
       udGe_0                 0.000000e+00    1         1  ON     0
       udGe_1                 0.000000e+00    1         1  ON     1
       udGe_2                 0.000000e+00    1         1  ON     2
       udGe_3                 0.000000e+00    1         1  ON     3
       udGe_4                 0.000000e+00    1         1  ON     4
       udGe_5                 0.000000e+00    1         1  ON     5
       udGe_6                 0.000000e+00    1         1  ON     6
       udGe_7                 0.000000e+00    1         1  ON     7
       udGe_8                 0.000000e+00    1         1  ON     8
       udGe_9                 0.000000e+00    1         1  ON     9
      udGe_10                 0.000000e+00    1         1  ON    10
      udGe_11                 0.000000e+00    1         1  ON    11
      udGe_12                 0.000000e+00    1         1  ON    12
      udGe_13                 0.000000e+00    1         1  ON    13
      udGe_14                 0.000000e+00    1         1  ON    14
      udGe_15                 0.000000e+00    1         1  ON    15
      udGe_16                 0.000000e+00    1         1  ON    16
      udGe_17                 0.000000e+00    1         1  ON    17
      udGe_18                 0.000000e+00    1         1  ON    18
      udGe_19                 0.000000e+00    1         1  ON    19
      udGe_20                 0.000000e+00    1         1  ON    20
      udGe_21                 0.000000e+00    1         1  ON    21
      udGe_22                 0.000000e+00    1         1  ON    22
      udGe_23                 0.000000e+00    1         1  ON    23
      udGe_24                 0.000000e+00    1         1  ON    24
      udGe_25                 0.000000e+00    1         1  ON    25

  QMCHamiltonian::addOperator Kinetic to H, physical Hamiltonian 
  QMCHamiltonian::addOperator ElecElec to H, physical Hamiltonian 
QMCHamiltonian::addOperatorType added type coulomb named ElecElec
  CoulombAA for ion0 is not created.  Number of particles == 1 and nonPeriodic

  ECPotential builder for pseudopotential 

  Adding pseudopotential for Ge
   Linear grid  ri=0 rf=10 npts = 10001
    ECPComponentBuilder::buildSemiLocalAndLocal 
    Assuming Hartree unit
   Number of angular momentum channels 4
   Maximum angular momentum channel 3
   Creating a Linear Grid Rmax=4.425
  Using global grid with delta = 0.001
   Making L=3 a local potential with a radial cutoff of 9.999
    Non-local pseudopotential parameters
    Maximum angular mementum = 2
    Number of non-local channels = 3
       l(0)=0
       l(1)=1
       l(2)=2
    Cutoff radius = 4.425
    Spherical grids and weights: 
                        1                 0                 0       0.08333333333
                       -1   1.224646799e-16                 0       0.08333333333
             0.4472135955       0.894427191                 0       0.08333333333
            -0.4472135955      0.7236067977      0.5257311121       0.08333333333
             0.4472135955      0.2763932023      0.8506508084       0.08333333333
            -0.4472135955     -0.2763932023      0.8506508084       0.08333333333
             0.4472135955     -0.7236067977      0.5257311121       0.08333333333
            -0.4472135955      -0.894427191   1.095357397e-16       0.08333333333
             0.4472135955     -0.7236067977     -0.5257311121       0.08333333333
            -0.4472135955     -0.2763932023     -0.8506508084       0.08333333333
             0.4472135955      0.2763932023     -0.8506508084       0.08333333333
            -0.4472135955      0.7236067977     -0.5257311121       0.08333333333
    Maximum cutoff radius 4.425
  QMCHamiltonian::addOperator LocalECP to H, physical Hamiltonian 

  Using NonLocalECP potential 
    Maximum grid on a sphere for NonLocalECPotential: 12
  QMCHamiltonian::addOperator NonLocalECP to H, physical Hamiltonian 
QMCHamiltonian::addOperatorType added type pseudo named PseudoPot

  QMCHamiltonian::add2WalkerProperty added
    4 to P::PropertyList 
    0 to P::Collectables 
    starting Index of the observables in P::PropertyList = 9
ParticleSetPool::randomize 
<init source="ion0" target="e">
</init>
  Initialization Execution time = 0.3787 secs
=========================================================
 Summary of QMC systems 
=========================================================
ParticleSetPool has: 

  ParticleSet 'e' contains 4 particles :  u(3) d(1)

    u  4.6507182329e-01 -9.4679659786e-01  4.7518901967e-02
    u -2.8031026957e-01 -1.1976819491e+00  9.7099254556e-01
    u -9.5806433971e-01  3.1407810618e-01  8.1926062391e-01
    d  1.2229694280e+00  9.4844530231e-01 -6.8133545410e-01

  Distance table for dissimilar particles (A-B):
    source: ion0  target: e
    Using structure-of-arrays (SoA) data layout
    Distance computations use open boundary conditions in 3D.

  Distance table for similar particles (A-A):
    source/target: e
    Using structure-of-arrays (SoA) data layout
    Distance computations use open boundary conditions in 3D.


  ParticleSet 'ion0' contains 1 particles :  Ge(1)

    Ge  0.0000000000e+00  0.0000000000e+00  0.0000000000e+00


  Hamiltonian h0
  Kinetic         Kinetic energy
  ElecElec        CoulombAB source=e

  LocalECP        LocalECPotential: ion0
  NonLocalECP     NonLocalECPotential: ion0


=========================================================
  Start VMC
  File Root Ge.log.s000 append = no 
=========================================================
  Adding 1 walkers to 0 existing sets
  Total number of walkers: 1.0240000000e+03
  Total weight: 1.0240000000e+03
  Resetting Properties of the walkers 1 x 13

<vmc function="put">
  qmc_counter=0  my_counter=0
  time step      = 1.5000000000e-01
  blocks         = 200
  steps          = 1
  substeps       = 5
  current        = 0
  target samples = 1.0240000000e+03
  walkers/mpi    = 1

  stepsbetweensamples = 200
<parameter name="blocks" condition="int">200</parameter>
<parameter name="blocks_between_recompute" condition="int">0</parameter>
<parameter name="check_properties" condition="int">100</parameter>
<parameter name="checkproperties" condition="int">100</parameter>
<parameter name="current" condition="int">0</parameter>
<parameter name="dmcwalkersperthread" condition="real">1.0000000000e+00</parameter>
<parameter name="maxcpusecs" condition="real">3.6000000000e+05</parameter>
<parameter name="record_configs" condition="int">0</parameter>
<parameter name="record_walkers" condition="int">200</parameter>
<parameter name="recordconfigs" condition="int">0</parameter>
<parameter name="recordwalkers" condition="int">200</parameter>
<parameter name="rewind" condition="int">0</parameter>
<parameter name="samples" condition="real">1.0240000000e+03</parameter>
<parameter name="samplesperthread" condition="real">1.0000000000e+00</parameter>
<parameter name="steps" condition="int">1</parameter>
<parameter name="stepsbetweensamples" condition="int">200</parameter>
<parameter name="store_configs" condition="int">0</parameter>
<parameter name="storeconfigs" condition="int">0</parameter>
<parameter name="sub_steps" condition="int">5</parameter>
<parameter name="substeps" condition="int">5</parameter>
<parameter name="tau" condition="au">1.5000000000e-01</parameter>
<parameter name="time_step" condition="au">1.5000000000e-01</parameter>
<parameter name="timestep" condition="au">1.5000000000e-01</parameter>
<parameter name="use_drift" condition="string">no</parameter>
<parameter name="usedrift" condition="string">no</parameter>
<parameter name="walkers" condition="int">1</parameter>
<parameter name="warmup_steps" condition="int">100</parameter>
<parameter name="warmupsteps" condition="int">100</parameter>
  DumpConfig==false Nothing (configurations, state) will be saved.
  Walker Samples are dumped every 200 steps.
</vmc>
  Set drift_modifier UNR parameter a = 1.0000000000e+00
  Initial partition of walkers 0 1 

  Using Particle by Particle moves
  Walker moves without drift
  Total Sample Size   =1024
  Walker distribution on root = 0 1 
  Using Locality Approximation
===== Memory Usage after the buffer registration =====
Available memory on node 0, free + buffers : 52410 MB
Memory footprint by rank 0 on node 0       : 577 MB
==================================================
  Anonymous Buffer size per walker : 1440 Bytes.
MEMORY increase 0 MB VMC::resetRun
====================================================
  SimpleFixedNodeBranch::finalize after a VMC block
    QMC counter        = 0
    time step          = 0.15
    reference energy   = -3.73176
    reference variance = 0.0388121
====================================================
  QMC Execution time = 1.8356e+00 secs
Loop execution max-interations = 20

=========================================================
  Start QMCFixedSampleLinearOptimize
  File Root Ge.log.s001 append = no 
=========================================================
  Skip QMCDriver::putQMCInfo 
  Resetting Properties of the walkers 1 x 13

=========================================================
  Start VMC
  File Root Ge.log.s001 append = no 
=========================================================
  Using the current 1 walkers.
  Total number of walkers: 1.0240e+03
  Total weight: 1.0240e+03
  Resetting Properties of the walkers 1 x 13

<vmc function="put">
  qmc_counter=0  my_counter=0
  time step      = 1.5000e-01
  blocks         = 500
  steps          = 1
  substeps       = 5
  current        = 0
  target samples = 5.1200e+05
  walkers/mpi    = 1

  stepsbetweensamples = 1
<parameter name="blocks" condition="int">500</parameter>
<parameter name="blocks_between_recompute" condition="int">0</parameter>
<parameter name="check_properties" condition="int">100</parameter>
<parameter name="checkproperties" condition="int">100</parameter>
<parameter name="current" condition="int">0</parameter>
<parameter name="dmcwalkersperthread" condition="real">5.0000e+02</parameter>
<parameter name="maxcpusecs" condition="real">3.6000e+05</parameter>
<parameter name="record_configs" condition="int">0</parameter>
<parameter name="record_walkers" condition="int">1</parameter>
<parameter name="recordconfigs" condition="int">0</parameter>
<parameter name="recordwalkers" condition="int">1</parameter>
<parameter name="rewind" condition="int">0</parameter>
<parameter name="samples" condition="real">5.1200e+05</parameter>
<parameter name="samplesperthread" condition="real">5.0000e+02</parameter>
<parameter name="steps" condition="int">1</parameter>
<parameter name="stepsbetweensamples" condition="int">1</parameter>
<parameter name="store_configs" condition="int">0</parameter>
<parameter name="storeconfigs" condition="int">0</parameter>
<parameter name="sub_steps" condition="int">5</parameter>
<parameter name="substeps" condition="int">5</parameter>
<parameter name="tau" condition="au">1.5000e-01</parameter>
<parameter name="time_step" condition="au">1.5000e-01</parameter>
<parameter name="timestep" condition="au">1.5000e-01</parameter>
<parameter name="use_drift" condition="string">no</parameter>
<parameter name="usedrift" condition="string">no</parameter>
<parameter name="walkers" condition="int">1</parameter>
<parameter name="warmup_steps" condition="int">0</parameter>
<parameter name="warmupsteps" condition="int">0</parameter>
  DumpConfig==false Nothing (configurations, state) will be saved.
  Walker Samples are dumped every 1 steps.
</vmc>
    Restarting, cummulative properties:
      energy     = -3.7318e+00
      variance   = 0.0000e+00
      r2accepted = 1.0000e-10
      r2proposed = 1.0000e-10
  Set drift_modifier UNR parameter a = 1.0000e+00
 Using QMCCostFunction::QMCCostFunction
  Set drift_modifier UNR parameter a = 1.0000e+00
  EstimatorManagerBase::add replace LocalEnergy estimator.
<optimization-report>
<vmc stage="main" blocks="500">
  Cannot make clones again. Use existing 1 clones
  Initial partition of walkers 0 1 

  Using Particle by Particle moves
  Walker moves without drift
  Total Sample Size   =512000
  Walker distribution on root = 0 1 
  Using Locality Approximation
===== Memory Usage after the buffer registration =====
Available memory on node 0, free + buffers : 52396 MB
Memory footprint by rank 0 on node 0       : 578 MB
==================================================
  Anonymous Buffer size per walker : 1440 Bytes.
MEMORY increase 0 MB VMC::resetRun
====================================================
  SimpleFixedNodeBranch::finalize after a VMC block
    QMC counter        = 1
    time step          = 0.15
    reference energy   = -3.72145
    reference variance = 0.0382708
====================================================
  Execution time = 3.2732e+00
</vmc>
<opt stage="setup">
  <log>
   Reading configurations from h5FileRoot Ge.log.s001
  QMCCostFunction is created with 1 threads.
  Using Nonlocal PP in Opt: NonLocalECP
   Number of samples loaded to each thread : 500 
  VMC Eavg = -3.6353e+00
  VMC Evar = 9.6544e-01
  Total weights = 5.1200e+05
  Execution time = 8.5203e-01
  </log>
</opt>
<opt stage="main" walkers="512000">
  <log>

*****************************************
Building overlap and Hamiltonian matrices
*****************************************

Among totally 82 optimized parameters, largest LM parameter change : 3.1728e-02 at parameter 21

******************************************************************************
Init Cost =  -3.4053e+00    New Cost =  -3.4298e+00  Delta Cost =  -2.4550e-02
******************************************************************************

The new set of parameters is valid. Updating the trial wave function!

*****************************************************************************
Applying the update for shift_i =   1.0000e-02     and shift_s =   2.5000e-01
*****************************************************************************
  Execution time = 5.0540e+00
  </log>
  <optVariables href="Ge.log.s001.opt.xml">
   uu_0                 3.912868e-01 1 1  ON 0
   uu_1                 2.223850e-01 1 1  ON 1
   uu_2                 1.006301e-01 1 1  ON 2
   uu_3                 2.144161e-02 1 1  ON 3
   uu_4                -4.324034e-02 1 1  ON 4
   uu_5                -9.298854e-02 1 1  ON 5
   uu_6                -1.258023e-01 1 1  ON 6
   uu_7                -1.373080e-01 1 1  ON 7
   uu_8                -1.254836e-01 1 1  ON 8
   uu_9                -1.054134e-01 1 1  ON 9
   ud_0                 1.280194e+00 1 1  ON 10
   ud_1                 9.119760e-01 1 1  ON 11
   ud_2                 6.560006e-01 1 1  ON 12
   ud_3                 4.572544e-01 1 1  ON 13
   ud_4                 3.121192e-01 1 1  ON 14
   ud_5                 1.887316e-01 1 1  ON 15
   ud_6                 7.710639e-02 1 1  ON 16
   ud_7                -1.345195e-02 1 1  ON 17
   ud_8                -7.831440e-02 1 1  ON 18
   ud_9                -1.287204e-01 1 1  ON 19
  eGe_0                -5.490515e-01 1 1  ON 20
  eGe_1                -4.760348e-01 1 1  ON 21
  eGe_2                -4.672221e-01 1 1  ON 22
  eGe_3                -2.611914e-01 1 1  ON 23
  eGe_4                -2.165009e-02 1 1  ON 24
  eGe_5                 1.417819e-01 1 1  ON 25
  eGe_6                 2.854218e-01 1 1  ON 26
  eGe_7                 3.884533e-01 1 1  ON 27
  eGe_8                 4.023579e-01 1 1  ON 28
  eGe_9                 3.248709e-01 1 1  ON 29
 uuGe_0                 2.609072e-05 1 1  ON 30
 uuGe_1                 7.110820e-05 1 1  ON 31
 uuGe_2                 3.207594e-05 1 1  ON 32
 uuGe_3                -3.523423e-05 1 1  ON 33
 uuGe_4                -1.009227e-05 1 1  ON 34
 uuGe_5                -2.124329e-06 1 1  ON 35
 uuGe_6                 4.586447e-05 1 1  ON 36
 uuGe_7                 9.207756e-05 1 1  ON 37
 uuGe_8                 6.793215e-05 1 1  ON 38
 uuGe_9                -1.043828e-04 1 1  ON 39
uuGe_10                -1.610390e-05 1 1  ON 40
uuGe_11                -6.833221e-05 1 1  ON 41
uuGe_12                -8.242442e-06 1 1  ON 42
uuGe_13                 7.109181e-05 1 1  ON 43
uuGe_14                 1.718296e-05 1 1  ON 44
uuGe_15                -1.075962e-06 1 1  ON 45
uuGe_16                 6.132806e-05 1 1  ON 46
uuGe_17                 5.988037e-05 1 1  ON 47
uuGe_18                 1.633617e-05 1 1  ON 48
uuGe_19                -3.165695e-06 1 1  ON 49
uuGe_20                -3.112582e-05 1 1  ON 50
uuGe_21                -2.591904e-06 1 1  ON 51
uuGe_22                 1.124656e-06 1 1  ON 52
uuGe_23                 7.557816e-06 1 1  ON 53
uuGe_24                -1.269503e-07 1 1  ON 54
uuGe_25                -2.076168e-07 1 1  ON 55
 udGe_0                -6.296494e-05 1 1  ON 56
 udGe_1                -8.578292e-05 1 1  ON 57
 udGe_2                -2.987222e-05 1 1  ON 58
 udGe_3                 1.742717e-04 1 1  ON 59
 udGe_4                 3.942650e-05 1 1  ON 60
 udGe_5                 4.750860e-06 1 1  ON 61
 udGe_6                 9.904241e-05 1 1  ON 62
 udGe_7                -1.432694e-04 1 1  ON 63
 udGe_8                -1.887900e-04 1 1  ON 64
 udGe_9                -2.042935e-06 1 1  ON 65
udGe_10                 9.295903e-05 1 1  ON 66
udGe_11                 1.063035e-04 1 1  ON 67
udGe_12                 4.897094e-05 1 1  ON 68
udGe_13                -1.981507e-04 1 1  ON 69
udGe_14                -5.965691e-05 1 1  ON 70
udGe_15                 1.181470e-06 1 1  ON 71
udGe_16                 1.415550e-04 1 1  ON 72
udGe_17                -2.424158e-04 1 1  ON 73
udGe_18                -2.627030e-06 1 1  ON 74
udGe_19                -1.288930e-05 1 1  ON 75
udGe_20                 3.724974e-05 1 1  ON 76
udGe_21                 9.313082e-06 1 1  ON 77
udGe_22                -5.230610e-07 1 1  ON 78
udGe_23                -6.848473e-06 1 1  ON 79
udGe_24                -7.346033e-07 1 1  ON 80
udGe_25                 1.869587e-07 1 1  ON 81
  </optVariables>
   Restore the number of walkers to 1, removing 0 walkers.
</opt>
</optimization-report>
  QMC Execution time = 5.069 secs
  Reusing QMCFixedSampleLinearOptimize
 Using QMCCostFunction::QMCCostFunction

=========================================================
  Start QMCFixedSampleLinearOptimize
  File Root Ge.log.s002 append = no 
=========================================================
  Skip QMCDriver::putQMCInfo 
  Resetting Properties of the walkers 1 x 13

=========================================================
  Start VMC
  File Root Ge.log.s002 append = no 
=========================================================
Using existing walkers 
  Resetting Properties of the walkers 1 x 13

<vmc function="put">
  qmc_counter=1  my_counter=1
  time step      = 1.5000e-01
  blocks         = 500
  steps          = 1
  substeps       = 5
  current        = 0
  target samples = 5.1200e+05
  walkers/mpi    = 1

  stepsbetweensamples = 1
<parameter name="blocks" condition="int">500</parameter>
<parameter name="blocks_between_recompute" condition="int">0</parameter>
<parameter name="check_properties" condition="int">100</parameter>
<parameter name="checkproperties" condition="int">100</parameter>
<parameter name="current" condition="int">0</parameter>
<parameter name="dmcwalkersperthread" condition="real">5.0000e+02</parameter>
<parameter name="maxcpusecs" condition="real">3.6000e+05</parameter>
<parameter name="record_configs" condition="int">0</parameter>
<parameter name="record_walkers" condition="int">1</parameter>
<parameter name="recordconfigs" condition="int">0</parameter>
<parameter name="recordwalkers" condition="int">1</parameter>
<parameter name="rewind" condition="int">0</parameter>
<parameter name="samples" condition="real">5.1200e+05</parameter>
<parameter name="samplesperthread" condition="real">5.0000e+02</parameter>
<parameter name="steps" condition="int">1</parameter>
<parameter name="stepsbetweensamples" condition="int">1</parameter>
<parameter name="store_configs" condition="int">0</parameter>
<parameter name="storeconfigs" condition="int">0</parameter>
<parameter name="sub_steps" condition="int">5</parameter>
<parameter name="substeps" condition="int">5</parameter>
<parameter name="tau" condition="au">1.5000e-01</parameter>
<parameter name="time_step" condition="au">1.5000e-01</parameter>
<parameter name="timestep" condition="au">1.5000e-01</parameter>
<parameter name="use_drift" condition="string">no</parameter>
<parameter name="usedrift" condition="string">no</parameter>
<parameter name="walkers" condition="int">1</parameter>
<parameter name="warmup_steps" condition="int">0</parameter>
<parameter name="warmupsteps" condition="int">0</parameter>
  DumpConfig==false Nothing (configurations, state) will be saved.
  Walker Samples are dumped every 1 steps.
</vmc>
  Set drift_modifier UNR parameter a = 1.0000e+00
  EstimatorManagerBase::add replace LocalEnergy estimator.
  Set drift_modifier UNR parameter a = 1.0000e+00
  EstimatorManagerBase::add replace LocalEnergy estimator.
<optimization-report>
<vmc stage="main" blocks="500">
  Cannot make clones again. Use existing 1 clones
  Initial partition of walkers 0 1 
  Using Particle by Particle moves
  Walker moves without drift
  Total Sample Size   =512000
  Walker distribution on root = 0 1 
  Using Locality Approximation
===== Memory Usage after the buffer registration =====
Available memory on node 0, free + buffers : 51701 MB
Memory footprint by rank 0 on node 0       : 594 MB
==================================================
====================================================
  SimpleFixedNodeBranch::finalize after a VMC block
    QMC counter        = 2
    time step          = 0.15
    reference energy   = -3.72436
    reference variance = 0.051463
====================================================
  Execution time = 3.3342e+00
</vmc>
<opt stage="setup">
  <log>
   Reading configurations from h5FileRoot Ge.log.s002
  QMCCostFunction is created with 1 threads.
  Using Nonlocal PP in Opt: NonLocalECP
   Number of samples loaded to each thread : 500 
  VMC Eavg = -3.6516e+00
  VMC Evar = 5.7583e-01
  Total weights = 5.1200e+05
  Execution time = 8.6563e-01
  </log>
</opt>
<opt stage="main" walkers="512000">
  <log>

*****************************************
Building overlap and Hamiltonian matrices
*****************************************

Among totally 82 optimized parameters, largest LM parameter change : 2.4598e-02 at parameter 17

******************************************************************************
Init Cost =  -3.4402e+00    New Cost =  -3.4424e+00  Delta Cost =  -2.1533e-03
******************************************************************************

The new set of parameters is valid. Updating the trial wave function!

*****************************************************************************
Applying the update for shift_i =   1.0000e-02     and shift_s =   6.2500e-02
*****************************************************************************
  Execution time = 5.1425e+00
  </log>
  <optVariables href="Ge.log.s002.opt.xml">
   uu_0                 3.951431e-01 1 1  ON 0
   uu_1                 2.380661e-01 1 1  ON 1
   uu_2                 1.219088e-01 1 1  ON 2
   uu_3                 3.986617e-02 1 1  ON 3
   uu_4                -3.314833e-02 1 1  ON 4
   uu_5                -9.304500e-02 1 1  ON 5
   uu_6                -1.332167e-01 1 1  ON 6
   uu_7                -1.448606e-01 1 1  ON 7
   uu_8                -1.334235e-01 1 1  ON 8
   uu_9                -1.095266e-01 1 1  ON 9
   ud_0                 1.278980e+00 1 1  ON 10
   ud_1                 9.041373e-01 1 1  ON 11
   ud_2                 6.484654e-01 1 1  ON 12
   ud_3                 4.562228e-01 1 1  ON 13
   ud_4                 3.225031e-01 1 1  ON 14
   ud_5                 2.088124e-01 1 1  ON 15
   ud_6                 9.906426e-02 1 1  ON 16
   ud_7                 1.114604e-02 1 1  ON 17
   ud_8                -5.475280e-02 1 1  ON 18
   ud_9                -1.054862e-01 1 1  ON 19
  eGe_0                -5.619599e-01 1 1  ON 20
  eGe_1                -4.749503e-01 1 1  ON 21
  eGe_2                -4.720319e-01 1 1  ON 22
  eGe_3                -2.669707e-01 1 1  ON 23
  eGe_4                -1.059990e-02 1 1  ON 24
  eGe_5                 1.457035e-01 1 1  ON 25
  eGe_6                 2.853795e-01 1 1  ON 26
  eGe_7                 3.809682e-01 1 1  ON 27
  eGe_8                 3.985904e-01 1 1  ON 28
  eGe_9                 3.263885e-01 1 1  ON 29
 uuGe_0                 2.387256e-05 1 1  ON 30
 uuGe_1                 3.844734e-05 1 1  ON 31
 uuGe_2                 3.193117e-05 1 1  ON 32
 uuGe_3                -2.035553e-05 1 1  ON 33
 uuGe_4                -9.924969e-06 1 1  ON 34
 uuGe_5                 9.704827e-07 1 1  ON 35
 uuGe_6                 1.905310e-06 1 1  ON 36
 uuGe_7                 1.456080e-04 1 1  ON 37
 uuGe_8                 7.450769e-05 1 1  ON 38
 uuGe_9                -9.106399e-05 1 1  ON 39
uuGe_10                -7.734341e-06 1 1  ON 40
uuGe_11                -9.274614e-05 1 1  ON 41
uuGe_12                -7.779509e-06 1 1  ON 42
uuGe_13                 6.443570e-05 1 1  ON 43
uuGe_14                 2.078951e-05 1 1  ON 44
uuGe_15                -1.487324e-06 1 1  ON 45
uuGe_16                 5.871944e-05 1 1  ON 46
uuGe_17                 5.823643e-05 1 1  ON 47
uuGe_18                 2.810824e-05 1 1  ON 48
uuGe_19                -5.058140e-06 1 1  ON 49
uuGe_20                -3.322590e-05 1 1  ON 50
uuGe_21                -4.303884e-06 1 1  ON 51
uuGe_22                 1.568901e-06 1 1  ON 52
uuGe_23                 9.991004e-06 1 1  ON 53
uuGe_24                 7.027497e-09 1 1  ON 54
uuGe_25                -2.881845e-07 1 1  ON 55
 udGe_0                -8.078091e-05 1 1  ON 56
 udGe_1                -4.133459e-05 1 1  ON 57
 udGe_2                -1.610908e-05 1 1  ON 58
 udGe_3                 2.006271e-04 1 1  ON 59
 udGe_4                 3.902528e-05 1 1  ON 60
 udGe_5                -7.368316e-06 1 1  ON 61
 udGe_6                 1.659834e-04 1 1  ON 62
 udGe_7                -1.348683e-04 1 1  ON 63
 udGe_8                -1.921491e-04 1 1  ON 64
 udGe_9                -7.535492e-06 1 1  ON 65
udGe_10                 1.045220e-04 1 1  ON 66
udGe_11                 8.461015e-05 1 1  ON 67
udGe_12                 4.948113e-05 1 1  ON 68
udGe_13                -2.538833e-04 1 1  ON 69
udGe_14                -6.161949e-05 1 1  ON 70
udGe_15                 1.314619e-06 1 1  ON 71
udGe_16                 1.733318e-04 1 1  ON 72
udGe_17                -3.077998e-04 1 1  ON 73
udGe_18                 3.178141e-05 1 1  ON 74
udGe_19                -1.485442e-05 1 1  ON 75
udGe_20                 5.341105e-05 1 1  ON 76
udGe_21                 4.648515e-06 1 1  ON 77
udGe_22                -8.529882e-08 1 1  ON 78
udGe_23                -1.072722e-05 1 1  ON 79
udGe_24                 2.223366e-07 1 1  ON 80
udGe_25                 6.753791e-08 1 1  ON 81
  </optVariables>
   Restore the number of walkers to 1, removing 0 walkers.
</opt>
</optimization-report>
  QMC Execution time = 5.18 secs
  Reusing QMCFixedSampleLinearOptimize
 Using QMCCostFunction::QMCCostFunction

=========================================================
  Start QMCFixedSampleLinearOptimize
  File Root Ge.log.s003 append = no 
=========================================================
  Skip QMCDriver::putQMCInfo 
  Resetting Properties of the walkers 1 x 13

=========================================================
  Start VMC
  File Root Ge.log.s003 append = no 
=========================================================
Using existing walkers 
  Resetting Properties of the walkers 1 x 13

<vmc function="put">
  qmc_counter=2  my_counter=2
  time step      = 1.5000e-01
  blocks         = 500
  steps          = 1
  substeps       = 5
  current        = 0
  target samples = 5.1200e+05
  walkers/mpi    = 1

  stepsbetweensamples = 1
<parameter name="blocks" condition="int">500</parameter>
<parameter name="blocks_between_recompute" condition="int">0</parameter>
<parameter name="check_properties" condition="int">100</parameter>
<parameter name="checkproperties" condition="int">100</parameter>
<parameter name="current" condition="int">0</parameter>
<parameter name="dmcwalkersperthread" condition="real">5.0000e+02</parameter>
<parameter name="maxcpusecs" condition="real">3.6000e+05</parameter>
<parameter name="record_configs" condition="int">0</parameter>
<parameter name="record_walkers" condition="int">1</parameter>
<parameter name="recordconfigs" condition="int">0</parameter>
<parameter name="recordwalkers" condition="int">1</parameter>
<parameter name="rewind" condition="int">0</parameter>
<parameter name="samples" condition="real">5.1200e+05</parameter>
<parameter name="samplesperthread" condition="real">5.0000e+02</parameter>
<parameter name="steps" condition="int">1</parameter>
<parameter name="stepsbetweensamples" condition="int">1</parameter>
<parameter name="store_configs" condition="int">0</parameter>
<parameter name="storeconfigs" condition="int">0</parameter>
<parameter name="sub_steps" condition="int">5</parameter>
<parameter name="substeps" condition="int">5</parameter>
<parameter name="tau" condition="au">1.5000e-01</parameter>
<parameter name="time_step" condition="au">1.5000e-01</parameter>
<parameter name="timestep" condition="au">1.5000e-01</parameter>
<parameter name="use_drift" condition="string">no</parameter>
<parameter name="usedrift" condition="string">no</parameter>
<parameter name="walkers" condition="int">1</parameter>
<parameter name="warmup_steps" condition="int">0</parameter>
<parameter name="warmupsteps" condition="int">0</parameter>
  DumpConfig==false Nothing (configurations, state) will be saved.
  Walker Samples are dumped every 1 steps.
</vmc>
  Set drift_modifier UNR parameter a = 1.0000e+00
  EstimatorManagerBase::add replace LocalEnergy estimator.
  Set drift_modifier UNR parameter a = 1.0000e+00
  EstimatorManagerBase::add replace LocalEnergy estimator.
<optimization-report>
<vmc stage="main" blocks="500">
  Cannot make clones again. Use existing 1 clones
  Initial partition of walkers 0 1 
  Using Particle by Particle moves
  Walker moves without drift
  Total Sample Size   =512000
  Walker distribution on root = 0 1 
  Using Locality Approximation
===== Memory Usage after the buffer registration =====
Available memory on node 0, free + buffers : 51698 MB
Memory footprint by rank 0 on node 0       : 597 MB
==================================================
====================================================
  SimpleFixedNodeBranch::finalize after a VMC block
    QMC counter        = 3
    time step          = 0.15
    reference energy   = -3.71616
    reference variance = 0.0552085
====================================================
  Execution time = 3.3286e+00
</vmc>
<opt stage="setup">
  <log>
   Reading configurations from h5FileRoot Ge.log.s003
  QMCCostFunction is created with 1 threads.
  Using Nonlocal PP in Opt: NonLocalECP
   Number of samples loaded to each thread : 500 
  VMC Eavg = -3.6462e+00
  VMC Evar = 5.8459e-01
  Total weights = 5.1200e+05
  Execution time = 8.3361e-01
  </log>
</opt>
<opt stage="main" walkers="512000">
  <log>

*****************************************
Building overlap and Hamiltonian matrices
*****************************************

Among totally 82 optimized parameters, largest LM parameter change : 1.8754e-02 at parameter 18

******************************************************************************
Init Cost =  -3.4347e+00    New Cost =  -3.4382e+00  Delta Cost =  -3.5180e-03
******************************************************************************

The new set of parameters is valid. Updating the trial wave function!

*****************************************************************************
Applying the update for shift_i =   1.0000e-02     and shift_s =   1.5625e-02
*****************************************************************************
  Execution time = 5.0632e+00
  </log>
  <optVariables href="Ge.log.s003.opt.xml">
   uu_0                 4.014307e-01 1 1  ON 0
   uu_1                 2.537569e-01 1 1  ON 1
   uu_2                 1.349173e-01 1 1  ON 2
   uu_3                 4.847435e-02 1 1  ON 3
   uu_4                -2.670706e-02 1 1  ON 4
   uu_5                -8.920312e-02 1 1  ON 5
   uu_6                -1.306268e-01 1 1  ON 6
   uu_7                -1.433344e-01 1 1  ON 7
   uu_8                -1.302206e-01 1 1  ON 8
   uu_9                -1.093067e-01 1 1  ON 9
   ud_0                 1.276378e+00 1 1  ON 10
   ud_1                 8.954534e-01 1 1  ON 11
   ud_2                 6.477316e-01 1 1  ON 12
   ud_3                 4.602596e-01 1 1  ON 13
   ud_4                 3.317536e-01 1 1  ON 14
   ud_5                 2.218159e-01 1 1  ON 15
   ud_6                 1.166041e-01 1 1  ON 16
   ud_7                 2.908469e-02 1 1  ON 17
   ud_8                -3.599880e-02 1 1  ON 18
   ud_9                -8.777711e-02 1 1  ON 19
  eGe_0                -5.700113e-01 1 1  ON 20
  eGe_1                -4.789723e-01 1 1  ON 21
  eGe_2                -4.709390e-01 1 1  ON 22
  eGe_3                -2.743729e-01 1 1  ON 23
  eGe_4                -1.370928e-02 1 1  ON 24
  eGe_5                 1.443960e-01 1 1  ON 25
  eGe_6                 2.828283e-01 1 1  ON 26
  eGe_7                 3.835511e-01 1 1  ON 27
  eGe_8                 3.979060e-01 1 1  ON 28
  eGe_9                 3.280331e-01 1 1  ON 29
 uuGe_0                 1.338743e-05 1 1  ON 30
 uuGe_1                 7.838729e-05 1 1  ON 31
 uuGe_2                 4.780106e-05 1 1  ON 32
 uuGe_3                -3.020978e-05 1 1  ON 33
 uuGe_4                -1.468792e-05 1 1  ON 34
 uuGe_5                -2.617561e-06 1 1  ON 35
 uuGe_6                 7.194760e-05 1 1  ON 36
 uuGe_7                 1.326961e-04 1 1  ON 37
 uuGe_8                 7.795723e-05 1 1  ON 38
 uuGe_9                -1.254683e-04 1 1  ON 39
uuGe_10                -1.953449e-05 1 1  ON 40
uuGe_11                -8.506245e-05 1 1  ON 41
uuGe_12                -8.820653e-06 1 1  ON 42
uuGe_13                 6.317349e-05 1 1  ON 43
uuGe_14                 1.865387e-05 1 1  ON 44
uuGe_15                -1.233169e-06 1 1  ON 45
uuGe_16                 9.338573e-05 1 1  ON 46
uuGe_17                 5.165948e-05 1 1  ON 47
uuGe_18                 2.111951e-05 1 1  ON 48
uuGe_19                -4.090812e-06 1 1  ON 49
uuGe_20                -3.325785e-05 1 1  ON 50
uuGe_21                -2.526319e-06 1 1  ON 51
uuGe_22                 1.280680e-06 1 1  ON 52
uuGe_23                 8.675918e-06 1 1  ON 53
uuGe_24                -2.500064e-07 1 1  ON 54
uuGe_25                -2.285481e-07 1 1  ON 55
 udGe_0                -1.014535e-04 1 1  ON 56
 udGe_1                -2.537660e-04 1 1  ON 57
 udGe_2                 6.168640e-06 1 1  ON 58
 udGe_3                 3.236289e-04 1 1  ON 59
 udGe_4                 5.826434e-05 1 1  ON 60
 udGe_5                 2.314748e-05 1 1  ON 61
 udGe_6                -1.548446e-05 1 1  ON 62
 udGe_7                -5.045710e-06 1 1  ON 63
 udGe_8                -1.971054e-04 1 1  ON 64
 udGe_9                 4.683399e-05 1 1  ON 65
udGe_10                 2.003234e-04 1 1  ON 66
udGe_11                -1.835106e-05 1 1  ON 67
udGe_12                 6.277979e-05 1 1  ON 68
udGe_13                -3.381480e-04 1 1  ON 69
udGe_14                -6.538290e-05 1 1  ON 70
udGe_15                 6.530083e-07 1 1  ON 71
udGe_16                 2.037021e-04 1 1  ON 72
udGe_17                -4.216938e-04 1 1  ON 73
udGe_18                 1.124546e-04 1 1  ON 74
udGe_19                -2.602640e-05 1 1  ON 75
udGe_20                 6.554010e-05 1 1  ON 76
udGe_21                -3.148658e-06 1 1  ON 77
udGe_22                 1.312214e-06 1 1  ON 78
udGe_23                -1.193765e-05 1 1  ON 79
udGe_24                 1.540117e-06 1 1  ON 80
udGe_25                -1.716963e-07 1 1  ON 81
  </optVariables>
   Restore the number of walkers to 1, removing 0 walkers.
</opt>
</optimization-report>
  QMC Execution time = 5.078 secs
  Reusing QMCFixedSampleLinearOptimize
 Using QMCCostFunction::QMCCostFunction

=========================================================
  Start QMCFixedSampleLinearOptimize
  File Root Ge.log.s004 append = no 
=========================================================
  Skip QMCDriver::putQMCInfo 
  Resetting Properties of the walkers 1 x 13

=========================================================
  Start VMC
  File Root Ge.log.s004 append = no 
=========================================================
Using existing walkers 
  Resetting Properties of the walkers 1 x 13

<vmc function="put">
  qmc_counter=3  my_counter=3
  time step      = 1.5000e-01
  blocks         = 500
  steps          = 1
  substeps       = 5
  current        = 0
  target samples = 5.1200e+05
  walkers/mpi    = 1

  stepsbetweensamples = 1
<parameter name="blocks" condition="int">500</parameter>
<parameter name="blocks_between_recompute" condition="int">0</parameter>
<parameter name="check_properties" condition="int">100</parameter>
<parameter name="checkproperties" condition="int">100</parameter>
<parameter name="current" condition="int">0</parameter>
<parameter name="dmcwalkersperthread" condition="real">5.0000e+02</parameter>
<parameter name="maxcpusecs" condition="real">3.6000e+05</parameter>
<parameter name="record_configs" condition="int">0</parameter>
<parameter name="record_walkers" condition="int">1</parameter>
<parameter name="recordconfigs" condition="int">0</parameter>
<parameter name="recordwalkers" condition="int">1</parameter>
<parameter name="rewind" condition="int">0</parameter>
<parameter name="samples" condition="real">5.1200e+05</parameter>
<parameter name="samplesperthread" condition="real">5.0000e+02</parameter>
<parameter name="steps" condition="int">1</parameter>
<parameter name="stepsbetweensamples" condition="int">1</parameter>
<parameter name="store_configs" condition="int">0</parameter>
<parameter name="storeconfigs" condition="int">0</parameter>
<parameter name="sub_steps" condition="int">5</parameter>
<parameter name="substeps" condition="int">5</parameter>
<parameter name="tau" condition="au">1.5000e-01</parameter>
<parameter name="time_step" condition="au">1.5000e-01</parameter>
<parameter name="timestep" condition="au">1.5000e-01</parameter>
<parameter name="use_drift" condition="string">no</parameter>
<parameter name="usedrift" condition="string">no</parameter>
<parameter name="walkers" condition="int">1</parameter>
<parameter name="warmup_steps" condition="int">0</parameter>
<parameter name="warmupsteps" condition="int">0</parameter>
  DumpConfig==false Nothing (configurations, state) will be saved.
  Walker Samples are dumped every 1 steps.
</vmc>
  Set drift_modifier UNR parameter a = 1.0000e+00
  EstimatorManagerBase::add replace LocalEnergy estimator.
  Set drift_modifier UNR parameter a = 1.0000e+00
  EstimatorManagerBase::add replace LocalEnergy estimator.
<optimization-report>
<vmc stage="main" blocks="500">
  Cannot make clones again. Use existing 1 clones
  Initial partition of walkers 0 1 
  Using Particle by Particle moves
  Walker moves without drift
  Total Sample Size   =512000
  Walker distribution on root = 0 1 
  Using Locality Approximation
===== Memory Usage after the buffer registration =====
Available memory on node 0, free + buffers : 51693 MB
Memory footprint by rank 0 on node 0       : 600 MB
==================================================
====================================================
  SimpleFixedNodeBranch::finalize after a VMC block
    QMC counter        = 4
    time step          = 0.15
    reference energy   = -3.72006
    reference variance = 0.0807365
====================================================
  Execution time = 3.3585e+00
</vmc>
<opt stage="setup">
  <log>
   Reading configurations from h5FileRoot Ge.log.s004
  QMCCostFunction is created with 1 threads.
  Using Nonlocal PP in Opt: NonLocalECP
   Number of samples loaded to each thread : 500 
  VMC Eavg = -3.6478e+00
  VMC Evar = 5.5709e-01
  Total weights = 5.1200e+05
  Execution time = 8.1609e-01
  </log>
</opt>
<opt stage="main" walkers="512000">
  <log>

*****************************************
Building overlap and Hamiltonian matrices
*****************************************

Among totally 82 optimized parameters, largest LM parameter change : 1.4294e-02 at parameter 16

******************************************************************************
Init Cost =  -3.4376e+00    New Cost =  -3.4373e+00  Delta Cost =   3.0759e-04
******************************************************************************

The new set of parameters is valid. Updating the trial wave function!

*****************************************************************************
Applying the update for shift_i =   1.0000e-02     and shift_s =   3.9062e-03
*****************************************************************************
  Execution time = 5.0707e+00
  </log>
  <optVariables href="Ge.log.s004.opt.xml">
   uu_0                 4.086738e-01 1 1  ON 0
   uu_1                 2.669801e-01 1 1  ON 1
   uu_2                 1.429779e-01 1 1  ON 2
   uu_3                 5.689541e-02 1 1  ON 3
   uu_4                -1.914052e-02 1 1  ON 4
   uu_5                -8.336719e-02 1 1  ON 5
   uu_6                -1.222121e-01 1 1  ON 6
   uu_7                -1.356816e-01 1 1  ON 7
   uu_8                -1.268225e-01 1 1  ON 8
   uu_9                -1.128060e-01 1 1  ON 9
   ud_0                 1.273445e+00 1 1  ON 10
   ud_1                 8.980573e-01 1 1  ON 11
   ud_2                 6.544194e-01 1 1  ON 12
   ud_3                 4.711650e-01 1 1  ON 13
   ud_4                 3.450992e-01 1 1  ON 14
   ud_5                 2.359785e-01 1 1  ON 15
   ud_6                 1.308985e-01 1 1  ON 16
   ud_7                 4.266315e-02 1 1  ON 17
   ud_8                -2.624251e-02 1 1  ON 18
   ud_9                -7.893906e-02 1 1  ON 19
  eGe_0                -5.666950e-01 1 1  ON 20
  eGe_1                -4.781450e-01 1 1  ON 21
  eGe_2                -4.772383e-01 1 1  ON 22
  eGe_3                -2.815859e-01 1 1  ON 23
  eGe_4                -1.809593e-02 1 1  ON 24
  eGe_5                 1.421977e-01 1 1  ON 25
  eGe_6                 2.886537e-01 1 1  ON 26
  eGe_7                 3.893855e-01 1 1  ON 27
  eGe_8                 3.883325e-01 1 1  ON 28
  eGe_9                 3.259800e-01 1 1  ON 29
 uuGe_0                 2.146651e-05 1 1  ON 30
 uuGe_1                 9.010611e-05 1 1  ON 31
 uuGe_2                 3.977881e-05 1 1  ON 32
 uuGe_3                -4.600144e-05 1 1  ON 33
 uuGe_4                -1.636515e-05 1 1  ON 34
 uuGe_5                -3.817900e-06 1 1  ON 35
 uuGe_6                 5.887417e-05 1 1  ON 36
 uuGe_7                 1.441371e-04 1 1  ON 37
 uuGe_8                 8.310946e-05 1 1  ON 38
 uuGe_9                -1.206608e-04 1 1  ON 39
uuGe_10                -2.958183e-05 1 1  ON 40
uuGe_11                -8.503114e-05 1 1  ON 41
uuGe_12                -1.048459e-05 1 1  ON 42
uuGe_13                 7.547747e-05 1 1  ON 43
uuGe_14                 2.162268e-05 1 1  ON 44
uuGe_15                -1.377132e-06 1 1  ON 45
uuGe_16                 7.548505e-05 1 1  ON 46
uuGe_17                 7.029087e-05 1 1  ON 47
uuGe_18                 1.825287e-05 1 1  ON 48
uuGe_19                -3.733031e-06 1 1  ON 49
uuGe_20                -3.322031e-05 1 1  ON 50
uuGe_21                -3.062017e-06 1 1  ON 51
uuGe_22                 1.386926e-06 1 1  ON 52
uuGe_23                 8.433797e-06 1 1  ON 53
uuGe_24                -9.942357e-08 1 1  ON 54
uuGe_25                -2.651109e-07 1 1  ON 55
 udGe_0                -7.867589e-05 1 1  ON 56
 udGe_1                -9.406382e-05 1 1  ON 57
 udGe_2                -3.728613e-06 1 1  ON 58
 udGe_3                 2.592561e-04 1 1  ON 59
 udGe_4                 5.141149e-05 1 1  ON 60
 udGe_5                 5.530768e-06 1 1  ON 61
 udGe_6                 1.685388e-04 1 1  ON 62
 udGe_7                -1.422355e-04 1 1  ON 63
 udGe_8                -2.162043e-04 1 1  ON 64
 udGe_9                -5.333378e-05 1 1  ON 65
udGe_10                 1.505123e-04 1 1  ON 66
udGe_11                 6.541522e-05 1 1  ON 67
udGe_12                 6.152083e-05 1 1  ON 68
udGe_13                -2.850797e-04 1 1  ON 69
udGe_14                -7.277045e-05 1 1  ON 70
udGe_15                 1.313563e-06 1 1  ON 71
udGe_16                 2.634638e-04 1 1  ON 72
udGe_17                -3.785902e-04 1 1  ON 73
udGe_18                 5.557206e-05 1 1  ON 74
udGe_19                -2.078031e-05 1 1  ON 75
udGe_20                 4.500053e-05 1 1  ON 76
udGe_21                 5.146984e-06 1 1  ON 77
udGe_22                 1.804026e-07 1 1  ON 78
udGe_23                -7.677229e-06 1 1  ON 79
udGe_24                -2.964190e-08 1 1  ON 80
udGe_25                 7.807764e-08 1 1  ON 81
  </optVariables>
   Restore the number of walkers to 1, removing 0 walkers.
</opt>
</optimization-report>
  QMC Execution time = 5.085 secs
  Reusing QMCFixedSampleLinearOptimize
 Using QMCCostFunction::QMCCostFunction

=========================================================
  Start QMCFixedSampleLinearOptimize
  File Root Ge.log.s005 append = no 
=========================================================
  Skip QMCDriver::putQMCInfo 
  Resetting Properties of the walkers 1 x 13

=========================================================
  Start VMC
  File Root Ge.log.s005 append = no 
=========================================================
Using existing walkers 
  Resetting Properties of the walkers 1 x 13

<vmc function="put">
  qmc_counter=4  my_counter=4
  time step      = 1.5000e-01
  blocks         = 500
  steps          = 1
  substeps       = 5
  current        = 0
  target samples = 5.1200e+05
  walkers/mpi    = 1

  stepsbetweensamples = 1
<parameter name="blocks" condition="int">500</parameter>
<parameter name="blocks_between_recompute" condition="int">0</parameter>
<parameter name="check_properties" condition="int">100</parameter>
<parameter name="checkproperties" condition="int">100</parameter>
<parameter name="current" condition="int">0</parameter>
<parameter name="dmcwalkersperthread" condition="real">5.0000e+02</parameter>
<parameter name="maxcpusecs" condition="real">3.6000e+05</parameter>
<parameter name="record_configs" condition="int">0</parameter>
<parameter name="record_walkers" condition="int">1</parameter>
<parameter name="recordconfigs" condition="int">0</parameter>
<parameter name="recordwalkers" condition="int">1</parameter>
<parameter name="rewind" condition="int">0</parameter>
<parameter name="samples" condition="real">5.1200e+05</parameter>
<parameter name="samplesperthread" condition="real">5.0000e+02</parameter>
<parameter name="steps" condition="int">1</parameter>
<parameter name="stepsbetweensamples" condition="int">1</parameter>
<parameter name="store_configs" condition="int">0</parameter>
<parameter name="storeconfigs" condition="int">0</parameter>
<parameter name="sub_steps" condition="int">5</parameter>
<parameter name="substeps" condition="int">5</parameter>
<parameter name="tau" condition="au">1.5000e-01</parameter>
<parameter name="time_step" condition="au">1.5000e-01</parameter>
<parameter name="timestep" condition="au">1.5000e-01</parameter>
<parameter name="use_drift" condition="string">no</parameter>
<parameter name="usedrift" condition="string">no</parameter>
<parameter name="walkers" condition="int">1</parameter>
<parameter name="warmup_steps" condition="int">0</parameter>
<parameter name="warmupsteps" condition="int">0</parameter>
  DumpConfig==false Nothing (configurations, state) will be saved.
  Walker Samples are dumped every 1 steps.
</vmc>
  Set drift_modifier UNR parameter a = 1.0000e+00
  EstimatorManagerBase::add replace LocalEnergy estimator.
  Set drift_modifier UNR parameter a = 1.0000e+00
  EstimatorManagerBase::add replace LocalEnergy estimator.
<optimization-report>
<vmc stage="main" blocks="500">
  Cannot make clones again. Use existing 1 clones
  Initial partition of walkers 0 1 
  Using Particle by Particle moves
  Walker moves without drift
  Total Sample Size   =512000
  Walker distribution on root = 0 1 
  Using Locality Approximation
===== Memory Usage after the buffer registration =====
Available memory on node 0, free + buffers : 51690 MB
Memory footprint by rank 0 on node 0       : 603 MB
==================================================
====================================================
  SimpleFixedNodeBranch::finalize after a VMC block
    QMC counter        = 5
    time step          = 0.15
    reference energy   = -3.71355
    reference variance = 0.0602703
====================================================
  Execution time = 3.3467e+00
</vmc>
<opt stage="setup">
  <log>
   Reading configurations from h5FileRoot Ge.log.s005
  QMCCostFunction is created with 1 threads.
  Using Nonlocal PP in Opt: NonLocalECP
   Number of samples loaded to each thread : 500 
  VMC Eavg = -3.6522e+00
  VMC Evar = 5.1232e-01
  Total weights = 5.1200e+05
  Execution time = 8.2132e-01
  </log>
</opt>
<opt stage="main" walkers="512000">
  <log>

*****************************************
Building overlap and Hamiltonian matrices
*****************************************

Among totally 82 optimized parameters, largest LM parameter change : 1.6471e-02 at parameter 21

******************************************************************************
Init Cost =  -3.4440e+00    New Cost =  -3.4428e+00  Delta Cost =   1.2397e-03
******************************************************************************

The new set of parameters is valid. Updating the trial wave function!

*****************************************************************************
Applying the update for shift_i =   1.0000e-02     and shift_s =   3.9062e-03
*****************************************************************************
  Execution time = 5.0736e+00
  </log>
  <optVariables href="Ge.log.s005.opt.xml">
   uu_0                 4.160196e-01 1 1  ON 0
   uu_1                 2.752735e-01 1 1  ON 1
   uu_2                 1.477138e-01 1 1  ON 2
   uu_3                 6.009487e-02 1 1  ON 3
   uu_4                -1.540155e-02 1 1  ON 4
   uu_5                -7.785900e-02 1 1  ON 5
   uu_6                -1.184060e-01 1 1  ON 6
   uu_7                -1.319116e-01 1 1  ON 7
   uu_8                -1.212762e-01 1 1  ON 8
   uu_9                -1.034844e-01 1 1  ON 9
   ud_0                 1.275903e+00 1 1  ON 10
   ud_1                 9.044728e-01 1 1  ON 11
   ud_2                 6.592310e-01 1 1  ON 12
   ud_3                 4.774234e-01 1 1  ON 13
   ud_4                 3.500653e-01 1 1  ON 14
   ud_5                 2.418814e-01 1 1  ON 15
   ud_6                 1.382265e-01 1 1  ON 16
   ud_7                 5.486394e-02 1 1  ON 17
   ud_8                -1.096353e-02 1 1  ON 18
   ud_9                -6.483366e-02 1 1  ON 19
  eGe_0                -5.802770e-01 1 1  ON 20
  eGe_1                -4.946155e-01 1 1  ON 21
  eGe_2                -4.807714e-01 1 1  ON 22
  eGe_3                -2.727638e-01 1 1  ON 23
  eGe_4                -8.976964e-03 1 1  ON 24
  eGe_5                 1.435936e-01 1 1  ON 25
  eGe_6                 2.820559e-01 1 1  ON 26
  eGe_7                 3.886083e-01 1 1  ON 27
  eGe_8                 3.955289e-01 1 1  ON 28
  eGe_9                 3.264193e-01 1 1  ON 29
 uuGe_0                 7.301379e-06 1 1  ON 30
 uuGe_1                 1.287346e-05 1 1  ON 31
 uuGe_2                 2.992560e-05 1 1  ON 32
 uuGe_3                 1.003530e-05 1 1  ON 33
 uuGe_4                -4.224692e-06 1 1  ON 34
 uuGe_5                 1.067142e-06 1 1  ON 35
 uuGe_6                -1.160200e-05 1 1  ON 36
 uuGe_7                 1.587301e-04 1 1  ON 37
 uuGe_8                 5.014117e-05 1 1  ON 38
 uuGe_9                -6.294544e-05 1 1  ON 39
uuGe_10                 1.045619e-05 1 1  ON 40
uuGe_11                -9.510716e-05 1 1  ON 41
uuGe_12                 1.598452e-07 1 1  ON 42
uuGe_13                 1.293565e-05 1 1  ON 43
uuGe_14                 1.217372e-05 1 1  ON 44
uuGe_15                -1.363706e-06 1 1  ON 45
uuGe_16                 5.669135e-05 1 1  ON 46
uuGe_17                 3.301555e-06 1 1  ON 47
uuGe_18                 4.255884e-05 1 1  ON 48
uuGe_19                -8.710008e-06 1 1  ON 49
uuGe_20                -1.173504e-05 1 1  ON 50
uuGe_21                -4.733002e-06 1 1  ON 51
uuGe_22                 1.744814e-06 1 1  ON 52
uuGe_23                 3.421111e-06 1 1  ON 53
uuGe_24                 4.112047e-07 1 1  ON 54
uuGe_25                -3.219371e-07 1 1  ON 55
 udGe_0                -1.074934e-04 1 1  ON 56
 udGe_1                -1.469010e-04 1 1  ON 57
 udGe_2                 2.155938e-05 1 1  ON 58
 udGe_3                 2.943339e-04 1 1  ON 59
 udGe_4                 5.069442e-05 1 1  ON 60
 udGe_5                 1.036051e-05 1 1  ON 61
 udGe_6                 1.329031e-04 1 1  ON 62
 udGe_7                -6.539714e-05 1 1  ON 63
 udGe_8                -1.963756e-04 1 1  ON 64
 udGe_9                -2.311243e-05 1 1  ON 65
udGe_10                 1.719610e-04 1 1  ON 66
udGe_11                 1.619056e-05 1 1  ON 67
udGe_12                 6.011539e-05 1 1  ON 68
udGe_13                -3.231839e-04 1 1  ON 69
udGe_14                -6.842161e-05 1 1  ON 70
udGe_15                 1.045720e-06 1 1  ON 71
udGe_16                 2.552254e-04 1 1  ON 72
udGe_17                -4.093676e-04 1 1  ON 73
udGe_18                 8.422558e-05 1 1  ON 74
udGe_19                -2.279523e-05 1 1  ON 75
udGe_20                 5.959734e-05 1 1  ON 76
udGe_21                 1.539833e-06 1 1  ON 77
udGe_22                 6.703553e-07 1 1  ON 78
udGe_23                -1.192175e-05 1 1  ON 79
udGe_24                 6.221096e-07 1 1  ON 80
udGe_25                -3.446423e-08 1 1  ON 81
  </optVariables>
   Restore the number of walkers to 1, removing 0 walkers.
</opt>
</optimization-report>
  QMC Execution time = 5.091 secs
  Reusing QMCFixedSampleLinearOptimize
 Using QMCCostFunction::QMCCostFunction

=========================================================
  Start QMCFixedSampleLinearOptimize
  File Root Ge.log.s006 append = no 
=========================================================
  Skip QMCDriver::putQMCInfo 
  Resetting Properties of the walkers 1 x 13

=========================================================
  Start VMC
  File Root Ge.log.s006 append = no 
=========================================================
Using existing walkers 
  Resetting Properties of the walkers 1 x 13

<vmc function="put">
  qmc_counter=5  my_counter=5
  time step      = 1.5000e-01
  blocks         = 500
  steps          = 1
  substeps       = 5
  current        = 0
  target samples = 5.1200e+05
  walkers/mpi    = 1

  stepsbetweensamples = 1
<parameter name="blocks" condition="int">500</parameter>
<parameter name="blocks_between_recompute" condition="int">0</parameter>
<parameter name="check_properties" condition="int">100</parameter>
<parameter name="checkproperties" condition="int">100</parameter>
<parameter name="current" condition="int">0</parameter>
<parameter name="dmcwalkersperthread" condition="real">5.0000e+02</parameter>
<parameter name="maxcpusecs" condition="real">3.6000e+05</parameter>
<parameter name="record_configs" condition="int">0</parameter>
<parameter name="record_walkers" condition="int">1</parameter>
<parameter name="recordconfigs" condition="int">0</parameter>
<parameter name="recordwalkers" condition="int">1</parameter>
<parameter name="rewind" condition="int">0</parameter>
<parameter name="samples" condition="real">5.1200e+05</parameter>
<parameter name="samplesperthread" condition="real">5.0000e+02</parameter>
<parameter name="steps" condition="int">1</parameter>
<parameter name="stepsbetweensamples" condition="int">1</parameter>
<parameter name="store_configs" condition="int">0</parameter>
<parameter name="storeconfigs" condition="int">0</parameter>
<parameter name="sub_steps" condition="int">5</parameter>
<parameter name="substeps" condition="int">5</parameter>
<parameter name="tau" condition="au">1.5000e-01</parameter>
<parameter name="time_step" condition="au">1.5000e-01</parameter>
<parameter name="timestep" condition="au">1.5000e-01</parameter>
<parameter name="use_drift" condition="string">no</parameter>
<parameter name="usedrift" condition="string">no</parameter>
<parameter name="walkers" condition="int">1</parameter>
<parameter name="warmup_steps" condition="int">0</parameter>
<parameter name="warmupsteps" condition="int">0</parameter>
  DumpConfig==false Nothing (configurations, state) will be saved.
  Walker Samples are dumped every 1 steps.
</vmc>
  Set drift_modifier UNR parameter a = 1.0000e+00
  EstimatorManagerBase::add replace LocalEnergy estimator.
  Set drift_modifier UNR parameter a = 1.0000e+00
  EstimatorManagerBase::add replace LocalEnergy estimator.
<optimization-report>
<vmc stage="main" blocks="500">
  Cannot make clones again. Use existing 1 clones
  Initial partition of walkers 0 1 
  Using Particle by Particle moves
  Walker moves without drift
  Total Sample Size   =512000
  Walker distribution on root = 0 1 
  Using Locality Approximation
===== Memory Usage after the buffer registration =====
Available memory on node 0, free + buffers : 51687 MB
Memory footprint by rank 0 on node 0       : 606 MB
==================================================
====================================================
  SimpleFixedNodeBranch::finalize after a VMC block
    QMC counter        = 6
    time step          = 0.15
    reference energy   = -3.7166
    reference variance = 0.0698737
====================================================
  Execution time = 3.3578e+00
</vmc>
<opt stage="setup">
  <log>
   Reading configurations from h5FileRoot Ge.log.s006
  QMCCostFunction is created with 1 threads.
  Using Nonlocal PP in Opt: NonLocalECP
   Number of samples loaded to each thread : 500 
  VMC Eavg = -3.6484e+00
  VMC Evar = 5.9560e-01
  Total weights = 5.1200e+05
  Execution time = 8.3620e-01
  </log>
</opt>
<opt stage="main" walkers="512000">
  <log>

*****************************************
Building overlap and Hamiltonian matrices
*****************************************

Among totally 82 optimized parameters, largest LM parameter change : 1.2981e-02 at parameter 1

******************************************************************************
Init Cost =  -3.4362e+00    New Cost =  -3.4383e+00  Delta Cost =  -2.1068e-03
******************************************************************************

The new set of parameters is valid. Updating the trial wave function!

*****************************************************************************
Applying the update for shift_i =   1.0000e-02     and shift_s =   3.9062e-03
*****************************************************************************
  Execution time = 5.0981e+00
  </log>
  <optVariables href="Ge.log.s006.opt.xml">
   uu_0                 4.240963e-01 1 1  ON 0
   uu_1                 2.882542e-01 1 1  ON 1
   uu_2                 1.584947e-01 1 1  ON 2
   uu_3                 6.591420e-02 1 1  ON 3
   uu_4                -1.191700e-02 1 1  ON 4
   uu_5                -7.474023e-02 1 1  ON 5
   uu_6                -1.126575e-01 1 1  ON 6
   uu_7                -1.282728e-01 1 1  ON 7
   uu_8                -1.209677e-01 1 1  ON 8
   uu_9                -1.045358e-01 1 1  ON 9
   ud_0                 1.278086e+00 1 1  ON 10
   ud_1                 9.077834e-01 1 1  ON 11
   ud_2                 6.672670e-01 1 1  ON 12
   ud_3                 4.872085e-01 1 1  ON 13
   ud_4                 3.625403e-01 1 1  ON 14
   ud_5                 2.536352e-01 1 1  ON 15
   ud_6                 1.470650e-01 1 1  ON 16
   ud_7                 5.811424e-02 1 1  ON 17
   ud_8                -9.968946e-03 1 1  ON 18
   ud_9                -5.829582e-02 1 1  ON 19
  eGe_0                -5.824447e-01 1 1  ON 20
  eGe_1                -4.960608e-01 1 1  ON 21
  eGe_2                -4.842706e-01 1 1  ON 22
  eGe_3                -2.838613e-01 1 1  ON 23
  eGe_4                -1.056074e-02 1 1  ON 24
  eGe_5                 1.514323e-01 1 1  ON 25
  eGe_6                 2.849769e-01 1 1  ON 26
  eGe_7                 3.820538e-01 1 1  ON 27
  eGe_8                 3.849800e-01 1 1  ON 28
  eGe_9                 3.284210e-01 1 1  ON 29
 uuGe_0                 8.951736e-06 1 1  ON 30
 uuGe_1                 5.490183e-05 1 1  ON 31
 uuGe_2                 3.630416e-05 1 1  ON 32
 uuGe_3                -2.176961e-05 1 1  ON 33
 uuGe_4                -1.195561e-05 1 1  ON 34
 uuGe_5                -2.406184e-06 1 1  ON 35
 uuGe_6                 2.821194e-05 1 1  ON 36
 uuGe_7                 1.515466e-04 1 1  ON 37
 uuGe_8                 6.668611e-05 1 1  ON 38
 uuGe_9                -8.596686e-05 1 1  ON 39
uuGe_10                -1.405563e-05 1 1  ON 40
uuGe_11                -8.480166e-05 1 1  ON 41
uuGe_12                -6.231240e-06 1 1  ON 42
uuGe_13                 4.203908e-05 1 1  ON 43
uuGe_14                 1.716153e-05 1 1  ON 44
uuGe_15                -1.306788e-06 1 1  ON 45
uuGe_16                 5.904437e-05 1 1  ON 46
uuGe_17                 4.042370e-05 1 1  ON 47
uuGe_18                 2.441410e-05 1 1  ON 48
uuGe_19                -4.988285e-06 1 1  ON 49
uuGe_20                -1.935836e-05 1 1  ON 50
uuGe_21                -3.214542e-06 1 1  ON 51
uuGe_22                 1.373581e-06 1 1  ON 52
uuGe_23                 4.599154e-06 1 1  ON 53
uuGe_24                 8.995601e-08 1 1  ON 54
uuGe_25                -2.603834e-07 1 1  ON 55
 udGe_0                -1.228244e-05 1 1  ON 56
 udGe_1                -9.734553e-05 1 1  ON 57
 udGe_2                -6.529759e-05 1 1  ON 58
 udGe_3                 2.355767e-04 1 1  ON 59
 udGe_4                 6.433705e-05 1 1  ON 60
 udGe_5                 1.134563e-05 1 1  ON 61
 udGe_6                 8.044083e-05 1 1  ON 62
 udGe_7                -1.426325e-04 1 1  ON 63
 udGe_8                -2.521656e-04 1 1  ON 64
 udGe_9                -7.228818e-05 1 1  ON 65
udGe_10                 1.497977e-04 1 1  ON 66
udGe_11                 8.351137e-05 1 1  ON 67
udGe_12                 7.433477e-05 1 1  ON 68
udGe_13                -2.441689e-04 1 1  ON 69
udGe_14                -7.765516e-05 1 1  ON 70
udGe_15                 5.506636e-07 1 1  ON 71
udGe_16                 2.773749e-04 1 1  ON 72
udGe_17                -3.550443e-04 1 1  ON 73
udGe_18                 4.807105e-05 1 1  ON 74
udGe_19                -2.701406e-05 1 1  ON 75
udGe_20                 2.585246e-05 1 1  ON 76
udGe_21                 6.443908e-06 1 1  ON 77
udGe_22                 8.530720e-07 1 1  ON 78
udGe_23                -2.334471e-06 1 1  ON 79
udGe_24                -2.254415e-07 1 1  ON 80
udGe_25                -1.640206e-08 1 1  ON 81
  </optVariables>
   Restore the number of walkers to 1, removing 0 walkers.
</opt>
</optimization-report>
  QMC Execution time = 5.116 secs
  Reusing QMCFixedSampleLinearOptimize
 Using QMCCostFunction::QMCCostFunction

=========================================================
  Start QMCFixedSampleLinearOptimize
  File Root Ge.log.s007 append = no 
=========================================================
  Skip QMCDriver::putQMCInfo 
  Resetting Properties of the walkers 1 x 13

=========================================================
  Start VMC
  File Root Ge.log.s007 append = no 
=========================================================
Using existing walkers 
  Resetting Properties of the walkers 1 x 13

<vmc function="put">
  qmc_counter=6  my_counter=6
  time step      = 1.5000e-01
  blocks         = 500
  steps          = 1
  substeps       = 5
  current        = 0
  target samples = 5.1200e+05
  walkers/mpi    = 1

  stepsbetweensamples = 1
<parameter name="blocks" condition="int">500</parameter>
<parameter name="blocks_between_recompute" condition="int">0</parameter>
<parameter name="check_properties" condition="int">100</parameter>
<parameter name="checkproperties" condition="int">100</parameter>
<parameter name="current" condition="int">0</parameter>
<parameter name="dmcwalkersperthread" condition="real">5.0000e+02</parameter>
<parameter name="maxcpusecs" condition="real">3.6000e+05</parameter>
<parameter name="record_configs" condition="int">0</parameter>
<parameter name="record_walkers" condition="int">1</parameter>
<parameter name="recordconfigs" condition="int">0</parameter>
<parameter name="recordwalkers" condition="int">1</parameter>
<parameter name="rewind" condition="int">0</parameter>
<parameter name="samples" condition="real">5.1200e+05</parameter>
<parameter name="samplesperthread" condition="real">5.0000e+02</parameter>
<parameter name="steps" condition="int">1</parameter>
<parameter name="stepsbetweensamples" condition="int">1</parameter>
<parameter name="store_configs" condition="int">0</parameter>
<parameter name="storeconfigs" condition="int">0</parameter>
<parameter name="sub_steps" condition="int">5</parameter>
<parameter name="substeps" condition="int">5</parameter>
<parameter name="tau" condition="au">1.5000e-01</parameter>
<parameter name="time_step" condition="au">1.5000e-01</parameter>
<parameter name="timestep" condition="au">1.5000e-01</parameter>
<parameter name="use_drift" condition="string">no</parameter>
<parameter name="usedrift" condition="string">no</parameter>
<parameter name="walkers" condition="int">1</parameter>
<parameter name="warmup_steps" condition="int">0</parameter>
<parameter name="warmupsteps" condition="int">0</parameter>
  DumpConfig==false Nothing (configurations, state) will be saved.
  Walker Samples are dumped every 1 steps.
</vmc>
  Set drift_modifier UNR parameter a = 1.0000e+00
  EstimatorManagerBase::add replace LocalEnergy estimator.
  Set drift_modifier UNR parameter a = 1.0000e+00
  EstimatorManagerBase::add replace LocalEnergy estimator.
<optimization-report>
<vmc stage="main" blocks="500">
  Cannot make clones again. Use existing 1 clones
  Initial partition of walkers 0 1 
  Using Particle by Particle moves
  Walker moves without drift
  Total Sample Size   =512000
  Walker distribution on root = 0 1 
  Using Locality Approximation
===== Memory Usage after the buffer registration =====
Available memory on node 0, free + buffers : 51683 MB
Memory footprint by rank 0 on node 0       : 610 MB
==================================================
====================================================
  SimpleFixedNodeBranch::finalize after a VMC block
    QMC counter        = 7
    time step          = 0.15
    reference energy   = -3.70317
    reference variance = 0.0507851
====================================================
  Execution time = 3.3768e+00
</vmc>
<opt stage="setup">
  <log>
   Reading configurations from h5FileRoot Ge.log.s007
  QMCCostFunction is created with 1 threads.
  Using Nonlocal PP in Opt: NonLocalECP
   Number of samples loaded to each thread : 500 
  VMC Eavg = -3.6481e+00
  VMC Evar = 5.0895e-01
  Total weights = 5.1200e+05
  Execution time = 8.3485e-01
  </log>
</opt>
<opt stage="main" walkers="512000">
  <log>

*****************************************
Building overlap and Hamiltonian matrices
*****************************************

Among totally 82 optimized parameters, largest LM parameter change : 1.0127e-02 at parameter 0

******************************************************************************
Init Cost =  -3.4402e+00    New Cost =  -3.4401e+00  Delta Cost =   1.1405e-04
******************************************************************************

The new set of parameters is valid. Updating the trial wave function!

*****************************************************************************
Applying the update for shift_i =   1.0000e-02     and shift_s =   3.9062e-03
*****************************************************************************
  Execution time = 5.1317e+00
  </log>
  <optVariables href="Ge.log.s007.opt.xml">
   uu_0                 4.342230e-01 1 1  ON 0
   uu_1                 2.924451e-01 1 1  ON 1
   uu_2                 1.638030e-01 1 1  ON 2
   uu_3                 7.047605e-02 1 1  ON 3
   uu_4                -1.076237e-02 1 1  ON 4
   uu_5                -7.362429e-02 1 1  ON 5
   uu_6                -1.109458e-01 1 1  ON 6
   uu_7                -1.239547e-01 1 1  ON 7
   uu_8                -1.138838e-01 1 1  ON 8
   uu_9                -1.000705e-01 1 1  ON 9
   ud_0                 1.282440e+00 1 1  ON 10
   ud_1                 9.129340e-01 1 1  ON 11
   ud_2                 6.737939e-01 1 1  ON 12
   ud_3                 4.951894e-01 1 1  ON 13
   ud_4                 3.709350e-01 1 1  ON 14
   ud_5                 2.630032e-01 1 1  ON 15
   ud_6                 1.555850e-01 1 1  ON 16
   ud_7                 6.771909e-02 1 1  ON 17
   ud_8                -3.429610e-03 1 1  ON 18
   ud_9                -5.412100e-02 1 1  ON 19
  eGe_0                -5.890099e-01 1 1  ON 20
  eGe_1                -4.931086e-01 1 1  ON 21
  eGe_2                -4.937162e-01 1 1  ON 22
  eGe_3                -2.922385e-01 1 1  ON 23
  eGe_4                -9.859804e-03 1 1  ON 24
  eGe_5                 1.488395e-01 1 1  ON 25
  eGe_6                 2.877078e-01 1 1  ON 26
  eGe_7                 3.831811e-01 1 1  ON 27
  eGe_8                 3.782870e-01 1 1  ON 28
  eGe_9                 3.306296e-01 1 1  ON 29
 uuGe_0                 2.742855e-05 1 1  ON 30
 uuGe_1                 4.677141e-05 1 1  ON 31
 uuGe_2                 2.597013e-05 1 1  ON 32
 uuGe_3                -3.057789e-05 1 1  ON 33
 uuGe_4                -1.067706e-05 1 1  ON 34
 uuGe_5                -6.053007e-07 1 1  ON 35
 uuGe_6                 2.328742e-06 1 1  ON 36
 uuGe_7                 1.432331e-04 1 1  ON 37
 uuGe_8                 7.212769e-05 1 1  ON 38
 uuGe_9                -9.135492e-05 1 1  ON 39
uuGe_10                -1.580894e-05 1 1  ON 40
uuGe_11                -8.372702e-05 1 1  ON 41
uuGe_12                -7.580705e-06 1 1  ON 42
uuGe_13                 7.042803e-05 1 1  ON 43
uuGe_14                 2.045903e-05 1 1  ON 44
uuGe_15                -1.499899e-06 1 1  ON 45
uuGe_16                 5.573922e-05 1 1  ON 46
uuGe_17                 6.850531e-05 1 1  ON 47
uuGe_18                 1.942097e-05 1 1  ON 48
uuGe_19                -4.699824e-06 1 1  ON 49
uuGe_20                -3.352352e-05 1 1  ON 50
uuGe_21                -3.111882e-06 1 1  ON 51
uuGe_22                 1.465631e-06 1 1  ON 52
uuGe_23                 9.588206e-06 1 1  ON 53
uuGe_24                -1.300814e-07 1 1  ON 54
uuGe_25                -2.697750e-07 1 1  ON 55
 udGe_0                -4.400160e-05 1 1  ON 56
 udGe_1                -1.247804e-04 1 1  ON 57
 udGe_2                -2.847352e-05 1 1  ON 58
 udGe_3                 2.618492e-04 1 1  ON 59
 udGe_4                 5.611659e-05 1 1  ON 60
 udGe_5                 1.118932e-05 1 1  ON 61
 udGe_6                 1.021821e-04 1 1  ON 62
 udGe_7                -1.175909e-04 1 1  ON 63
 udGe_8                -2.252629e-04 1 1  ON 64
[...]
   uu_2                 2.026574e-01 1 1  ON 2
   uu_3                 9.814298e-02 1 1  ON 3
   uu_4                 1.335743e-02 1 1  ON 4
   uu_5                -5.307528e-02 1 1  ON 5
   uu_6                -9.308295e-02 1 1  ON 6
   uu_7                -1.100267e-01 1 1  ON 7
   uu_8                -1.042941e-01 1 1  ON 8
   uu_9                -9.417136e-02 1 1  ON 9
   ud_0                 1.358295e+00 1 1  ON 10
   ud_1                 9.903494e-01 1 1  ON 11
   ud_2                 7.477602e-01 1 1  ON 12
   ud_3                 5.666116e-01 1 1  ON 13
   ud_4                 4.394724e-01 1 1  ON 14
   ud_5                 3.301635e-01 1 1  ON 15
   ud_6                 2.216331e-01 1 1  ON 16
   ud_7                 1.291847e-01 1 1  ON 17
   ud_8                 5.402630e-02 1 1  ON 18
   ud_9                -6.376620e-03 1 1  ON 19
  eGe_0                -5.869403e-01 1 1  ON 20
  eGe_1                -5.714983e-01 1 1  ON 21
  eGe_2                -5.851934e-01 1 1  ON 22
  eGe_3                -3.742900e-01 1 1  ON 23
  eGe_4                -9.501564e-02 1 1  ON 24
  eGe_5                 7.515691e-02 1 1  ON 25
  eGe_6                 2.407751e-01 1 1  ON 26
  eGe_7                 3.609795e-01 1 1  ON 27
  eGe_8                 4.043855e-01 1 1  ON 28
  eGe_9                 3.851841e-01 1 1  ON 29
 uuGe_0                 1.634198e-05 1 1  ON 30
 uuGe_1                 4.242016e-05 1 1  ON 31
 uuGe_2                 3.259676e-05 1 1  ON 32
 uuGe_3                -1.664802e-05 1 1  ON 33
 uuGe_4                -8.234829e-06 1 1  ON 34
 uuGe_5                -2.019845e-06 1 1  ON 35
 uuGe_6                 2.153095e-06 1 1  ON 36
 uuGe_7                 1.608005e-04 1 1  ON 37
 uuGe_8                 6.415517e-05 1 1  ON 38
 uuGe_9                -8.142282e-05 1 1  ON 39
uuGe_10                -4.198610e-06 1 1  ON 40
uuGe_11                -9.266182e-05 1 1  ON 41
uuGe_12                -3.536265e-06 1 1  ON 42
uuGe_13                 4.267010e-05 1 1  ON 43
uuGe_14                 1.679168e-05 1 1  ON 44
uuGe_15                -1.527741e-06 1 1  ON 45
uuGe_16                 5.110988e-05 1 1  ON 46
uuGe_17                 3.852088e-05 1 1  ON 47
uuGe_18                 3.013267e-05 1 1  ON 48
uuGe_19                -7.134794e-06 1 1  ON 49
uuGe_20                -1.973303e-05 1 1  ON 50
uuGe_21                -3.682909e-06 1 1  ON 51
uuGe_22                 1.674884e-06 1 1  ON 52
uuGe_23                 4.987505e-06 1 1  ON 53
uuGe_24                 1.015764e-07 1 1  ON 54
uuGe_25                -3.078175e-07 1 1  ON 55
 udGe_0                -9.635863e-05 1 1  ON 56
 udGe_1                -2.650277e-04 1 1  ON 57
 udGe_2                 1.285847e-06 1 1  ON 58
 udGe_3                 3.282120e-04 1 1  ON 59
 udGe_4                 5.764469e-05 1 1  ON 60
 udGe_5                 2.148646e-05 1 1  ON 61
 udGe_6                -4.046797e-05 1 1  ON 62
 udGe_7                 7.771425e-06 1 1  ON 63
 udGe_8                -1.962564e-04 1 1  ON 64
 udGe_9                 6.318154e-05 1 1  ON 65
udGe_10                 2.042098e-04 1 1  ON 66
udGe_11                -2.979261e-05 1 1  ON 67
udGe_12                 6.201212e-05 1 1  ON 68
udGe_13                -3.490219e-04 1 1  ON 69
udGe_14                -6.382052e-05 1 1  ON 70
udGe_15                 5.653665e-07 1 1  ON 71
udGe_16                 2.087873e-04 1 1  ON 72
udGe_17                -4.347252e-04 1 1  ON 73
udGe_18                 1.231711e-04 1 1  ON 74
udGe_19                -2.650417e-05 1 1  ON 75
udGe_20                 6.666761e-05 1 1  ON 76
udGe_21                -4.212856e-06 1 1  ON 77
udGe_22                 1.452073e-06 1 1  ON 78
udGe_23                -1.186249e-05 1 1  ON 79
udGe_24                 1.482226e-06 1 1  ON 80
udGe_25                -1.810210e-07 1 1  ON 81
  </optVariables>
   Restore the number of walkers to 1, removing 0 walkers.
</opt>
</optimization-report>
  QMC Execution time = 5.2 secs

=========================================================
  Start VMC
  File Root Ge.log.s021 append = no 
=========================================================
  Using the current 1 walkers.
  Total number of walkers: 1024
  Total weight: 1024
  Resetting Properties of the walkers 1 x 13

<vmc function="put">
  qmc_counter=0  my_counter=0
  time step      = 0.15
  blocks         = 200
  steps          = 1
  substeps       = 30
  current        = 0
  target samples = 4096
  walkers/mpi    = 1

  stepsbetweensamples = 50
<parameter name="blocks" condition="int">200</parameter>
<parameter name="blocks_between_recompute" condition="int">0</parameter>
<parameter name="check_properties" condition="int">100</parameter>
<parameter name="checkproperties" condition="int">100</parameter>
<parameter name="current" condition="int">0</parameter>
<parameter name="dmcwalkersperthread" condition="real">4</parameter>
<parameter name="maxcpusecs" condition="real">3.6e+05</parameter>
<parameter name="record_configs" condition="int">0</parameter>
<parameter name="record_walkers" condition="int">50</parameter>
<parameter name="recordconfigs" condition="int">0</parameter>
<parameter name="recordwalkers" condition="int">50</parameter>
<parameter name="rewind" condition="int">0</parameter>
<parameter name="samples" condition="real">4096</parameter>
<parameter name="samplesperthread" condition="real">4</parameter>
<parameter name="steps" condition="int">1</parameter>
<parameter name="stepsbetweensamples" condition="int">50</parameter>
<parameter name="store_configs" condition="int">0</parameter>
<parameter name="storeconfigs" condition="int">0</parameter>
<parameter name="sub_steps" condition="int">30</parameter>
<parameter name="substeps" condition="int">30</parameter>
<parameter name="tau" condition="au">0.15</parameter>
<parameter name="time_step" condition="au">0.15</parameter>
<parameter name="timestep" condition="au">0.15</parameter>
<parameter name="use_drift" condition="string">no</parameter>
<parameter name="usedrift" condition="string">no</parameter>
<parameter name="walkers" condition="int">1</parameter>
<parameter name="warmup_steps" condition="int">100</parameter>
<parameter name="warmupsteps" condition="int">100</parameter>
  DumpConfig==true Configurations are dumped to config.h5 with a period of 200 blocks
  Walker Samples are dumped every 50 steps.
</vmc>
  Set drift_modifier UNR parameter a = 1
  EstimatorManagerBase::add replace LocalEnergy estimator.
  Cannot make clones again. Use existing 1 clones
  Initial partition of walkers 0 1 

  Using Particle by Particle moves
  Walker moves without drift
  Total Sample Size   =4096
  Walker distribution on root = 0 1 
  Using Locality Approximation
===== Memory Usage after the buffer registration =====
Available memory on node 0, free + buffers : 51623 MB
Memory footprint by rank 0 on node 0       : 654 MB
==================================================
  Anonymous Buffer size per walker : 1440 Bytes.
MEMORY increase 0 MB VMC::resetRun
  samples are written to the config.h5
====================================================
  SimpleFixedNodeBranch::finalize after a VMC block
    QMC counter        = 21
    time step          = 0.15
    reference energy   = -3.7112
    reference variance = 0.048998
====================================================
  QMC Execution time = 2.465 secs

=========================================================
  Start DMC
  File Root Ge.log.s022 append = no 
=========================================================
Using existing walkers 
  Resetting Properties of the walkers 1 x 13
  Set drift_modifier UNR parameter a = 1
  EstimatorManagerBase::add replace LocalEnergy estimator.
  Cannot make clones again. Use existing 1 clones
  Total number of walkers: 4096
  Total weight: 4096
  Creating WalkerController: target  number of walkers = 4096
  Using WalkerControlMPI for dynamic population control.
  START ALL OVER 
  WalkerControlBase parameters 
    maxCopy = 2
    Max Walkers per MPI rank 9
    Min Walkers per MPI rank 1
    Using non-blocking send/recv
  QMC counter      = 22
  time step        = 0.02
  effective time step = 0.02
  trial energy     = -3.711
  reference energy = -3.711
  Feedback = 1
  reference variance = 0.049
  target walkers = 4096
  branching cutoff scheme classic
  branch cutoff = 50 75
  Max and minimum walkers per node= 9 1
  QMC Status (BranchMode) = 0000001101
  Initial partition of walkers on a node: 0 4 
  Updates by particle-by-particle moves
  DMC moves are rejected when a node crossing is detected
  Using Non-local T-moves v1, M. Casula et al., JCP 132, 154113 (2010)
===== Memory Usage after the buffer registration =====
Available memory on node 0, free + buffers : 51565 MB
Memory footprint by rank 0 on node 0       : 666 MB
==================================================
SimpleFixedNodeBranch::checkParameters 
  Average Energy of a population  = -3.71143
  Energy Variance = 0.0609635

  Fluctuating population
  Persistent walkers are killed after 1 MC sweeps
  BranchInterval = 1
  Steps per block = 50
  Number of blocks = 150

  DMC Engine Initialization = 0.03414 secs

 Warmup is completed after 200

  TauEff     = 0.01993
 TauEff/Tau = 0.9966
  Etrial     = -3.764
 Running average of energy = -3.735
                  Variance = 0.07962
branch cutoff = 10 15
====================================================
  SimpleFixedNodeBranch::finalize after a DMC block
    QMC counter                   = 22
    time step                     = 0.02
    effective time step           = 0.0199321
    trial energy                  = -3.74583
    reference energy              = -3.74193
    reference variance            = 0.0796164
    target walkers                = 4096
    branch cutoff                 = 10 15
    Max and minimum walkers per node= 9 1
    Feedback                      = 1
    QMC Status (BranchMode)       = 0000001111
====================================================
  QMC Execution time = 181 secs
  Reusing DMC
BRANCH resetRun
 SimpleFixedNodeBranch::resetRun detected changes in <parameter>'s 
 BranchMode : 0000001111 0000001111
  WalkerControlBase parameters 
    maxCopy = 2
    Max Walkers per MPI rank 9
    Min Walkers per MPI rank 1
    Using non-blocking send/recv
 iParam (old):                  0                 1                22              4096                 9                 1                 1                 0
 iParam (new):                100                 1                22              4096                 9                 1                 1                 0
 vParam (old):               0.02     0.01993205288      -3.745831457      -3.741932817      -3.741325027                15                10               0.2     0.07961643816      -27319.85089              7301                 1                10                 1                 1                 1                 1
 vParam (new):               0.01     0.01993205288      -3.745831457      -3.741932817      -3.741325027                15                10               0.2     0.07961643816      -27319.85089              7301                 1                10                 1                 1                 1                 1

 Using branching cutoff scheme classic
SimpleFixedNodeBranch::checkParameters 
  Average Energy of a population  = -3.74127
  Energy Variance = 0.0849053

  Using Non-local T-moves v1, M. Casula et al., JCP 132, 154113 (2010)
===== Memory Usage after the buffer registration =====
Available memory on node 0, free + buffers : 51565 MB
Memory footprint by rank 0 on node 0       : 670 MB
==================================================

=========================================================
  Start DMC
  File Root Ge.log.s023 append = no 
=========================================================
Using existing walkers 
  Resetting Properties of the walkers 1 x 13
  Set drift_modifier UNR parameter a = 1
  EstimatorManagerBase::add replace LocalEnergy estimator.
  Cannot make clones again. Use existing 1 clones
SimpleFixedNodeBranch::checkParameters 
  Average Energy of a population  = -3.74053
  Energy Variance = 0.0847792

  Fluctuating population
  Persistent walkers are killed after 1 MC sweeps
  BranchInterval = 1
  Steps per block = 100
  Number of blocks = 200

  DMC Engine Initialization = 0.0003850460052 secs

 Warmup is completed after 100

  TauEff     = 0.009987481064
 TauEff/Tau = 0.9987481064
  Etrial     = -3.635169637
 Running average of energy = -3.740268964
                  Variance = 0.08398157745
branch cutoff = 10 15
====================================================
  SimpleFixedNodeBranch::finalize after a DMC block
    QMC counter                   = 23
    time step                     = 0.01
    effective time step           = 0.00998752
    trial energy                  = -3.74358
    reference energy              = -3.74212
    reference variance            = 0.0839816
    target walkers                = 4096
    branch cutoff                 = 10 15
    Max and minimum walkers per node= 9 1
    Feedback                      = 1
    QMC Status (BranchMode)       = 0000001111
====================================================
  QMC Execution time = 482.3 secs
  Reusing DMC
BRANCH resetRun
 SimpleFixedNodeBranch::resetRun detected changes in <parameter>'s 
 BranchMode : 0000001111 0000001111
  WalkerControlBase parameters 
    maxCopy = 2
    Max Walkers per MPI rank 9
    Min Walkers per MPI rank 1
    Using non-blocking send/recv
 iParam (old):                  0                 1                23              4096                 9                 1                 1                 0
 iParam (new):                200                 1                23              4096                 9                 1                 1                 0
 vParam (old):               0.01    0.009987517762      -3.743580245      -3.742116473      -3.752687341                15                10               0.2     0.08398157745      -74471.87049             19901                 1                10                 1                 1                 1                 1
 vParam (new):              0.005    0.009987517762      -3.743580245      -3.742116473      -3.752687341                15                10               0.2     0.08398157745      -74471.87049             19901                 1                10                 1                 1                 1                 1

 Using branching cutoff scheme classic
SimpleFixedNodeBranch::checkParameters 
  Average Energy of a population  = -3.75209
  Energy Variance = 0.0900495

  Using Non-local T-moves v1, M. Casula et al., JCP 132, 154113 (2010)
===== Memory Usage after the buffer registration =====
Available memory on node 0, free + buffers : 51539 MB
Memory footprint by rank 0 on node 0       : 674 MB
==================================================

=========================================================
  Start DMC
  File Root Ge.log.s024 append = no 
=========================================================
Using existing walkers 
  Resetting Properties of the walkers 1 x 13
  Set drift_modifier UNR parameter a = 1
  EstimatorManagerBase::add replace LocalEnergy estimator.
  Cannot make clones again. Use existing 1 clones
SimpleFixedNodeBranch::checkParameters 
  Average Energy of a population  = -3.7519
  Energy Variance = 0.0899254

  Fluctuating population
  Persistent walkers are killed after 1 MC sweeps
  BranchInterval = 1
  Steps per block = 200
  Number of blocks = 250

  DMC Engine Initialization = 0.0003619194031 secs

 Warmup is completed after 200

  TauEff     = 0.004997761957
 TauEff/Tau = 0.9995523915
  Etrial     = -3.599470559
 Running average of energy = -3.74411916
                  Variance = 0.0876488692
branch cutoff = 10 15
====================================================
  SimpleFixedNodeBranch::finalize after a DMC block
    QMC counter                   = 24
    time step                     = 0.005
    effective time step           = 0.00499774
    trial energy                  = -3.74889
    reference energy              = -3.74232
    reference variance            = 0.0876489
    target walkers                = 4096
    branch cutoff                 = 10 15
    Max and minimum walkers per node= 9 1
    Feedback                      = 1
    QMC Status (BranchMode)       = 0000001111
====================================================
  QMC Execution time = 1192 secs
  Reusing DMC
BRANCH resetRun
 SimpleFixedNodeBranch::resetRun detected changes in <parameter>'s 
 BranchMode : 0000001111 0000001111
  WalkerControlBase parameters 
    maxCopy = 2
    Max Walkers per MPI rank 9
    Min Walkers per MPI rank 1
    Using non-blocking send/recv
 iParam (old):                  0                 1                24              4096                 9                 1                 1                 0
 iParam (new):                400                 1                24              4096                 9                 1                 1                 0
 vParam (old):              0.005    0.004997740505      -3.748889083      -3.742318917       -3.74955538                15                10               0.2      0.0876488692      -186371.2316             49801                 1                10                 1                 1                 1                 1
 vParam (new):             0.0025    0.004997740505      -3.748889083      -3.742318917       -3.74955538                15                10               0.2      0.0876488692      -186371.2316             49801                 1                10                 1                 1                 1                 1

 Using branching cutoff scheme classic
SimpleFixedNodeBranch::checkParameters 
  Average Energy of a population  = -3.7503
  Energy Variance = 0.0996899

  Using Non-local T-moves v1, M. Casula et al., JCP 132, 154113 (2010)
===== Memory Usage after the buffer registration =====
Available memory on node 0, free + buffers : 51512 MB
Memory footprint by rank 0 on node 0       : 677 MB
==================================================

=========================================================
  Start DMC
  File Root Ge.log.s025 append = no 
=========================================================
Using existing walkers 
  Resetting Properties of the walkers 1 x 13
  Set drift_modifier UNR parameter a = 1
  EstimatorManagerBase::add replace LocalEnergy estimator.
  Cannot make clones again. Use existing 1 clones
SimpleFixedNodeBranch::checkParameters 
  Average Energy of a population  = -3.75034
  Energy Variance = 0.0996203

  Fluctuating population
  Persistent walkers are killed after 1 MC sweeps
  BranchInterval = 1
  Steps per block = 400
  Number of blocks = 300

  DMC Engine Initialization = 0.0008070468903 secs

 Warmup is completed after 400

  TauEff     = 0.002499599855
 TauEff/Tau = 0.999839942
  Etrial     = -3.930501951
 Running average of energy = -3.74278145
                  Variance = 0.08842326606
branch cutoff = 10 15
====================================================
  SimpleFixedNodeBranch::finalize after a DMC block
    QMC counter                   = 25
    time step                     = 0.0025
    effective time step           = 0.0024996
    trial energy                  = -3.74607
    reference energy              = -3.74315
    reference variance            = 0.0884233
    target walkers                = 4096
    branch cutoff                 = 10 15
    Max and minimum walkers per node= 9 1
    Feedback                      = 1
    QMC Status (BranchMode)       = 0000001111
====================================================
  QMC Execution time = 2861 secs
  Total Execution time = 4824 secs

=========================================================
  A new xml input file : Ge.log.s025.cont.xml
TACC:  Shutdown complete. Exiting. 
