TACC:  Starting up job 3912541 
TACC:  Starting parallel tasks... 
  Input file(s): As.log.qmc.in-wfj.xml 

=====================================================
                    QMCPACK 3.7.9

       (c) Copyright 2003-  QMCPACK developers

                    Please cite:
 J. Kim et al. J. Phys. Cond. Mat. 30 195901 (2018)
      https://doi.org/10.1088/1361-648X/aab9c3

  Git branch: develop
  Last git commit: 9a049a3fb3e0d7110d61a924a52203fd8296522a
  Last git commit date: Mon Jul 1 13:42:43 2019 -0500
  Last git commit subject: Merge pull request #1686 from ye-luo/rename-to-LCAOHDFParser
=====================================================
  Global options 

  Total number of MPI ranks = 1024
  Number of MPI groups      = 1
  MPI group ID              = 0
  Number of ranks in group  = 1024
  MPI ranks per node        = 64
  OMP 1st level threads     = 1
  OMP nested threading disabled or only 1 thread on the 2nd level

  Precision used in this calculation, see definitions in the manual:
  Base precision      = double
  Full precision      = double

  Structure-of-arrays (SoA) optimization enabled

  Input XML = As.log.qmc.in-wfj.xml

  Project = As.log
  date    = 2019-07-01 20:04:55 CDT
  host    = c425-001.stampede2.tacc.utexas.edu

 Random Number
 -------------
  Offset for the random number seeds based on time: 439

  Range of prime numbers to use as seeds over processors and threads = 3083-12253


 Particle Set 
 ------------
  Name: ion0
  All the species have the same mass 1
  Particle set size: 1

 Particle Set 
 ------------
  Name: e
  All the species have the same mass 1
  Particle set size: 5

 Wavefunction setup: 
 ------------------- 
  Name: psi0
  LCAO: SoaAtomicBasisSet<MultiQuintic,1>
Reading BasisSet from HDF5 file:As.log.h5
<input node="atomicBasisSet" name="gaussian" expandYlm="pyscf" angular="spherical" elementType="As" normalized="no" type="Numerical" expM="0" />
  AO BasisSet for As
   Spherical Harmonics contain (-1)^m factor
   Angular momentum m expanded as -l, ... ,l, with the exception of L=1 (1,-1,0)
   Grid is created by the input paremters in h5
    Using log grid ri = 1e-06 rf = 100 npts = 1001
   R(n,l,m,s) 0 0 0 0
   R(n,l,m,s) 1 0 0 0
   R(n,l,m,s) 2 0 0 0
   R(n,l,m,s) 3 0 0 0
   R(n,l,m,s) 4 0 0 0
   R(n,l,m,s) 5 1 0 0
   R(n,l,m,s) 6 1 0 0
   R(n,l,m,s) 7 1 0 0
   R(n,l,m,s) 8 1 0 0
   R(n,l,m,s) 9 1 0 0
   R(n,l,m,s) 10 2 0 0
   R(n,l,m,s) 11 2 0 0
   R(n,l,m,s) 12 2 0 0
   R(n,l,m,s) 13 2 0 0
   R(n,l,m,s) 14 3 0 0
   R(n,l,m,s) 15 3 0 0
   R(n,l,m,s) 16 3 0 0
   R(n,l,m,s) 17 4 0 0
   R(n,l,m,s) 18 4 0 0
   R(n,l,m,s) 19 5 0 0
Expanding Ylm as L=1 as (1,-1,0) and L>1 as -l,-l+1,...,l-1,l
   Adding 1 spherical orbitals
   Adding 1 spherical orbitals
   Adding 1 spherical orbitals
   Adding 1 spherical orbitals
   Adding 1 spherical orbitals
   Adding 3 spherical orbitals
   Adding 3 spherical orbitals
   Adding 3 spherical orbitals
   Adding 3 spherical orbitals
   Adding 3 spherical orbitals
   Adding 5 spherical orbitals
   Adding 5 spherical orbitals
   Adding 5 spherical orbitals
   Adding 5 spherical orbitals
   Adding 7 spherical orbitals
   Adding 7 spherical orbitals
   Adding 7 spherical orbitals
   Adding 9 spherical orbitals
   Adding 9 spherical orbitals
   Adding 11 spherical orbitals
  Setting cutoff radius 13.1826

   Maximum Angular Momentum  = 5
   Number of Radial functors = 20
   Basis size                = 90

  Created SPOSet builder named 'LCAOBSet' of type molecularorbital
Reuse SPOSetBuilder "LCAOBSet" type MolecularOrbital
  Building SPOSet '' with '' basis set.
Reuse SPOSetBuilder "LCAOBSet" type MolecularOrbital
  Building SPOSet '' with '' basis set.
  Creating a determinant updet group=0 sposet=updet
  Reusing a SPO set updet
Using DiracDeterminant with DelayedUpdate engine
Using rank-1 Sherman-Morrison Fahy update

  Creating a determinant downdet group=1 sposet=downdet
  Reusing a SPO set downdet
Using DiracDeterminant with DelayedUpdate engine
Using rank-1 Sherman-Morrison Fahy update

  FermionWF = SlaterDet

   Jastrow
   -------
    Name: J2   Type: Two-Body   Function: Bspline

    Radial function for species: u - u
     Number of parameters: 10
     Cusp: -0.25
     Cutoff radius: 10

     Name                        Value Type Recompute Use Index
     ---- ---------------------------- ---- --------- --- -----
     uu_0                 0.000000e+00    1         1  ON     0
     uu_1                 0.000000e+00    1         1  ON     1
     uu_2                 0.000000e+00    1         1  ON     2
     uu_3                 0.000000e+00    1         1  ON     3
     uu_4                 0.000000e+00    1         1  ON     4
     uu_5                 0.000000e+00    1         1  ON     5
     uu_6                 0.000000e+00    1         1  ON     6
     uu_7                 0.000000e+00    1         1  ON     7
     uu_8                 0.000000e+00    1         1  ON     8
     uu_9                 0.000000e+00    1         1  ON     9

    Radial function for species: u - d
     Number of parameters: 10
     Cusp: -0.5
     Cutoff radius: 10

     Name                        Value Type Recompute Use Index
     ---- ---------------------------- ---- --------- --- -----
     ud_0                 0.000000e+00    1         1  ON     0
     ud_1                 0.000000e+00    1         1  ON     1
     ud_2                 0.000000e+00    1         1  ON     2
     ud_3                 0.000000e+00    1         1  ON     3
     ud_4                 0.000000e+00    1         1  ON     4
     ud_5                 0.000000e+00    1         1  ON     5
     ud_6                 0.000000e+00    1         1  ON     6
     ud_7                 0.000000e+00    1         1  ON     7
     ud_8                 0.000000e+00    1         1  ON     8
     ud_9                 0.000000e+00    1         1  ON     9


   Jastrow
   -------
    Name: J1   Type: One-Body   Function: Bspline

    Radial function for element: As
     Number of parameters: 10
     Cusp: 0
     Cutoff radius: 10

      Name                        Value Type Recompute Use Index
     ----- ---------------------------- ---- --------- --- -----
     eAs_0                 0.000000e+00    1         1  ON     0
     eAs_1                 0.000000e+00    1         1  ON     1
     eAs_2                 0.000000e+00    1         1  ON     2
     eAs_3                 0.000000e+00    1         1  ON     3
     eAs_4                 0.000000e+00    1         1  ON     4
     eAs_5                 0.000000e+00    1         1  ON     5
     eAs_6                 0.000000e+00    1         1  ON     6
     eAs_7                 0.000000e+00    1         1  ON     7
     eAs_8                 0.000000e+00    1         1  ON     8
     eAs_9                 0.000000e+00    1         1  ON     9


   Jastrow
   -------
    Name: J3   Type: eeI   Function: polynomial

     Ion: As   electron-electron: u - u
      Number of parameters for e-e: 3, for e-I: 3
      Cutoff radius: 10

Expected 26 parameters, but found 0 in PolynomialFunctor3D.
     Ion: As   electron-electron: u - d
      Number of parameters for e-e: 3, for e-I: 3
      Cutoff radius: 10

Expected 26 parameters, but found 0 in PolynomialFunctor3D.
  QMCHamiltonian::addOperator Kinetic to H, physical Hamiltonian 
  QMCHamiltonian::addOperator ElecElec to H, physical Hamiltonian 
QMCHamiltonian::addOperatorType added type coulomb named ElecElec
  CoulombAA for ion0 is not created.  Number of particles == 1 and nonPeriodic

  ECPotential builder for pseudopotential 

  Adding pseudopotential for As
   Linear grid  ri=0 rf=10 npts = 10001
    ECPComponentBuilder::buildSemiLocalAndLocal 
    Assuming Hartree unit
   Number of angular momentum channels 4
   Maximum angular momentum channel 3
   Creating a Linear Grid Rmax=2.78
  Using global grid with delta = 0.001
   Making L=3 a local potential with a radial cutoff of 9.999
    Non-local pseudopotential parameters
    Maximum angular mementum = 2
    Number of non-local channels = 3
       l(0)=0
       l(1)=1
       l(2)=2
    Cutoff radius = 2.78
    Spherical grids and weights: 
                        1                 0                 0       0.08333333333
                       -1   1.224646799e-16                 0       0.08333333333
             0.4472135955       0.894427191                 0       0.08333333333
            -0.4472135955      0.7236067977      0.5257311121       0.08333333333
             0.4472135955      0.2763932023      0.8506508084       0.08333333333
            -0.4472135955     -0.2763932023      0.8506508084       0.08333333333
             0.4472135955     -0.7236067977      0.5257311121       0.08333333333
            -0.4472135955      -0.894427191   1.095357397e-16       0.08333333333
             0.4472135955     -0.7236067977     -0.5257311121       0.08333333333
            -0.4472135955     -0.2763932023     -0.8506508084       0.08333333333
             0.4472135955      0.2763932023     -0.8506508084       0.08333333333
            -0.4472135955      0.7236067977     -0.5257311121       0.08333333333
    Maximum cutoff radius 2.78
  QMCHamiltonian::addOperator LocalECP to H, physical Hamiltonian 

  Using NonLocalECP potential 
    Maximum grid on a sphere for NonLocalECPotential: 12
  QMCHamiltonian::addOperator NonLocalECP to H, physical Hamiltonian 
QMCHamiltonian::addOperatorType added type pseudo named PseudoPot

  QMCHamiltonian::add2WalkerProperty added
    4 to P::PropertyList 
    0 to P::Collectables 
    starting Index of the observables in P::PropertyList = 9
ParticleSetPool::randomize 
<init source="ion0" target="e">
</init>
  Initialization Execution time = 0.6122 secs
=========================================================
 Summary of QMC systems 
=========================================================
ParticleSetPool has: 

  ParticleSet 'e' contains 5 particles :  u(4) d(1)

    u  3.9802353038e-01  2.3731243418e-01  1.5605136960e+00
    u  1.3196086897e-02  9.3082346372e-01 -6.5276910569e-01
    u  1.2456745293e+00 -1.6455718388e+00  9.5275643276e-02
    u -1.6609106419e+00 -5.1074667979e-01  1.4053384592e+00
    d  3.8320654966e-01 -1.0282623039e+00 -4.2380507148e-01

  Distance table for dissimilar particles (A-B):
    source: ion0  target: e
    Using structure-of-arrays (SoA) data layout
    Distance computations use open boundary conditions in 3D.

  Distance table for similar particles (A-A):
    source/target: e
    Using structure-of-arrays (SoA) data layout
    Distance computations use open boundary conditions in 3D.


  ParticleSet 'ion0' contains 1 particles :  As(1)

    As  0.0000000000e+00  0.0000000000e+00  0.0000000000e+00


  Hamiltonian h0
  Kinetic         Kinetic energy
  ElecElec        CoulombAB source=e

  LocalECP        LocalECPotential: ion0
  NonLocalECP     NonLocalECPotential: ion0


=========================================================
  Start VMC
  File Root As.log.s000 append = no 
=========================================================
  Adding 1 walkers to 0 existing sets
  Total number of walkers: 1.0240000000e+03
  Total weight: 1.0240000000e+03
  Resetting Properties of the walkers 1 x 13

<vmc function="put">
  qmc_counter=0  my_counter=0
  time step      = 1.5000000000e-01
  blocks         = 200
  steps          = 1
  substeps       = 5
  current        = 0
  target samples = 1.0240000000e+03
  walkers/mpi    = 1

  stepsbetweensamples = 200
<parameter name="blocks" condition="int">200</parameter>
<parameter name="blocks_between_recompute" condition="int">0</parameter>
<parameter name="check_properties" condition="int">100</parameter>
<parameter name="checkproperties" condition="int">100</parameter>
<parameter name="current" condition="int">0</parameter>
<parameter name="dmcwalkersperthread" condition="real">1.0000000000e+00</parameter>
<parameter name="maxcpusecs" condition="real">3.6000000000e+05</parameter>
<parameter name="record_configs" condition="int">0</parameter>
<parameter name="record_walkers" condition="int">200</parameter>
<parameter name="recordconfigs" condition="int">0</parameter>
<parameter name="recordwalkers" condition="int">200</parameter>
<parameter name="rewind" condition="int">0</parameter>
<parameter name="samples" condition="real">1.0240000000e+03</parameter>
<parameter name="samplesperthread" condition="real">1.0000000000e+00</parameter>
<parameter name="steps" condition="int">1</parameter>
<parameter name="stepsbetweensamples" condition="int">200</parameter>
<parameter name="store_configs" condition="int">0</parameter>
<parameter name="storeconfigs" condition="int">0</parameter>
<parameter name="sub_steps" condition="int">5</parameter>
<parameter name="substeps" condition="int">5</parameter>
<parameter name="tau" condition="au">1.5000000000e-01</parameter>
<parameter name="time_step" condition="au">1.5000000000e-01</parameter>
<parameter name="timestep" condition="au">1.5000000000e-01</parameter>
<parameter name="use_drift" condition="string">no</parameter>
<parameter name="usedrift" condition="string">no</parameter>
<parameter name="walkers" condition="int">1</parameter>
<parameter name="warmup_steps" condition="int">100</parameter>
<parameter name="warmupsteps" condition="int">100</parameter>
  DumpConfig==false Nothing (configurations, state) will be saved.
  Walker Samples are dumped every 200 steps.
</vmc>
  Set drift_modifier UNR parameter a = 1.0000000000e+00
  Initial partition of walkers 0 1 

  Using Particle by Particle moves
  Walker moves without drift
  Total Sample Size   =1024
  Walker distribution on root = 0 1 
  Using Locality Approximation
===== Memory Usage after the buffer registration =====
Available memory on node 0, free + buffers : 54563 MB
Memory footprint by rank 0 on node 0       : 574 MB
==================================================
  Anonymous Buffer size per walker : 2176 Bytes.
MEMORY increase 0 MB VMC::resetRun
====================================================
  SimpleFixedNodeBranch::finalize after a VMC block
    QMC counter        = 0
    time step          = 0.15
    reference energy   = -6.07356
    reference variance = 0.252856
====================================================
  QMC Execution time = 1.6397e+00 secs
Loop execution max-interations = 5

=========================================================
  Start QMCFixedSampleLinearOptimize
  File Root As.log.s001 append = no 
=========================================================
  Skip QMCDriver::putQMCInfo 
  Resetting Properties of the walkers 1 x 13

=========================================================
  Start VMC
  File Root As.log.s001 append = no 
=========================================================
  Using the current 1 walkers.
  Total number of walkers: 1.0240e+03
  Total weight: 1.0240e+03
  Resetting Properties of the walkers 1 x 13

<vmc function="put">
  qmc_counter=0  my_counter=0
  time step      = 1.5000e-01
  blocks         = 400
  steps          = 1
  substeps       = 5
  current        = 0
  target samples = 2.5600e+05
  walkers/mpi    = 1

  stepsbetweensamples = 1
<parameter name="blocks" condition="int">400</parameter>
<parameter name="blocks_between_recompute" condition="int">0</parameter>
<parameter name="check_properties" condition="int">100</parameter>
<parameter name="checkproperties" condition="int">100</parameter>
<parameter name="current" condition="int">0</parameter>
<parameter name="dmcwalkersperthread" condition="real">2.5000e+02</parameter>
<parameter name="maxcpusecs" condition="real">3.6000e+05</parameter>
<parameter name="record_configs" condition="int">0</parameter>
<parameter name="record_walkers" condition="int">1</parameter>
<parameter name="recordconfigs" condition="int">0</parameter>
<parameter name="recordwalkers" condition="int">1</parameter>
<parameter name="rewind" condition="int">0</parameter>
<parameter name="samples" condition="real">2.5600e+05</parameter>
<parameter name="samplesperthread" condition="real">2.5000e+02</parameter>
<parameter name="steps" condition="int">1</parameter>
<parameter name="stepsbetweensamples" condition="int">1</parameter>
<parameter name="store_configs" condition="int">0</parameter>
<parameter name="storeconfigs" condition="int">0</parameter>
<parameter name="sub_steps" condition="int">5</parameter>
<parameter name="substeps" condition="int">5</parameter>
<parameter name="tau" condition="au">1.5000e-01</parameter>
<parameter name="time_step" condition="au">1.5000e-01</parameter>
<parameter name="timestep" condition="au">1.5000e-01</parameter>
<parameter name="use_drift" condition="string">no</parameter>
<parameter name="usedrift" condition="string">no</parameter>
<parameter name="walkers" condition="int">1</parameter>
<parameter name="warmup_steps" condition="int">0</parameter>
<parameter name="warmupsteps" condition="int">0</parameter>
  DumpConfig==false Nothing (configurations, state) will be saved.
  Walker Samples are dumped every 1 steps.
</vmc>
    Restarting, cummulative properties:
      energy     = -6.0736e+00
      variance   = 0.0000e+00
      r2accepted = 1.0000e-10
      r2proposed = 1.0000e-10
  Set drift_modifier UNR parameter a = 1.0000e+00
 Using QMCCostFunction::QMCCostFunction
  Set drift_modifier UNR parameter a = 1.0000e+00
  EstimatorManagerBase::add replace LocalEnergy estimator.
<optimization-report>
<vmc stage="main" blocks="400">
  Cannot make clones again. Use existing 1 clones
  Initial partition of walkers 0 1 

  Using Particle by Particle moves
  Walker moves without drift
  Total Sample Size   =256000
  Walker distribution on root = 0 1 
  Using Locality Approximation
===== Memory Usage after the buffer registration =====
Available memory on node 0, free + buffers : 54557 MB
Memory footprint by rank 0 on node 0       : 574 MB
==================================================
  Anonymous Buffer size per walker : 2176 Bytes.
MEMORY increase 0 MB VMC::resetRun
====================================================
  SimpleFixedNodeBranch::finalize after a VMC block
    QMC counter        = 1
    time step          = 0.15
    reference energy   = -6.07143
    reference variance = 0.245939
====================================================
  Execution time = 1.8568e+00
</vmc>
<opt stage="setup">
  <log>
   Reading configurations from h5FileRoot As.log.s001
  QMCCostFunction is created with 1 threads.
  Using Nonlocal PP in Opt: NonLocalECP
   Number of samples loaded to each thread : 250 
  VMC Eavg = -6.0776e+00
  VMC Evar = 7.9269e-01
  Total weights = 2.5600e+05
  Execution time = 1.7477e-01
  </log>
</opt>
<opt stage="main" walkers="256000">
  <log>

*****************************************
Building overlap and Hamiltonian matrices
*****************************************

Among totally 30 optimized parameters, largest LM parameter change : 4.0083e-01 at parameter 20

******************************************************************************
Init Cost =   7.9269e-01    New Cost =   5.6748e-01  Delta Cost =  -2.2521e-01
******************************************************************************

The new set of parameters is valid. Updating the trial wave function!

*****************************************************************************
Applying the update for shift_i =   1.0000e-02     and shift_s =   2.5000e-01
*****************************************************************************
  Execution time = 2.2670e+00
  </log>
  <optVariables href="As.log.s001.opt.xml">
 uu_0                 1.681871e-01 1 1  ON 0
 uu_1                 1.511908e-01 1 1  ON 1
 uu_2                 5.145789e-02 1 1  ON 2
 uu_3                -4.320634e-03 1 1  ON 3
 uu_4                -4.304485e-02 1 1  ON 4
 uu_5                -6.260619e-02 1 1  ON 5
 uu_6                -6.834530e-02 1 1  ON 6
 uu_7                -6.393855e-02 1 1  ON 7
 uu_8                -4.872046e-02 1 1  ON 8
 uu_9                -3.139726e-02 1 1  ON 9
 ud_0                 3.648575e-01 1 1  ON 10
 ud_1                 1.724030e-01 1 1  ON 11
 ud_2                 1.778742e-02 1 1  ON 12
 ud_3                -4.555907e-02 1 1  ON 13
 ud_4                -8.265689e-02 1 1  ON 14
 ud_5                -9.995896e-02 1 1  ON 15
 ud_6                -1.036781e-01 1 1  ON 16
 ud_7                -9.145226e-02 1 1  ON 17
 ud_8                -7.138316e-02 1 1  ON 18
 ud_9                -4.003522e-02 1 1  ON 19
eAs_0                -4.008281e-01 1 1  ON 20
eAs_1                -1.518330e-01 1 1  ON 21
eAs_2                -7.338950e-02 1 1  ON 22
eAs_3                 5.792755e-02 1 1  ON 23
eAs_4                 1.312743e-01 1 1  ON 24
eAs_5                 1.697250e-01 1 1  ON 25
eAs_6                 1.552312e-01 1 1  ON 26
eAs_7                 9.617808e-02 1 1  ON 27
eAs_8                 1.881400e-02 1 1  ON 28
eAs_9                -7.348900e-04 1 1  ON 29
  </optVariables>
   Restore the number of walkers to 1, removing 0 walkers.
</opt>
</optimization-report>
  QMC Execution time = 2.275 secs
  Reusing QMCFixedSampleLinearOptimize
 Using QMCCostFunction::QMCCostFunction

=========================================================
  Start QMCFixedSampleLinearOptimize
  File Root As.log.s002 append = no 
=========================================================
  Skip QMCDriver::putQMCInfo 
  Resetting Properties of the walkers 1 x 13

=========================================================
  Start VMC
  File Root As.log.s002 append = no 
=========================================================
Using existing walkers 
  Resetting Properties of the walkers 1 x 13

<vmc function="put">
  qmc_counter=1  my_counter=1
  time step      = 1.5000e-01
  blocks         = 400
  steps          = 1
  substeps       = 5
  current        = 0
  target samples = 2.5600e+05
  walkers/mpi    = 1

  stepsbetweensamples = 1
<parameter name="blocks" condition="int">400</parameter>
<parameter name="blocks_between_recompute" condition="int">0</parameter>
<parameter name="check_properties" condition="int">100</parameter>
<parameter name="checkproperties" condition="int">100</parameter>
<parameter name="current" condition="int">0</parameter>
<parameter name="dmcwalkersperthread" condition="real">2.5000e+02</parameter>
<parameter name="maxcpusecs" condition="real">3.6000e+05</parameter>
<parameter name="record_configs" condition="int">0</parameter>
<parameter name="record_walkers" condition="int">1</parameter>
<parameter name="recordconfigs" condition="int">0</parameter>
<parameter name="recordwalkers" condition="int">1</parameter>
<parameter name="rewind" condition="int">0</parameter>
<parameter name="samples" condition="real">2.5600e+05</parameter>
<parameter name="samplesperthread" condition="real">2.5000e+02</parameter>
<parameter name="steps" condition="int">1</parameter>
<parameter name="stepsbetweensamples" condition="int">1</parameter>
<parameter name="store_configs" condition="int">0</parameter>
<parameter name="storeconfigs" condition="int">0</parameter>
<parameter name="sub_steps" condition="int">5</parameter>
<parameter name="substeps" condition="int">5</parameter>
<parameter name="tau" condition="au">1.5000e-01</parameter>
<parameter name="time_step" condition="au">1.5000e-01</parameter>
<parameter name="timestep" condition="au">1.5000e-01</parameter>
<parameter name="use_drift" condition="string">no</parameter>
<parameter name="usedrift" condition="string">no</parameter>
<parameter name="walkers" condition="int">1</parameter>
<parameter name="warmup_steps" condition="int">0</parameter>
<parameter name="warmupsteps" condition="int">0</parameter>
  DumpConfig==false Nothing (configurations, state) will be saved.
  Walker Samples are dumped every 1 steps.
</vmc>
  Set drift_modifier UNR parameter a = 1.0000e+00
  EstimatorManagerBase::add replace LocalEnergy estimator.
  Set drift_modifier UNR parameter a = 1.0000e+00
  EstimatorManagerBase::add replace LocalEnergy estimator.
<optimization-report>
<vmc stage="main" blocks="400">
  Cannot make clones again. Use existing 1 clones
  Initial partition of walkers 0 1 
  Using Particle by Particle moves
  Walker moves without drift
  Total Sample Size   =256000
  Walker distribution on root = 0 1 
  Using Locality Approximation
===== Memory Usage after the buffer registration =====
Available memory on node 0, free + buffers : 54548 MB
Memory footprint by rank 0 on node 0       : 576 MB
==================================================
====================================================
  SimpleFixedNodeBranch::finalize after a VMC block
    QMC counter        = 2
    time step          = 0.15
    reference energy   = -6.13412
    reference variance = 0.0733432
====================================================
  Execution time = 2.5080e+00
</vmc>
<opt stage="setup">
  <log>
   Reading configurations from h5FileRoot As.log.s002
  QMCCostFunction is created with 1 threads.
  Using Nonlocal PP in Opt: NonLocalECP
   Number of samples loaded to each thread : 250 
  VMC Eavg = -6.1493e+00
  VMC Evar = 6.7338e-01
  Total weights = 2.5600e+05
  Execution time = 1.6984e-01
  </log>
</opt>
<opt stage="main" walkers="256000">
  <log>

*****************************************
Building overlap and Hamiltonian matrices
*****************************************

Among totally 30 optimized parameters, largest LM parameter change : 2.7089e-01 at parameter 20

******************************************************************************
Init Cost =   6.7338e-01    New Cost =   6.3880e-01  Delta Cost =  -3.4579e-02
******************************************************************************

The new set of parameters is valid. Updating the trial wave function!

*****************************************************************************
Applying the update for shift_i =   1.0000e-02     and shift_s =   6.2500e-02
*****************************************************************************
  Execution time = 2.9492e+00
  </log>
  <optVariables href="As.log.s002.opt.xml">
 uu_0                 2.931074e-01 1 1  ON 0
 uu_1                 2.400071e-01 1 1  ON 1
 uu_2                 9.915467e-02 1 1  ON 2
 uu_3                 5.915128e-03 1 1  ON 3
 uu_4                -6.255460e-02 1 1  ON 4
 uu_5                -1.054461e-01 1 1  ON 5
 uu_6                -1.256133e-01 1 1  ON 6
 uu_7                -1.229599e-01 1 1  ON 7
 uu_8                -9.679013e-02 1 1  ON 8
 uu_9                -5.785778e-02 1 1  ON 9
 ud_0                 5.670475e-01 1 1  ON 10
 ud_1                 2.792258e-01 1 1  ON 11
 ud_2                 7.029343e-02 1 1  ON 12
 ud_3                -4.677852e-02 1 1  ON 13
 ud_4                -1.222863e-01 1 1  ON 14
 ud_5                -1.631687e-01 1 1  ON 15
 ud_6                -1.802467e-01 1 1  ON 16
 ud_7                -1.688676e-01 1 1  ON 17
 ud_8                -1.270688e-01 1 1  ON 18
 ud_9                -7.358395e-02 1 1  ON 19
eAs_0                -6.717198e-01 1 1  ON 20
eAs_1                -2.986017e-01 1 1  ON 21
eAs_2                -1.567650e-01 1 1  ON 22
eAs_3                 6.875014e-02 1 1  ON 23
eAs_4                 2.162554e-01 1 1  ON 24
eAs_5                 3.094644e-01 1 1  ON 25
eAs_6                 2.915402e-01 1 1  ON 26
eAs_7                 2.028408e-01 1 1  ON 27
eAs_8                 4.916030e-02 1 1  ON 28
eAs_9                -4.659346e-03 1 1  ON 29
  </optVariables>
   Restore the number of walkers to 1, removing 0 walkers.
</opt>
</optimization-report>
  QMC Execution time = 2.957 secs
  Reusing QMCFixedSampleLinearOptimize
 Using QMCCostFunction::QMCCostFunction

=========================================================
  Start QMCFixedSampleLinearOptimize
  File Root As.log.s003 append = no 
=========================================================
  Skip QMCDriver::putQMCInfo 
  Resetting Properties of the walkers 1 x 13

=========================================================
  Start VMC
  File Root As.log.s003 append = no 
=========================================================
Using existing walkers 
  Resetting Properties of the walkers 1 x 13

<vmc function="put">
  qmc_counter=2  my_counter=2
  time step      = 1.5000e-01
  blocks         = 400
  steps          = 1
  substeps       = 5
  current        = 0
  target samples = 2.5600e+05
  walkers/mpi    = 1

  stepsbetweensamples = 1
<parameter name="blocks" condition="int">400</parameter>
<parameter name="blocks_between_recompute" condition="int">0</parameter>
<parameter name="check_properties" condition="int">100</parameter>
<parameter name="checkproperties" condition="int">100</parameter>
<parameter name="current" condition="int">0</parameter>
<parameter name="dmcwalkersperthread" condition="real">2.5000e+02</parameter>
<parameter name="maxcpusecs" condition="real">3.6000e+05</parameter>
<parameter name="record_configs" condition="int">0</parameter>
<parameter name="record_walkers" condition="int">1</parameter>
<parameter name="recordconfigs" condition="int">0</parameter>
<parameter name="recordwalkers" condition="int">1</parameter>
<parameter name="rewind" condition="int">0</parameter>
<parameter name="samples" condition="real">2.5600e+05</parameter>
<parameter name="samplesperthread" condition="real">2.5000e+02</parameter>
<parameter name="steps" condition="int">1</parameter>
<parameter name="stepsbetweensamples" condition="int">1</parameter>
<parameter name="store_configs" condition="int">0</parameter>
<parameter name="storeconfigs" condition="int">0</parameter>
<parameter name="sub_steps" condition="int">5</parameter>
<parameter name="substeps" condition="int">5</parameter>
<parameter name="tau" condition="au">1.5000e-01</parameter>
<parameter name="time_step" condition="au">1.5000e-01</parameter>
<parameter name="timestep" condition="au">1.5000e-01</parameter>
<parameter name="use_drift" condition="string">no</parameter>
<parameter name="usedrift" condition="string">no</parameter>
<parameter name="walkers" condition="int">1</parameter>
<parameter name="warmup_steps" condition="int">0</parameter>
<parameter name="warmupsteps" condition="int">0</parameter>
  DumpConfig==false Nothing (configurations, state) will be saved.
  Walker Samples are dumped every 1 steps.
</vmc>
  Set drift_modifier UNR parameter a = 1.0000e+00
  EstimatorManagerBase::add replace LocalEnergy estimator.
  Set drift_modifier UNR parameter a = 1.0000e+00
  EstimatorManagerBase::add replace LocalEnergy estimator.
<optimization-report>
<vmc stage="main" blocks="400">
  Cannot make clones again. Use existing 1 clones
  Initial partition of walkers 0 1 
  Using Particle by Particle moves
  Walker moves without drift
  Total Sample Size   =256000
  Walker distribution on root = 0 1 
  Using Locality Approximation
===== Memory Usage after the buffer registration =====
Available memory on node 0, free + buffers : 54541 MB
Memory footprint by rank 0 on node 0       : 578 MB
==================================================
====================================================
  SimpleFixedNodeBranch::finalize after a VMC block
    QMC counter        = 3
    time step          = 0.15
    reference energy   = -6.15031
    reference variance = 0.0523322
====================================================
  Execution time = 2.6536e+00
</vmc>
<opt stage="setup">
  <log>
   Reading configurations from h5FileRoot As.log.s003
  QMCCostFunction is created with 1 threads.
  Using Nonlocal PP in Opt: NonLocalECP
   Number of samples loaded to each thread : 250 
  VMC Eavg = -6.1674e+00
  VMC Evar = 5.6417e-01
  Total weights = 2.5600e+05
  Execution time = 2.9576e-01
  </log>
</opt>
<opt stage="main" walkers="256000">
  <log>

*****************************************
Building overlap and Hamiltonian matrices
*****************************************

Among totally 30 optimized parameters, largest LM parameter change : 1.3761e-01 at parameter 20

******************************************************************************
Init Cost =   5.6417e-01    New Cost =   5.5765e-01  Delta Cost =  -6.5138e-03
******************************************************************************

The new set of parameters is valid. Updating the trial wave function!

*****************************************************************************
Applying the update for shift_i =   1.0000e-02     and shift_s =   1.5625e-02
*****************************************************************************
  Execution time = 3.2871e+00
  </log>
  <optVariables href="As.log.s003.opt.xml">
 uu_0                 3.706625e-01 1 1  ON 0
 uu_1                 2.775358e-01 1 1  ON 1
 uu_2                 1.297415e-01 1 1  ON 2
 uu_3                 2.405625e-02 1 1  ON 3
 uu_4                -5.743920e-02 1 1  ON 4
 uu_5                -1.129643e-01 1 1  ON 5
 uu_6                -1.424892e-01 1 1  ON 6
 uu_7                -1.510770e-01 1 1  ON 7
 uu_8                -1.269790e-01 1 1  ON 8
 uu_9                -8.797483e-02 1 1  ON 9
 ud_0                 6.384118e-01 1 1  ON 10
 ud_1                 3.156424e-01 1 1  ON 11
 ud_2                 1.018671e-01 1 1  ON 12
 ud_3                -3.180374e-02 1 1  ON 13
 ud_4                -1.201546e-01 1 1  ON 14
 ud_5                -1.752145e-01 1 1  ON 15
 ud_6                -2.039107e-01 1 1  ON 16
 ud_7                -2.019322e-01 1 1  ON 17
 ud_8                -1.678749e-01 1 1  ON 18
 ud_9                -1.028793e-01 1 1  ON 19
eAs_0                -8.093265e-01 1 1  ON 20
eAs_1                -3.783161e-01 1 1  ON 21
eAs_2                -2.118822e-01 1 1  ON 22
eAs_3                 5.194113e-02 1 1  ON 23
eAs_4                 2.393459e-01 1 1  ON 24
eAs_5                 3.684945e-01 1 1  ON 25
eAs_6                 3.820604e-01 1 1  ON 26
eAs_7                 2.910940e-01 1 1  ON 27
eAs_8                 8.193279e-02 1 1  ON 28
eAs_9                -4.039588e-03 1 1  ON 29
  </optVariables>
   Restore the number of walkers to 1, removing 0 walkers.
</opt>
</optimization-report>
  QMC Execution time = 3.295 secs
  Reusing QMCFixedSampleLinearOptimize
 Using QMCCostFunction::QMCCostFunction

=========================================================
  Start QMCFixedSampleLinearOptimize
  File Root As.log.s004 append = no 
=========================================================
  Skip QMCDriver::putQMCInfo 
  Resetting Properties of the walkers 1 x 13

=========================================================
  Start VMC
  File Root As.log.s004 append = no 
=========================================================
Using existing walkers 
  Resetting Properties of the walkers 1 x 13

<vmc function="put">
  qmc_counter=3  my_counter=3
  time step      = 1.5000e-01
  blocks         = 400
  steps          = 1
  substeps       = 5
  current        = 0
  target samples = 2.5600e+05
  walkers/mpi    = 1

  stepsbetweensamples = 1
<parameter name="blocks" condition="int">400</parameter>
<parameter name="blocks_between_recompute" condition="int">0</parameter>
<parameter name="check_properties" condition="int">100</parameter>
<parameter name="checkproperties" condition="int">100</parameter>
<parameter name="current" condition="int">0</parameter>
<parameter name="dmcwalkersperthread" condition="real">2.5000e+02</parameter>
<parameter name="maxcpusecs" condition="real">3.6000e+05</parameter>
<parameter name="record_configs" condition="int">0</parameter>
<parameter name="record_walkers" condition="int">1</parameter>
<parameter name="recordconfigs" condition="int">0</parameter>
<parameter name="recordwalkers" condition="int">1</parameter>
<parameter name="rewind" condition="int">0</parameter>
<parameter name="samples" condition="real">2.5600e+05</parameter>
<parameter name="samplesperthread" condition="real">2.5000e+02</parameter>
<parameter name="steps" condition="int">1</parameter>
<parameter name="stepsbetweensamples" condition="int">1</parameter>
<parameter name="store_configs" condition="int">0</parameter>
<parameter name="storeconfigs" condition="int">0</parameter>
<parameter name="sub_steps" condition="int">5</parameter>
<parameter name="substeps" condition="int">5</parameter>
<parameter name="tau" condition="au">1.5000e-01</parameter>
<parameter name="time_step" condition="au">1.5000e-01</parameter>
<parameter name="timestep" condition="au">1.5000e-01</parameter>
<parameter name="use_drift" condition="string">no</parameter>
<parameter name="usedrift" condition="string">no</parameter>
<parameter name="walkers" condition="int">1</parameter>
<parameter name="warmup_steps" condition="int">0</parameter>
<parameter name="warmupsteps" condition="int">0</parameter>
  DumpConfig==false Nothing (configurations, state) will be saved.
  Walker Samples are dumped every 1 steps.
</vmc>
  Set drift_modifier UNR parameter a = 1.0000e+00
  EstimatorManagerBase::add replace LocalEnergy estimator.
  Set drift_modifier UNR parameter a = 1.0000e+00
  EstimatorManagerBase::add replace LocalEnergy estimator.
<optimization-report>
<vmc stage="main" blocks="400">
  Cannot make clones again. Use existing 1 clones
  Initial partition of walkers 0 1 
  Using Particle by Particle moves
  Walker moves without drift
  Total Sample Size   =256000
  Walker distribution on root = 0 1 
  Using Locality Approximation
===== Memory Usage after the buffer registration =====
Available memory on node 0, free + buffers : 54538 MB
Memory footprint by rank 0 on node 0       : 581 MB
==================================================
====================================================
  SimpleFixedNodeBranch::finalize after a VMC block
    QMC counter        = 4
    time step          = 0.15
    reference energy   = -6.14742
    reference variance = 0.0569114
====================================================
  Execution time = 2.7729e+00
</vmc>
<opt stage="setup">
  <log>
   Reading configurations from h5FileRoot As.log.s004
  QMCCostFunction is created with 1 threads.
  Using Nonlocal PP in Opt: NonLocalECP
   Number of samples loaded to each thread : 250 
  VMC Eavg = -6.1706e+00
  VMC Evar = 6.3608e-01
  Total weights = 2.5600e+05
  Execution time = 3.2181e-01
  </log>
</opt>
<opt stage="main" walkers="256000">
  <log>

*****************************************
Building overlap and Hamiltonian matrices
*****************************************

Among totally 30 optimized parameters, largest LM parameter change : 8.8802e-02 at parameter 20

******************************************************************************
Init Cost =   6.3608e-01    New Cost =   6.3174e-01  Delta Cost =  -4.3385e-03
******************************************************************************

The new set of parameters is valid. Updating the trial wave function!

*****************************************************************************
Applying the update for shift_i =   1.0000e-02     and shift_s =   3.9062e-03
*****************************************************************************
  Execution time = 3.4726e+00
  </log>
  <optVariables href="As.log.s004.opt.xml">
 uu_0                 4.182272e-01 1 1  ON 0
 uu_1                 2.904406e-01 1 1  ON 1
 uu_2                 1.408700e-01 1 1  ON 2
 uu_3                 3.128867e-02 1 1  ON 3
 uu_4                -5.428140e-02 1 1  ON 4
 uu_5                -1.146797e-01 1 1  ON 5
 uu_6                -1.513078e-01 1 1  ON 6
 uu_7                -1.623326e-01 1 1  ON 7
 uu_8                -1.401647e-01 1 1  ON 8
 uu_9                -9.666823e-02 1 1  ON 9
 ud_0                 6.585552e-01 1 1  ON 10
 ud_1                 3.308375e-01 1 1  ON 11
 ud_2                 1.149848e-01 1 1  ON 12
 ud_3                -1.913579e-02 1 1  ON 13
 ud_4                -1.094880e-01 1 1  ON 14
 ud_5                -1.684334e-01 1 1  ON 15
 ud_6                -2.026696e-01 1 1  ON 16
 ud_7                -2.107099e-01 1 1  ON 17
 ud_8                -1.877688e-01 1 1  ON 18
 ud_9                -1.299961e-01 1 1  ON 19
eAs_0                -8.981282e-01 1 1  ON 20
eAs_1                -4.231815e-01 1 1  ON 21
eAs_2                -2.552392e-01 1 1  ON 22
eAs_3                 2.677749e-02 1 1  ON 23
eAs_4                 2.271185e-01 1 1  ON 24
eAs_5                 3.824920e-01 1 1  ON 25
eAs_6                 4.304621e-01 1 1  ON 26
eAs_7                 3.718588e-01 1 1  ON 27
eAs_8                 1.457306e-01 1 1  ON 28
eAs_9                 5.067781e-03 1 1  ON 29
  </optVariables>
   Restore the number of walkers to 1, removing 0 walkers.
</opt>
</optimization-report>
  QMC Execution time = 3.48 secs
  Reusing QMCFixedSampleLinearOptimize
 Using QMCCostFunction::QMCCostFunction

=========================================================
  Start QMCFixedSampleLinearOptimize
  File Root As.log.s005 append = no 
=========================================================
  Skip QMCDriver::putQMCInfo 
  Resetting Properties of the walkers 1 x 13

=========================================================
  Start VMC
  File Root As.log.s005 append = no 
=========================================================
Using existing walkers 
  Resetting Properties of the walkers 1 x 13

<vmc function="put">
  qmc_counter=4  my_counter=4
  time step      = 1.5000e-01
  blocks         = 400
  steps          = 1
  substeps       = 5
  current        = 0
  target samples = 2.5600e+05
  walkers/mpi    = 1

  stepsbetweensamples = 1
<parameter name="blocks" condition="int">400</parameter>
<parameter name="blocks_between_recompute" condition="int">0</parameter>
<parameter name="check_properties" condition="int">100</parameter>
<parameter name="checkproperties" condition="int">100</parameter>
<parameter name="current" condition="int">0</parameter>
<parameter name="dmcwalkersperthread" condition="real">2.5000e+02</parameter>
<parameter name="maxcpusecs" condition="real">3.6000e+05</parameter>
<parameter name="record_configs" condition="int">0</parameter>
<parameter name="record_walkers" condition="int">1</parameter>
<parameter name="recordconfigs" condition="int">0</parameter>
<parameter name="recordwalkers" condition="int">1</parameter>
<parameter name="rewind" condition="int">0</parameter>
<parameter name="samples" condition="real">2.5600e+05</parameter>
<parameter name="samplesperthread" condition="real">2.5000e+02</parameter>
<parameter name="steps" condition="int">1</parameter>
<parameter name="stepsbetweensamples" condition="int">1</parameter>
<parameter name="store_configs" condition="int">0</parameter>
<parameter name="storeconfigs" condition="int">0</parameter>
<parameter name="sub_steps" condition="int">5</parameter>
<parameter name="substeps" condition="int">5</parameter>
<parameter name="tau" condition="au">1.5000e-01</parameter>
<parameter name="time_step" condition="au">1.5000e-01</parameter>
<parameter name="timestep" condition="au">1.5000e-01</parameter>
<parameter name="use_drift" condition="string">no</parameter>
<parameter name="usedrift" condition="string">no</parameter>
<parameter name="walkers" condition="int">1</parameter>
<parameter name="warmup_steps" condition="int">0</parameter>
<parameter name="warmupsteps" condition="int">0</parameter>
  DumpConfig==false Nothing (configurations, state) will be saved.
  Walker Samples are dumped every 1 steps.
</vmc>
  Set drift_modifier UNR parameter a = 1.0000e+00
  EstimatorManagerBase::add replace LocalEnergy estimator.
  Set drift_modifier UNR parameter a = 1.0000e+00
  EstimatorManagerBase::add replace LocalEnergy estimator.
<optimization-report>
<vmc stage="main" blocks="400">
  Cannot make clones again. Use existing 1 clones
  Initial partition of walkers 0 1 
  Using Particle by Particle moves
  Walker moves without drift
  Total Sample Size   =256000
  Walker distribution on root = 0 1 
  Using Locality Approximation
===== Memory Usage after the buffer registration =====
Available memory on node 0, free + buffers : 54535 MB
Memory footprint by rank 0 on node 0       : 584 MB
==================================================
====================================================
  SimpleFixedNodeBranch::finalize after a VMC block
    QMC counter        = 5
    time step          = 0.15
    reference energy   = -6.17315
    reference variance = 0.0613646
====================================================
  Execution time = 2.8110e+00
</vmc>
<opt stage="setup">
  <log>
   Reading configurations from h5FileRoot As.log.s005
  QMCCostFunction is created with 1 threads.
  Using Nonlocal PP in Opt: NonLocalECP
   Number of samples loaded to each thread : 250 
  VMC Eavg = -6.1754e+00
  VMC Evar = 6.2898e-01
  Total weights = 2.5600e+05
  Execution time = 3.7488e-01
  </log>
</opt>
<opt stage="main" walkers="256000">
  <log>

*****************************************
Building overlap and Hamiltonian matrices
*****************************************

Among totally 30 optimized parameters, largest LM parameter change : 7.6335e-02 at parameter 20

******************************************************************************
Init Cost =   6.2898e-01    New Cost =   6.2522e-01  Delta Cost =  -3.7562e-03
******************************************************************************

The new set of parameters is valid. Updating the trial wave function!

*****************************************************************************
Applying the update for shift_i =   1.0000e-02     and shift_s =   3.9062e-03
*****************************************************************************
  Execution time = 3.6073e+00
  </log>
  <optVariables href="As.log.s005.opt.xml">
 uu_0                 4.520055e-01 1 1  ON 0
 uu_1                 3.089799e-01 1 1  ON 1
 uu_2                 1.590486e-01 1 1  ON 2
 uu_3                 4.433138e-02 1 1  ON 3
 uu_4                -4.487533e-02 1 1  ON 4
 uu_5                -1.100366e-01 1 1  ON 5
 uu_6                -1.523220e-01 1 1  ON 6
 uu_7                -1.730067e-01 1 1  ON 7
 uu_8                -1.588963e-01 1 1  ON 8
 uu_9                -1.130620e-01 1 1  ON 9
 ud_0                 6.719010e-01 1 1  ON 10
 ud_1                 3.380766e-01 1 1  ON 11
 ud_2                 1.216330e-01 1 1  ON 12
 ud_3                -1.402446e-02 1 1  ON 13
 ud_4                -1.048292e-01 1 1  ON 14
 ud_5                -1.646806e-01 1 1  ON 15
 ud_6                -1.998231e-01 1 1  ON 16
 ud_7                -2.113152e-01 1 1  ON 17
 ud_8                -1.920289e-01 1 1  ON 18
 ud_9                -1.400509e-01 1 1  ON 19
eAs_0                -9.744634e-01 1 1  ON 20
eAs_1                -4.559293e-01 1 1  ON 21
eAs_2                -2.853312e-01 1 1  ON 22
eAs_3                 6.475081e-03 1 1  ON 23
eAs_4                 2.174776e-01 1 1  ON 24
eAs_5                 3.894129e-01 1 1  ON 25
eAs_6                 4.605751e-01 1 1  ON 26
eAs_7                 4.293397e-01 1 1  ON 27
eAs_8                 2.058533e-01 1 1  ON 28
eAs_9                 2.186861e-02 1 1  ON 29
  </optVariables>
   Restore the number of walkers to 1, removing 0 walkers.
</opt>
</optimization-report>
  QMC Execution time = 3.615 secs
Loop execution max-interations = 5
  Reusing QMCFixedSampleLinearOptimize
 Using QMCCostFunction::QMCCostFunction

=========================================================
  Start QMCFixedSampleLinearOptimize
  File Root As.log.s006 append = no 
=========================================================
  Skip QMCDriver::putQMCInfo 
  Resetting Properties of the walkers 1 x 13

=========================================================
  Start VMC
  File Root As.log.s006 append = no 
=========================================================
  Using the current 1 walkers.
  Total number of walkers: 1.0240e+03
  Total weight: 1.0240e+03
  Resetting Properties of the walkers 1 x 13

<vmc function="put">
  qmc_counter=0  my_counter=5
  time step      = 1.5000e-01
  blocks         = 400
  steps          = 1
  substeps       = 5
  current        = 0
  target samples = 2.5600e+05
  walkers/mpi    = 1

  stepsbetweensamples = 1
<parameter name="blocks" condition="int">400</parameter>
<parameter name="blocks_between_recompute" condition="int">0</parameter>
<parameter name="check_properties" condition="int">100</parameter>
<parameter name="checkproperties" condition="int">100</parameter>
<parameter name="current" condition="int">0</parameter>
<parameter name="dmcwalkersperthread" condition="real">2.5000e+02</parameter>
<parameter name="maxcpusecs" condition="real">3.6000e+05</parameter>
<parameter name="record_configs" condition="int">0</parameter>
<parameter name="record_walkers" condition="int">1</parameter>
<parameter name="recordconfigs" condition="int">0</parameter>
<parameter name="recordwalkers" condition="int">1</parameter>
<parameter name="rewind" condition="int">0</parameter>
<parameter name="samples" condition="real">2.5600e+05</parameter>
<parameter name="samplesperthread" condition="real">2.5000e+02</parameter>
<parameter name="steps" condition="int">1</parameter>
<parameter name="stepsbetweensamples" condition="int">1</parameter>
<parameter name="store_configs" condition="int">0</parameter>
<parameter name="storeconfigs" condition="int">0</parameter>
<parameter name="sub_steps" condition="int">5</parameter>
<parameter name="substeps" condition="int">5</parameter>
<parameter name="tau" condition="au">1.5000e-01</parameter>
<parameter name="time_step" condition="au">1.5000e-01</parameter>
<parameter name="timestep" condition="au">1.5000e-01</parameter>
<parameter name="use_drift" condition="string">no</parameter>
<parameter name="usedrift" condition="string">no</parameter>
<parameter name="walkers" condition="int">1</parameter>
<parameter name="warmup_steps" condition="int">0</parameter>
<parameter name="warmupsteps" condition="int">0</parameter>
  DumpConfig==false Nothing (configurations, state) will be saved.
  Walker Samples are dumped every 1 steps.
</vmc>
  Set drift_modifier UNR parameter a = 1.0000e+00
  EstimatorManagerBase::add replace LocalEnergy estimator.
  Set drift_modifier UNR parameter a = 1.0000e+00
  EstimatorManagerBase::add replace LocalEnergy estimator.
<optimization-report>
<vmc stage="main" blocks="400">
  Cannot make clones again. Use existing 1 clones
  Initial partition of walkers 0 1 
  Using Particle by Particle moves
  Walker moves without drift
  Total Sample Size   =256000
  Walker distribution on root = 0 1 
  Using Locality Approximation
===== Memory Usage after the buffer registration =====
Available memory on node 0, free + buffers : 54532 MB
Memory footprint by rank 0 on node 0       : 586 MB
==================================================
====================================================
  SimpleFixedNodeBranch::finalize after a VMC block
    QMC counter        = 6
    time step          = 0.15
    reference energy   = -6.14098
    reference variance = 0.0923799
====================================================
  Execution time = 2.8739e+00
</vmc>
<opt stage="setup">
  <log>
   Reading configurations from h5FileRoot As.log.s006
  QMCCostFunction is created with 1 threads.
  Using Nonlocal PP in Opt: NonLocalECP
   Number of samples loaded to each thread : 250 
  VMC Eavg = -6.1715e+00
  VMC Evar = 5.7655e-01
  Total weights = 2.5600e+05
  Execution time = 4.0143e-01
  </log>
</opt>
<opt stage="main" walkers="256000">
  <log>

*****************************************
Building overlap and Hamiltonian matrices
*****************************************

Among totally 30 optimized parameters, largest LM parameter change : 3.6999e-02 at parameter 28

******************************************************************************
Init Cost =   5.7655e-01    New Cost =   5.7753e-01  Delta Cost =   9.8938e-04
******************************************************************************

The new set of parameters is valid. Updating the trial wave function!

*****************************************************************************
Applying the update for shift_i =   1.0000e-02     and shift_s =   3.9062e-03
*****************************************************************************
  Execution time = 3.6978e+00
  </log>
  <optVariables href="As.log.s006.opt.xml">
 uu_0                 4.740353e-01 1 1  ON 0
 uu_1                 3.185608e-01 1 1  ON 1
 uu_2                 1.732381e-01 1 1  ON 2
 uu_3                 5.805803e-02 1 1  ON 3
 uu_4                -3.122918e-02 1 1  ON 4
 uu_5                -9.797529e-02 1 1  ON 5
 uu_6                -1.424463e-01 1 1  ON 6
 uu_7                -1.646266e-01 1 1  ON 7
 uu_8                -1.618523e-01 1 1  ON 8
 uu_9                -1.278348e-01 1 1  ON 9
 ud_0                 6.878073e-01 1 1  ON 10
 ud_1                 3.519691e-01 1 1  ON 11
 ud_2                 1.352841e-01 1 1  ON 12
 ud_3                -3.080907e-03 1 1  ON 13
 ud_4                -9.735083e-02 1 1  ON 14
 ud_5                -1.606369e-01 1 1  ON 15
 ud_6                -2.004735e-01 1 1  ON 16
 ud_7                -2.182444e-01 1 1  ON 17
 ud_8                -2.046015e-01 1 1  ON 18
 ud_9                -1.582693e-01 1 1  ON 19
eAs_0                -9.763946e-01 1 1  ON 20
eAs_1                -4.837771e-01 1 1  ON 21
eAs_2                -3.079923e-01 1 1  ON 22
eAs_3                -1.308545e-02 1 1  ON 23
eAs_4                 2.084306e-01 1 1  ON 24
eAs_5                 3.909050e-01 1 1  ON 25
eAs_6                 4.700672e-01 1 1  ON 26
eAs_7                 4.539514e-01 1 1  ON 27
eAs_8                 2.428519e-01 1 1  ON 28
eAs_9                 3.108160e-02 1 1  ON 29
  </optVariables>
   Restore the number of walkers to 1, removing 0 walkers.
</opt>
</optimization-report>
  QMC Execution time = 3.706 secs
  Reusing QMCFixedSampleLinearOptimize
 Using QMCCostFunction::QMCCostFunction

=========================================================
  Start QMCFixedSampleLinearOptimize
  File Root As.log.s007 append = no 
=========================================================
  Skip QMCDriver::putQMCInfo 
  Resetting Properties of the walkers 1 x 13

=========================================================
  Start VMC
  File Root As.log.s007 append = no 
=========================================================
Using existing walkers 
  Resetting Properties of the walkers 1 x 13

<vmc function="put">
  qmc_counter=1  my_counter=6
  time step      = 1.5000e-01
  blocks         = 400
  steps          = 1
  substeps       = 5
  current        = 0
  target samples = 2.5600e+05
  walkers/mpi    = 1

  stepsbetweensamples = 1
<parameter name="blocks" condition="int">400</parameter>
<parameter name="blocks_between_recompute" condition="int">0</parameter>
<parameter name="check_properties" condition="int">100</parameter>
<parameter name="checkproperties" condition="int">100</parameter>
<parameter name="current" condition="int">0</parameter>
<parameter name="dmcwalkersperthread" condition="real">2.5000e+02</parameter>
<parameter name="maxcpusecs" condition="real">3.6000e+05</parameter>
<parameter name="record_configs" condition="int">0</parameter>
<parameter name="record_walkers" condition="int">1</parameter>
<parameter name="recordconfigs" condition="int">0</parameter>
<parameter name="recordwalkers" condition="int">1</parameter>
<parameter name="rewind" condition="int">0</parameter>
<parameter name="samples" condition="real">2.5600e+05</parameter>
<parameter name="samplesperthread" condition="real">2.5000e+02</parameter>
<parameter name="steps" condition="int">1</parameter>
<parameter name="stepsbetweensamples" condition="int">1</parameter>
<parameter name="store_configs" condition="int">0</parameter>
<parameter name="storeconfigs" condition="int">0</parameter>
<parameter name="sub_steps" condition="int">5</parameter>
<parameter name="substeps" condition="int">5</parameter>
<parameter name="tau" condition="au">1.5000e-01</parameter>
<parameter name="time_step" condition="au">1.5000e-01</parameter>
<parameter name="timestep" condition="au">1.5000e-01</parameter>
<parameter name="use_drift" condition="string">no</parameter>
<parameter name="usedrift" condition="string">no</parameter>
<parameter name="walkers" condition="int">1</parameter>
<parameter name="warmup_steps" condition="int">0</parameter>
<parameter name="warmupsteps" condition="int">0</parameter>
  DumpConfig==false Nothing (configurations, state) will be saved.
  Walker Samples are dumped every 1 steps.
</vmc>
  Set drift_modifier UNR parameter a = 1.0000e+00
  EstimatorManagerBase::add replace LocalEnergy estimator.
  Set drift_modifier UNR parameter a = 1.0000e+00
  EstimatorManagerBase::add replace LocalEnergy estimator.
<optimization-report>
<vmc stage="main" blocks="400">
  Cannot make clones again. Use existing 1 clones
  Initial partition of walkers 0 1 
  Using Particle by Particle moves
  Walker moves without drift
  Total Sample Size   =256000
  Walker distribution on root = 0 1 
  Using Locality Approximation
===== Memory Usage after the buffer registration =====
Available memory on node 0, free + buffers : 54529 MB
Memory footprint by rank 0 on node 0       : 589 MB
==================================================
====================================================
  SimpleFixedNodeBranch::finalize after a VMC block
    QMC counter        = 7
    time step          = 0.15
    reference energy   = -6.14658
    reference variance = 0.0733121
====================================================
  Execution time = 2.8940e+00
</vmc>
<opt stage="setup">
  <log>
   Reading configurations from h5FileRoot As.log.s007
  QMCCostFunction is created with 1 threads.
  Using Nonlocal PP in Opt: NonLocalECP
   Number of samples loaded to each thread : 250 
  VMC Eavg = -6.1716e+00
  VMC Evar = 6.5071e-01
  Total weights = 2.5600e+05
  Execution time = 4.1238e-01
  </log>
</opt>
<opt stage="main" walkers="256000">
  <log>

*****************************************
Building overlap and Hamiltonian matrices
*****************************************

Among totally 30 optimized parameters, largest LM parameter change : 5.0219e-02 at parameter 28

******************************************************************************
Init Cost =   6.5071e-01    New Cost =   6.5118e-01  Delta Cost =   4.6434e-04
******************************************************************************

The new set of parameters is valid. Updating the trial wave function!

*****************************************************************************
Applying the update for shift_i =   1.0000e-02     and shift_s =   3.9062e-03
*****************************************************************************
  Execution time = 3.7583e+00
  </log>
  <optVariables href="As.log.s007.opt.xml">
 uu_0                 4.913938e-01 1 1  ON 0
 uu_1                 3.297280e-01 1 1  ON 1
 uu_2                 1.818980e-01 1 1  ON 2
 uu_3                 6.633461e-02 1 1  ON 3
 uu_4                -2.371784e-02 1 1  ON 4
 uu_5                -9.154948e-02 1 1  ON 5
 uu_6                -1.377386e-01 1 1  ON 6
 uu_7                -1.641897e-01 1 1  ON 7
 uu_8                -1.611421e-01 1 1  ON 8
 uu_9                -1.330819e-01 1 1  ON 9
 ud_0                 7.005773e-01 1 1  ON 10
 ud_1                 3.580248e-01 1 1  ON 11
 ud_2                 1.412803e-01 1 1  ON 12
 ud_3                 2.559497e-03 1 1  ON 13
 ud_4                -9.352704e-02 1 1  ON 14
 ud_5                -1.609035e-01 1 1  ON 15
 ud_6                -2.005148e-01 1 1  ON 16
 ud_7                -2.193568e-01 1 1  ON 17
 ud_8                -2.061159e-01 1 1  ON 18
 ud_9                -1.633807e-01 1 1  ON 19
eAs_0                -1.014226e+00 1 1  ON 20
eAs_1                -5.013285e-01 1 1  ON 21
eAs_2                -3.260014e-01 1 1  ON 22
eAs_3                -2.735312e-02 1 1  ON 23
eAs_4                 1.967158e-01 1 1  ON 24
eAs_5                 3.837586e-01 1 1  ON 25
eAs_6                 4.755440e-01 1 1  ON 26
eAs_7                 4.838240e-01 1 1  ON 27
eAs_8                 2.930712e-01 1 1  ON 28
eAs_9                 5.201105e-02 1 1  ON 29
  </optVariables>
   Restore the number of walkers to 1, removing 0 walkers.
</opt>
</optimization-report>
  QMC Execution time = 3.766 secs
  Reusing QMCFixedSampleLinearOptimize
 Using QMCCostFunction::QMCCostFunction

=========================================================
  Start QMCFixedSampleLinearOptimize
  File Root As.log.s008 append = no 
=========================================================
  Skip QMCDriver::putQMCInfo 
  Resetting Properties of the walkers 1 x 13

=========================================================
  Start VMC
  File Root As.log.s008 append = no 
=========================================================
Using existing walkers 
  Resetting Properties of the walkers 1 x 13

<vmc function="put">
  qmc_counter=2  my_counter=7
  time step      = 1.5000e-01
  blocks         = 400
  steps          = 1
  substeps       = 5
  current        = 0
  target samples = 2.5600e+05
  walkers/mpi    = 1

  stepsbetweensamples = 1
<parameter name="blocks" condition="int">400</parameter>
<parameter name="blocks_between_recompute" condition="int">0</parameter>
<parameter name="check_properties" condition="int">100</parameter>
<parameter name="checkproperties" condition="int">100</parameter>
<parameter name="current" condition="int">0</parameter>
<parameter name="dmcwalkersperthread" condition="real">2.5000e+02</parameter>
<parameter name="maxcpusecs" condition="real">3.6000e+05</parameter>
<parameter name="record_configs" condition="int">0</parameter>
<parameter name="record_walkers" condition="int">1</parameter>
<parameter name="recordconfigs" condition="int">0</parameter>
<parameter name="recordwalkers" condition="int">1</parameter>
<parameter name="rewind" condition="int">0</parameter>
<parameter name="samples" condition="real">2.5600e+05</parameter>
<parameter name="samplesperthread" condition="real">2.5000e+02</parameter>
<parameter name="steps" condition="int">1</parameter>
<parameter name="stepsbetweensamples" condition="int">1</parameter>
<parameter name="store_configs" condition="int">0</parameter>
<parameter name="storeconfigs" condition="int">0</parameter>
<parameter name="sub_steps" condition="int">5</parameter>
<parameter name="substeps" condition="int">5</parameter>
<parameter name="tau" condition="au">1.5000e-01</parameter>
<parameter name="time_step" condition="au">1.5000e-01</parameter>
<parameter name="timestep" condition="au">1.5000e-01</parameter>
<parameter name="use_drift" condition="string">no</parameter>
<parameter name="usedrift" condition="string">no</parameter>
<parameter name="walkers" condition="int">1</parameter>
<parameter name="warmup_steps" condition="int">0</parameter>
<parameter name="warmupsteps" condition="int">0</parameter>
  DumpConfig==false Nothing (configurations, state) will be saved.
  Walker Samples are dumped every 1 steps.
</vmc>
  Set drift_modifier UNR parameter a = 1.0000e+00
  EstimatorManagerBase::add replace LocalEnergy estimator.
  Set drift_modifier UNR parameter a = 1.0000e+00
  EstimatorManagerBase::add replace LocalEnergy estimator.
<optimization-report>
<vmc stage="main" blocks="400">
  Cannot make clones again. Use existing 1 clones
  Initial partition of walkers 0 1 
  Using Particle by Particle moves
  Walker moves without drift
  Total Sample Size   =256000
  Walker distribution on root = 0 1 
  Using Locality Approximation
===== Memory Usage after the buffer registration =====
Available memory on node 0, free + buffers : 54526 MB
Memory footprint by rank 0 on node 0       : 592 MB
==================================================
====================================================
  SimpleFixedNodeBranch::finalize after a VMC block
    QMC counter        = 8
    time step          = 0.15
    reference energy   = -6.1657
    reference variance = 0.0530253
====================================================
  Execution time = 3.1783e+00
</vmc>
<opt stage="setup">
  <log>
   Reading configurations from h5FileRoot As.log.s008
  QMCCostFunction is created with 1 threads.
  Using Nonlocal PP in Opt: NonLocalECP
   Number of samples loaded to each thread : 250 
  VMC Eavg = -6.1727e+00
  VMC Evar = 6.0615e-01
  Total weights = 2.5600e+05
  Execution time = 4.3968e-01
  </log>
</opt>
<opt stage="main" walkers="256000">
  <log>

*****************************************
Building overlap and Hamiltonian matrices
*****************************************

Among totally 30 optimized parameters, largest LM parameter change : 2.5647e-02 at parameter 28

******************************************************************************
Init Cost =   6.0615e-01    New Cost =   6.0585e-01  Delta Cost =  -2.9860e-04
******************************************************************************

The new set of parameters is valid. Updating the trial wave function!

*****************************************************************************
Applying the update for shift_i =   1.0000e-02     and shift_s =   3.9062e-03
*****************************************************************************
  Execution time = 4.0733e+00
  </log>
  <optVariables href="As.log.s008.opt.xml">
 uu_0                 5.060792e-01 1 1  ON 0
 uu_1                 3.399514e-01 1 1  ON 1
 uu_2                 1.963471e-01 1 1  ON 2
 uu_3                 8.055275e-02 1 1  ON 3
 uu_4                -1.080768e-02 1 1  ON 4
 uu_5                -7.869396e-02 1 1  ON 5
 uu_6                -1.269640e-01 1 1  ON 6
 uu_7                -1.574621e-01 1 1  ON 7
 uu_8                -1.523558e-01 1 1  ON 8
 uu_9                -1.307230e-01 1 1  ON 9
 ud_0                 7.032561e-01 1 1  ON 10
 ud_1                 3.686058e-01 1 1  ON 11
 ud_2                 1.530175e-01 1 1  ON 12
 ud_3                 1.472851e-02 1 1  ON 13
 ud_4                -8.165956e-02 1 1  ON 14
 ud_5                -1.491507e-01 1 1  ON 15
 ud_6                -1.937872e-01 1 1  ON 16
 ud_7                -2.199670e-01 1 1  ON 17
 ud_8                -2.159417e-01 1 1  ON 18
 ud_9                -1.769292e-01 1 1  ON 19
eAs_0                -1.032210e+00 1 1  ON 20
eAs_1                -5.226759e-01 1 1  ON 21
eAs_2                -3.451509e-01 1 1  ON 22
eAs_3                -4.069220e-02 1 1  ON 23
eAs_4                 1.903591e-01 1 1  ON 24
eAs_5                 3.902919e-01 1 1  ON 25
eAs_6                 4.991244e-01 1 1  ON 26
eAs_7                 5.053716e-01 1 1  ON 27
eAs_8                 3.187178e-01 1 1  ON 28
eAs_9                 5.942228e-02 1 1  ON 29
  </optVariables>
   Restore the number of walkers to 1, removing 0 walkers.
</opt>
</optimization-report>
  QMC Execution time = 4.081 secs
  Reusing QMCFixedSampleLinearOptimize
 Using QMCCostFunction::QMCCostFunction

=========================================================
  Start QMCFixedSampleLinearOptimize
  File Root As.log.s009 append = no 
=========================================================
  Skip QMCDriver::putQMCInfo 
  Resetting Properties of the walkers 1 x 13

=========================================================
  Start VMC
  File Root As.log.s009 append = no 
=========================================================
Using existing walkers 
  Resetting Properties of the walkers 1 x 13

<vmc function="put">
  qmc_counter=3  my_counter=8
  time step      = 1.5000e-01
  blocks         = 400
  steps          = 1
  substeps       = 5
  current        = 0
  target samples = 2.5600e+05
  walkers/mpi    = 1

  stepsbetweensamples = 1
<parameter name="blocks" condition="int">400</parameter>
<parameter name="blocks_between_recompute" condition="int">0</parameter>
<parameter name="check_properties" condition="int">100</parameter>
<parameter name="checkproperties" condition="int">100</parameter>
<parameter name="current" condition="int">0</parameter>
<parameter name="dmcwalkersperthread" condition="real">2.5000e+02</parameter>
<parameter name="maxcpusecs" condition="real">3.6000e+05</parameter>
<parameter name="record_configs" condition="int">0</parameter>
<parameter name="record_walkers" condition="int">1</parameter>
<parameter name="recordconfigs" condition="int">0</parameter>
<parameter name="recordwalkers" condition="int">1</parameter>
<parameter name="rewind" condition="int">0</parameter>
<parameter name="samples" condition="real">2.5600e+05</parameter>
<parameter name="samplesperthread" condition="real">2.5000e+02</parameter>
<parameter name="steps" condition="int">1</parameter>
<parameter name="stepsbetweensamples" condition="int">1</parameter>
<parameter name="store_configs" condition="int">0</parameter>
<parameter name="storeconfigs" condition="int">0</parameter>
<parameter name="sub_steps" condition="int">5</parameter>
<parameter name="substeps" condition="int">5</parameter>
<parameter name="tau" condition="au">1.5000e-01</parameter>
<parameter name="time_step" condition="au">1.5000e-01</parameter>
<parameter name="timestep" condition="au">1.5000e-01</parameter>
<parameter name="use_drift" condition="string">no</parameter>
<parameter name="usedrift" condition="string">no</parameter>
<parameter name="walkers" condition="int">1</parameter>
<parameter name="warmup_steps" condition="int">0</parameter>
<parameter name="warmupsteps" condition="int">0</parameter>
  DumpConfig==false Nothing (configurations, state) will be saved.
  Walker Samples are dumped every 1 steps.
</vmc>
  Set drift_modifier UNR parameter a = 1.0000e+00
  EstimatorManagerBase::add replace LocalEnergy estimator.
  Set drift_modifier UNR parameter a = 1.0000e+00
  EstimatorManagerBase::add replace LocalEnergy estimator.
<optimization-report>
<vmc stage="main" blocks="400">
  Cannot make clones again. Use existing 1 clones
  Initial partition of walkers 0 1 
  Using Particle by Particle moves
  Walker moves without drift
  Total Sample Size   =256000
  Walker distribution on root = 0 1 
  Using Locality Approximation
===== Memory Usage after the buffer registration =====
Available memory on node 0, free + buffers : 54523 MB
Memory footprint by rank 0 on node 0       : 594 MB
==================================================
====================================================
  SimpleFixedNodeBranch::finalize after a VMC block
    QMC counter        = 9
    time step          = 0.15
    reference energy   = -6.16032
    reference variance = 0.0868638
====================================================
  Execution time = 2.9256e+00
</vmc>
<opt stage="setup">
  <log>
   Reading configurations from h5FileRoot As.log.s009
  QMCCostFunction is created with 1 threads.
  Using Nonlocal PP in Opt: NonLocalECP
   Number of samples loaded to each thread : 250 
  VMC Eavg = -6.1688e+00
  VMC Evar = 6.2592e-01
  Total weights = 2.5600e+05
  Execution time = 4.3914e-01
  </log>
</opt>
<opt stage="main" walkers="256000">
  <log>

*****************************************
Building overlap and Hamiltonian matrices
*****************************************

Among totally 30 optimized parameters, largest LM parameter change : 3.8150e-02 at parameter 28

******************************************************************************
Init Cost =   6.2592e-01    New Cost =   6.2621e-01  Delta Cost =   2.9278e-04
******************************************************************************

The new set of parameters is valid. Updating the trial wave function!

*****************************************************************************
Applying the update for shift_i =   1.0000e-02     and shift_s =   3.9062e-03
*****************************************************************************
  Execution time = 3.8236e+00
  </log>
  <optVariables href="As.log.s009.opt.xml">
 uu_0                 5.172544e-01 1 1  ON 0
 uu_1                 3.447165e-01 1 1  ON 1
 uu_2                 1.994476e-01 1 1  ON 2
 uu_3                 8.640939e-02 1 1  ON 3
 uu_4                -2.470301e-03 1 1  ON 4
 uu_5                -7.093880e-02 1 1  ON 5
 uu_6                -1.181951e-01 1 1  ON 6
 uu_7                -1.463468e-01 1 1  ON 7
 uu_8                -1.516779e-01 1 1  ON 8
 uu_9                -1.380191e-01 1 1  ON 9
 ud_0                 7.114601e-01 1 1  ON 10
 ud_1                 3.755724e-01 1 1  ON 11
 ud_2                 1.611820e-01 1 1  ON 12
 ud_3                 1.857201e-02 1 1  ON 13
 ud_4                -7.787957e-02 1 1  ON 14
 ud_5                -1.477678e-01 1 1  ON 15
 ud_6                -1.907825e-01 1 1  ON 16
 ud_7                -2.137728e-01 1 1  ON 17
 ud_8                -2.090154e-01 1 1  ON 18
 ud_9                -1.834797e-01 1 1  ON 19
eAs_0                -1.032163e+00 1 1  ON 20
eAs_1                -5.319099e-01 1 1  ON 21
eAs_2                -3.572372e-01 1 1  ON 22
eAs_3                -5.511911e-02 1 1  ON 23
eAs_4                 1.746240e-01 1 1  ON 24
eAs_5                 3.724434e-01 1 1  ON 25
eAs_6                 4.950408e-01 1 1  ON 26
eAs_7                 5.249609e-01 1 1  ON 27
eAs_8                 3.568682e-01 1 1  ON 28
eAs_9                 7.729110e-02 1 1  ON 29
  </optVariables>
   Restore the number of walkers to 1, removing 0 walkers.
</opt>
</optimization-report>
  QMC Execution time = 3.832 secs
  Reusing QMCFixedSampleLinearOptimize
 Using QMCCostFunction::QMCCostFunction

=========================================================
  Start QMCFixedSampleLinearOptimize
  File Root As.log.s010 append = no 
=========================================================
  Skip QMCDriver::putQMCInfo 
  Resetting Properties of the walkers 1 x 13

=========================================================
  Start VMC
  File Root As.log.s010 append = no 
=========================================================
Using existing walkers 
  Resetting Properties of the walkers 1 x 13

<vmc function="put">
  qmc_counter=4  my_counter=9
  time step      = 1.5000e-01
  blocks         = 400
  steps          = 1
  substeps       = 5
  current        = 0
  target samples = 2.5600e+05
  walkers/mpi    = 1

  stepsbetweensamples = 1
<parameter name="blocks" condition="int">400</parameter>
<parameter name="blocks_between_recompute" condition="int">0</parameter>
<parameter name="check_properties" condition="int">100</parameter>
<parameter name="checkproperties" condition="int">100</parameter>
<parameter name="current" condition="int">0</parameter>
<parameter name="dmcwalkersperthread" condition="real">2.5000e+02</parameter>
<parameter name="maxcpusecs" condition="real">3.6000e+05</parameter>
<parameter name="record_configs" condition="int">0</parameter>
<parameter name="record_walkers" condition="int">1</parameter>
<parameter name="recordconfigs" condition="int">0</parameter>
<parameter name="recordwalkers" condition="int">1</parameter>
<parameter name="rewind" condition="int">0</parameter>
<parameter name="samples" condition="real">2.5600e+05</parameter>
<parameter name="samplesperthread" condition="real">2.5000e+02</parameter>
<parameter name="steps" condition="int">1</parameter>
<parameter name="stepsbetweensamples" condition="int">1</parameter>
<parameter name="store_configs" condition="int">0</parameter>
<parameter name="storeconfigs" condition="int">0</parameter>
<parameter name="sub_steps" condition="int">5</parameter>
<parameter name="substeps" condition="int">5</parameter>
<parameter name="tau" condition="au">1.5000e-01</parameter>
<parameter name="time_step" condition="au">1.5000e-01</parameter>
<parameter name="timestep" condition="au">1.5000e-01</parameter>
<parameter name="use_drift" condition="string">no</parameter>
<parameter name="usedrift" condition="string">no</parameter>
<parameter name="walkers" condition="int">1</parameter>
<parameter name="warmup_steps" condition="int">0</parameter>
<parameter name="warmupsteps" condition="int">0</parameter>
  DumpConfig==false Nothing (configurations, state) will be saved.
  Walker Samples are dumped every 1 steps.
</vmc>
  Set drift_modifier UNR parameter a = 1.0000e+00
  EstimatorManagerBase::add replace LocalEnergy estimator.
  Set drift_modifier UNR parameter a = 1.0000e+00
  EstimatorManagerBase::add replace LocalEnergy estimator.
<optimization-report>
<vmc stage="main" blocks="400">
  Cannot make clones again. Use existing 1 clones
  Initial partition of walkers 0 1 
  Using Particle by Particle moves
  Walker moves without drift
  Total Sample Size   =256000
  Walker distribution on root = 0 1 
  Using Locality Approximation
===== Memory Usage after the buffer registration =====
Available memory on node 0, free + buffers : 54520 MB
Memory footprint by rank 0 on node 0       : 597 MB
==================================================
====================================================
  SimpleFixedNodeBranch::finalize after a VMC block
    QMC counter        = 10
    time step          = 0.15
    reference energy   = -6.14896
    reference variance = 0.0821592
====================================================
  Execution time = 2.9497e+00
</vmc>
<opt stage="setup">
  <log>
   Reading configurations from h5FileRoot As.log.s010
  QMCCostFunction is created with 1 threads.
  Using Nonlocal PP in Opt: NonLocalECP
   Number of samples loaded to each thread : 250 
  VMC Eavg = -6.1727e+00
  VMC Evar = 6.1970e-01
  Total weights = 2.5600e+05
  Execution time = 4.4983e-01
  </log>
</opt>
<opt stage="main" walkers="256000">
  <log>

*****************************************
Building overlap and Hamiltonian matrices
*****************************************

Among totally 30 optimized parameters, largest LM parameter change : 2.5037e-02 at parameter 20

******************************************************************************
Init Cost =   6.1970e-01    New Cost =   6.1964e-01  Delta Cost =  -6.0985e-05
******************************************************************************

The new set of parameters is valid. Updating the trial wave function!

*****************************************************************************
Applying the update for shift_i =   1.0000e-02     and shift_s =   3.9062e-03
*****************************************************************************
  Execution time = 3.8670e+00
  </log>
  <optVariables href="As.log.s010.opt.xml">
 uu_0                 5.309245e-01 1 1  ON 0
 uu_1                 3.619027e-01 1 1  ON 1
 uu_2                 2.130336e-01 1 1  ON 2
 uu_3                 9.459049e-02 1 1  ON 3
 uu_4                 1.994352e-03 1 1  ON 4
 uu_5                -6.843666e-02 1 1  ON 5
 uu_6                -1.181117e-01 1 1  ON 6
 uu_7                -1.479374e-01 1 1  ON 7
 uu_8                -1.484262e-01 1 1  ON 8
 uu_9                -1.318217e-01 1 1  ON 9
 ud_0                 7.204878e-01 1 1  ON 10
 ud_1                 3.815458e-01 1 1  ON 11
 ud_2                 1.625495e-01 1 1  ON 12
 ud_3                 2.363472e-02 1 1  ON 13
 ud_4                -7.377835e-02 1 1  ON 14
 ud_5                -1.421878e-01 1 1  ON 15
 ud_6                -1.867065e-01 1 1  ON 16
 ud_7                -2.133042e-01 1 1  ON 17
 ud_8                -2.098524e-01 1 1  ON 18
 ud_9                -1.884420e-01 1 1  ON 19
eAs_0                -1.057200e+00 1 1  ON 20
eAs_1                -5.492178e-01 1 1  ON 21
eAs_2                -3.679095e-01 1 1  ON 22
eAs_3                -6.071736e-02 1 1  ON 23
eAs_4                 1.764058e-01 1 1  ON 24
eAs_5                 3.794290e-01 1 1  ON 25
eAs_6                 4.963212e-01 1 1  ON 26
eAs_7                 5.349991e-01 1 1  ON 27
eAs_8                 3.751869e-01 1 1  ON 28
eAs_9                 9.363531e-02 1 1  ON 29
  </optVariables>
   Restore the number of walkers to 1, removing 0 walkers.
</opt>
</optimization-report>
  QMC Execution time = 3.875 secs
Loop execution max-interations = 10
  Reusing QMCFixedSampleLinearOptimize
 Using QMCCostFunction::QMCCostFunction

=========================================================
  Start QMCFixedSampleLinearOptimize
  File Root As.log.s011 append = no 
[...]
eAs_7                 5.641821e-01 1 1  ON 27
eAs_8                 4.941705e-01 1 1  ON 28
eAs_9                 2.223342e-01 1 1  ON 29
  </optVariables>
   Restore the number of walkers to 1, removing 0 walkers.
</opt>
</optimization-report>
  QMC Execution time = 5.885 secs
  Reusing QMCFixedSampleLinearOptimize
 Using QMCCostFunction::QMCCostFunction

=========================================================
  Start QMCFixedSampleLinearOptimize
  File Root As.log.s018 append = no 
=========================================================
  Skip QMCDriver::putQMCInfo 
  Resetting Properties of the walkers 1 x 13

=========================================================
  Start VMC
  File Root As.log.s018 append = no 
=========================================================
Using existing walkers 
  Resetting Properties of the walkers 1 x 13

<vmc function="put">
  qmc_counter=7  my_counter=17
  time step      = 1.5000e-01
  blocks         = 400
  steps          = 2
  substeps       = 5
  current        = 0
  target samples = 5.1200e+05
  walkers/mpi    = 1

  stepsbetweensamples = 1
<parameter name="blocks" condition="int">400</parameter>
<parameter name="blocks_between_recompute" condition="int">0</parameter>
<parameter name="check_properties" condition="int">100</parameter>
<parameter name="checkproperties" condition="int">100</parameter>
<parameter name="current" condition="int">0</parameter>
<parameter name="dmcwalkersperthread" condition="real">5.0000e+02</parameter>
<parameter name="maxcpusecs" condition="real">3.6000e+05</parameter>
<parameter name="record_configs" condition="int">0</parameter>
<parameter name="record_walkers" condition="int">1</parameter>
<parameter name="recordconfigs" condition="int">0</parameter>
<parameter name="recordwalkers" condition="int">1</parameter>
<parameter name="rewind" condition="int">0</parameter>
<parameter name="samples" condition="real">5.1200e+05</parameter>
<parameter name="samplesperthread" condition="real">5.0000e+02</parameter>
<parameter name="steps" condition="int">2</parameter>
<parameter name="stepsbetweensamples" condition="int">1</parameter>
<parameter name="store_configs" condition="int">0</parameter>
<parameter name="storeconfigs" condition="int">0</parameter>
<parameter name="sub_steps" condition="int">5</parameter>
<parameter name="substeps" condition="int">5</parameter>
<parameter name="tau" condition="au">1.5000e-01</parameter>
<parameter name="time_step" condition="au">1.5000e-01</parameter>
<parameter name="timestep" condition="au">1.5000e-01</parameter>
<parameter name="use_drift" condition="string">no</parameter>
<parameter name="usedrift" condition="string">no</parameter>
<parameter name="walkers" condition="int">1</parameter>
<parameter name="warmup_steps" condition="int">0</parameter>
<parameter name="warmupsteps" condition="int">0</parameter>
  DumpConfig==false Nothing (configurations, state) will be saved.
  Walker Samples are dumped every 1 steps.
</vmc>
  Set drift_modifier UNR parameter a = 1.0000e+00
  EstimatorManagerBase::add replace LocalEnergy estimator.
  Set drift_modifier UNR parameter a = 1.0000e+00
  EstimatorManagerBase::add replace LocalEnergy estimator.
<optimization-report>
<vmc stage="main" blocks="400">
  Cannot make clones again. Use existing 1 clones
  Initial partition of walkers 0 1 
  Using Particle by Particle moves
  Walker moves without drift
  Total Sample Size   =512000
  Walker distribution on root = 0 1 
  Using Locality Approximation
===== Memory Usage after the buffer registration =====
Available memory on node 0, free + buffers : 54486 MB
Memory footprint by rank 0 on node 0       : 619 MB
==================================================
====================================================
  SimpleFixedNodeBranch::finalize after a VMC block
    QMC counter        = 18
    time step          = 0.15
    reference energy   = -6.1478
    reference variance = 0.0905394
====================================================
  Execution time = 4.0920e+00
</vmc>
<opt stage="setup">
  <log>
   Reading configurations from h5FileRoot As.log.s018
  QMCCostFunction is created with 1 threads.
  Using Nonlocal PP in Opt: NonLocalECP
   Number of samples loaded to each thread : 500 
  VMC Eavg = -6.1705e+00
  VMC Evar = 6.4763e-01
  Total weights = 5.1200e+05
  Execution time = 8.9737e-01
  </log>
</opt>
<opt stage="main" walkers="512000">
  <log>

*****************************************
Building overlap and Hamiltonian matrices
*****************************************

Among totally 30 optimized parameters, largest LM parameter change : 1.6205e-02 at parameter 20

******************************************************************************
Init Cost =  -5.8296e+00    New Cost =  -5.8292e+00  Delta Cost =   3.7173e-04
******************************************************************************

The new set of parameters is valid. Updating the trial wave function!

*****************************************************************************
Applying the update for shift_i =   1.0000e-02     and shift_s =   3.9062e-03
*****************************************************************************
  Execution time = 5.9054e+00
  </log>
  <optVariables href="As.log.s018.opt.xml">
 uu_0                 5.830572e-01 1 1  ON 0
 uu_1                 4.061977e-01 1 1  ON 1
 uu_2                 2.618134e-01 1 1  ON 2
 uu_3                 1.456654e-01 1 1  ON 3
 uu_4                 5.348556e-02 1 1  ON 4
 uu_5                -1.809456e-02 1 1  ON 5
 uu_6                -6.979950e-02 1 1  ON 6
 uu_7                -1.031236e-01 1 1  ON 7
 uu_8                -1.119384e-01 1 1  ON 8
 uu_9                -1.110831e-01 1 1  ON 9
 ud_0                 7.575449e-01 1 1  ON 10
 ud_1                 4.234007e-01 1 1  ON 11
 ud_2                 2.055713e-01 1 1  ON 12
 ud_3                 6.305759e-02 1 1  ON 13
 ud_4                -3.494838e-02 1 1  ON 14
 ud_5                -1.075691e-01 1 1  ON 15
 ud_6                -1.562639e-01 1 1  ON 16
 ud_7                -1.906043e-01 1 1  ON 17
 ud_8                -1.997702e-01 1 1  ON 18
 ud_9                -2.001050e-01 1 1  ON 19
eAs_0                -1.113230e+00 1 1  ON 20
eAs_1                -6.043501e-01 1 1  ON 21
eAs_2                -4.252221e-01 1 1  ON 22
eAs_3                -1.147419e-01 1 1  ON 23
eAs_4                 1.296604e-01 1 1  ON 24
eAs_5                 3.439173e-01 1 1  ON 25
eAs_6                 4.861372e-01 1 1  ON 26
eAs_7                 5.668850e-01 1 1  ON 27
eAs_8                 4.972941e-01 1 1  ON 28
eAs_9                 2.313244e-01 1 1  ON 29
  </optVariables>
   Restore the number of walkers to 1, removing 0 walkers.
</opt>
</optimization-report>
  QMC Execution time = 5.914 secs
  Reusing QMCFixedSampleLinearOptimize
 Using QMCCostFunction::QMCCostFunction

=========================================================
  Start QMCFixedSampleLinearOptimize
  File Root As.log.s019 append = no 
=========================================================
  Skip QMCDriver::putQMCInfo 
  Resetting Properties of the walkers 1 x 13

=========================================================
  Start VMC
  File Root As.log.s019 append = no 
=========================================================
Using existing walkers 
  Resetting Properties of the walkers 1 x 13

<vmc function="put">
  qmc_counter=8  my_counter=18
  time step      = 1.5000e-01
  blocks         = 400
  steps          = 2
  substeps       = 5
  current        = 0
  target samples = 5.1200e+05
  walkers/mpi    = 1

  stepsbetweensamples = 1
<parameter name="blocks" condition="int">400</parameter>
<parameter name="blocks_between_recompute" condition="int">0</parameter>
<parameter name="check_properties" condition="int">100</parameter>
<parameter name="checkproperties" condition="int">100</parameter>
<parameter name="current" condition="int">0</parameter>
<parameter name="dmcwalkersperthread" condition="real">5.0000e+02</parameter>
<parameter name="maxcpusecs" condition="real">3.6000e+05</parameter>
<parameter name="record_configs" condition="int">0</parameter>
<parameter name="record_walkers" condition="int">1</parameter>
<parameter name="recordconfigs" condition="int">0</parameter>
<parameter name="recordwalkers" condition="int">1</parameter>
<parameter name="rewind" condition="int">0</parameter>
<parameter name="samples" condition="real">5.1200e+05</parameter>
<parameter name="samplesperthread" condition="real">5.0000e+02</parameter>
<parameter name="steps" condition="int">2</parameter>
<parameter name="stepsbetweensamples" condition="int">1</parameter>
<parameter name="store_configs" condition="int">0</parameter>
<parameter name="storeconfigs" condition="int">0</parameter>
<parameter name="sub_steps" condition="int">5</parameter>
<parameter name="substeps" condition="int">5</parameter>
<parameter name="tau" condition="au">1.5000e-01</parameter>
<parameter name="time_step" condition="au">1.5000e-01</parameter>
<parameter name="timestep" condition="au">1.5000e-01</parameter>
<parameter name="use_drift" condition="string">no</parameter>
<parameter name="usedrift" condition="string">no</parameter>
<parameter name="walkers" condition="int">1</parameter>
<parameter name="warmup_steps" condition="int">0</parameter>
<parameter name="warmupsteps" condition="int">0</parameter>
  DumpConfig==false Nothing (configurations, state) will be saved.
  Walker Samples are dumped every 1 steps.
</vmc>
  Set drift_modifier UNR parameter a = 1.0000e+00
  EstimatorManagerBase::add replace LocalEnergy estimator.
  Set drift_modifier UNR parameter a = 1.0000e+00
  EstimatorManagerBase::add replace LocalEnergy estimator.
<optimization-report>
<vmc stage="main" blocks="400">
  Cannot make clones again. Use existing 1 clones
  Initial partition of walkers 0 1 
  Using Particle by Particle moves
  Walker moves without drift
  Total Sample Size   =512000
  Walker distribution on root = 0 1 
  Using Locality Approximation
===== Memory Usage after the buffer registration =====
Available memory on node 0, free + buffers : 54483 MB
Memory footprint by rank 0 on node 0       : 621 MB
==================================================
====================================================
  SimpleFixedNodeBranch::finalize after a VMC block
    QMC counter        = 19
    time step          = 0.15
    reference energy   = -6.15669
    reference variance = 0.101782
====================================================
  Execution time = 4.0579e+00
</vmc>
<opt stage="setup">
  <log>
   Reading configurations from h5FileRoot As.log.s019
  QMCCostFunction is created with 1 threads.
  Using Nonlocal PP in Opt: NonLocalECP
   Number of samples loaded to each thread : 500 
  VMC Eavg = -6.1705e+00
  VMC Evar = 6.5013e-01
  Total weights = 5.1200e+05
  Execution time = 8.9729e-01
  </log>
</opt>
<opt stage="main" walkers="512000">
  <log>

*****************************************
Building overlap and Hamiltonian matrices
*****************************************

Among totally 30 optimized parameters, largest LM parameter change : 1.7614e-02 at parameter 29

******************************************************************************
Init Cost =  -5.8295e+00    New Cost =  -5.8296e+00  Delta Cost =  -7.4343e-05
******************************************************************************

The new set of parameters is valid. Updating the trial wave function!

*****************************************************************************
Applying the update for shift_i =   1.0000e-02     and shift_s =   3.9062e-03
*****************************************************************************
  Execution time = 5.8637e+00
  </log>
  <optVariables href="As.log.s019.opt.xml">
 uu_0                 5.901386e-01 1 1  ON 0
 uu_1                 4.107189e-01 1 1  ON 1
 uu_2                 2.662070e-01 1 1  ON 2
 uu_3                 1.497252e-01 1 1  ON 3
 uu_4                 5.810012e-02 1 1  ON 4
 uu_5                -1.249928e-02 1 1  ON 5
 uu_6                -6.456272e-02 1 1  ON 6
 uu_7                -1.011352e-01 1 1  ON 7
 uu_8                -1.127555e-01 1 1  ON 8
 uu_9                -1.043952e-01 1 1  ON 9
 ud_0                 7.642491e-01 1 1  ON 10
 ud_1                 4.268358e-01 1 1  ON 11
 ud_2                 2.079062e-01 1 1  ON 12
 ud_3                 6.699585e-02 1 1  ON 13
 ud_4                -3.401353e-02 1 1  ON 14
 ud_5                -1.054531e-01 1 1  ON 15
 ud_6                -1.547656e-01 1 1  ON 16
 ud_7                -1.867863e-01 1 1  ON 17
 ud_8                -1.916612e-01 1 1  ON 18
 ud_9                -1.920285e-01 1 1  ON 19
eAs_0                -1.115078e+00 1 1  ON 20
eAs_1                -6.065930e-01 1 1  ON 21
eAs_2                -4.280138e-01 1 1  ON 22
eAs_3                -1.164231e-01 1 1  ON 23
eAs_4                 1.229367e-01 1 1  ON 24
eAs_5                 3.381313e-01 1 1  ON 25
eAs_6                 4.772346e-01 1 1  ON 26
eAs_7                 5.642569e-01 1 1  ON 27
eAs_8                 5.059545e-01 1 1  ON 28
eAs_9                 2.489387e-01 1 1  ON 29
  </optVariables>
   Restore the number of walkers to 1, removing 0 walkers.
</opt>
</optimization-report>
  QMC Execution time = 5.872 secs
  Reusing QMCFixedSampleLinearOptimize
 Using QMCCostFunction::QMCCostFunction

=========================================================
  Start QMCFixedSampleLinearOptimize
  File Root As.log.s020 append = no 
=========================================================
  Skip QMCDriver::putQMCInfo 
  Resetting Properties of the walkers 1 x 13

=========================================================
  Start VMC
  File Root As.log.s020 append = no 
=========================================================
Using existing walkers 
  Resetting Properties of the walkers 1 x 13

<vmc function="put">
  qmc_counter=9  my_counter=19
  time step      = 1.5000e-01
  blocks         = 400
  steps          = 2
  substeps       = 5
  current        = 0
  target samples = 5.1200e+05
  walkers/mpi    = 1

  stepsbetweensamples = 1
<parameter name="blocks" condition="int">400</parameter>
<parameter name="blocks_between_recompute" condition="int">0</parameter>
<parameter name="check_properties" condition="int">100</parameter>
<parameter name="checkproperties" condition="int">100</parameter>
<parameter name="current" condition="int">0</parameter>
<parameter name="dmcwalkersperthread" condition="real">5.0000e+02</parameter>
<parameter name="maxcpusecs" condition="real">3.6000e+05</parameter>
<parameter name="record_configs" condition="int">0</parameter>
<parameter name="record_walkers" condition="int">1</parameter>
<parameter name="recordconfigs" condition="int">0</parameter>
<parameter name="recordwalkers" condition="int">1</parameter>
<parameter name="rewind" condition="int">0</parameter>
<parameter name="samples" condition="real">5.1200e+05</parameter>
<parameter name="samplesperthread" condition="real">5.0000e+02</parameter>
<parameter name="steps" condition="int">2</parameter>
<parameter name="stepsbetweensamples" condition="int">1</parameter>
<parameter name="store_configs" condition="int">0</parameter>
<parameter name="storeconfigs" condition="int">0</parameter>
<parameter name="sub_steps" condition="int">5</parameter>
<parameter name="substeps" condition="int">5</parameter>
<parameter name="tau" condition="au">1.5000e-01</parameter>
<parameter name="time_step" condition="au">1.5000e-01</parameter>
<parameter name="timestep" condition="au">1.5000e-01</parameter>
<parameter name="use_drift" condition="string">no</parameter>
<parameter name="usedrift" condition="string">no</parameter>
<parameter name="walkers" condition="int">1</parameter>
<parameter name="warmup_steps" condition="int">0</parameter>
<parameter name="warmupsteps" condition="int">0</parameter>
  DumpConfig==false Nothing (configurations, state) will be saved.
  Walker Samples are dumped every 1 steps.
</vmc>
  Set drift_modifier UNR parameter a = 1.0000e+00
  EstimatorManagerBase::add replace LocalEnergy estimator.
  Set drift_modifier UNR parameter a = 1.0000e+00
  EstimatorManagerBase::add replace LocalEnergy estimator.
<optimization-report>
<vmc stage="main" blocks="400">
  Cannot make clones again. Use existing 1 clones
  Initial partition of walkers 0 1 
  Using Particle by Particle moves
  Walker moves without drift
  Total Sample Size   =512000
  Walker distribution on root = 0 1 
  Using Locality Approximation
===== Memory Usage after the buffer registration =====
Available memory on node 0, free + buffers : 54480 MB
Memory footprint by rank 0 on node 0       : 624 MB
==================================================
====================================================
  SimpleFixedNodeBranch::finalize after a VMC block
    QMC counter        = 20
    time step          = 0.15
    reference energy   = -6.16057
    reference variance = 0.0749946
====================================================
  Execution time = 4.0742e+00
</vmc>
<opt stage="setup">
  <log>
   Reading configurations from h5FileRoot As.log.s020
  QMCCostFunction is created with 1 threads.
  Using Nonlocal PP in Opt: NonLocalECP
   Number of samples loaded to each thread : 500 
  VMC Eavg = -6.1710e+00
  VMC Evar = 6.3973e-01
  Total weights = 5.1200e+05
  Execution time = 9.0460e-01
  </log>
</opt>
<opt stage="main" walkers="512000">
  <log>

*****************************************
Building overlap and Hamiltonian matrices
*****************************************

Among totally 30 optimized parameters, largest LM parameter change : 1.2616e-02 at parameter 29

******************************************************************************
Init Cost =  -5.8305e+00    New Cost =  -5.8303e+00  Delta Cost =   2.1631e-04
******************************************************************************

The new set of parameters is valid. Updating the trial wave function!

*****************************************************************************
Applying the update for shift_i =   1.0000e-02     and shift_s =   3.9062e-03
*****************************************************************************
  Execution time = 5.9015e+00
  </log>
  <optVariables href="As.log.s020.opt.xml">
 uu_0                 5.960831e-01 1 1  ON 0
 uu_1                 4.207779e-01 1 1  ON 1
 uu_2                 2.750723e-01 1 1  ON 2
 uu_3                 1.585906e-01 1 1  ON 3
 uu_4                 6.534777e-02 1 1  ON 4
 uu_5                -6.700204e-03 1 1  ON 5
 uu_6                -5.940658e-02 1 1  ON 6
 uu_7                -9.579717e-02 1 1  ON 7
 uu_8                -1.080559e-01 1 1  ON 8
 uu_9                -1.085653e-01 1 1  ON 9
 ud_0                 7.674728e-01 1 1  ON 10
 ud_1                 4.288414e-01 1 1  ON 11
 ud_2                 2.126319e-01 1 1  ON 12
 ud_3                 7.032930e-02 1 1  ON 13
 ud_4                -2.904761e-02 1 1  ON 14
 ud_5                -1.007753e-01 1 1  ON 15
 ud_6                -1.505722e-01 1 1  ON 16
 ud_7                -1.832881e-01 1 1  ON 17
 ud_8                -1.902663e-01 1 1  ON 18
 ud_9                -1.863423e-01 1 1  ON 19
eAs_0                -1.122815e+00 1 1  ON 20
eAs_1                -6.089309e-01 1 1  ON 21
eAs_2                -4.284636e-01 1 1  ON 22
eAs_3                -1.162983e-01 1 1  ON 23
eAs_4                 1.269438e-01 1 1  ON 24
eAs_5                 3.409062e-01 1 1  ON 25
eAs_6                 4.706718e-01 1 1  ON 26
eAs_7                 5.569522e-01 1 1  ON 27
eAs_8                 5.059424e-01 1 1  ON 28
eAs_9                 2.615542e-01 1 1  ON 29
  </optVariables>
   Restore the number of walkers to 1, removing 0 walkers.
</opt>
</optimization-report>
  QMC Execution time = 5.91 secs
  Total Execution time = 95.57 secs

=========================================================
  A new xml input file : As.log.s020.cont.xml
TACC:  Shutdown complete. Exiting. 
