
 Primary working directories    : /global/cscratch1/sd/aannabe
 Secondary working directories  : /global/cscratch1/sd/aannabe
 Wavefunction directory         : /global/homes/a/aannabe/wfu/
 Main file repository           : /global/cscratch1/sd/aannabe/

 SHA1      : 2873118e99aab1bc19f5b6fc1784693c06d15c95
 NAME      : 2015.1.8
 ARCHNAME  : linux/x86_64
 FC        : /opt/cray/pe/craype/2.5.5/bin/ftn
 BLASLIB   : -Wl,-_start-group /opt/intel/compilers_and_libraries_2016.3.210/linux/mkl/lib/intel64/libmkl_intel_ilp64.a /opt/intel/compilers_and_libraries_2016.3.210/linux/mkl/lib/intel64/libmkl_intel_thread.a /opt/intel/compilers_and_libraries_2016.3.210/linux/mkl/lib/intel64/libmkl_core.a -Wl,-_end-group
 id        : lbl

 Nodes     nprocs
 nid00459     1

 Using customized tuning parameters: mindgm=8; mindgv=16; mindgc=4; mindgr=1; noblas=0; minvec=7
 default implementation of scratch files=df  

 ***,Al
 memory,8,g
 gthresh,twoint=1.e-12
 
 gprint,basis,orbitals
 gexpec,ekin,pot
 
 angstrom
 geometry={
 1                                                                               ! Number of atoms
 Al 0.0 0.0 0.0
 }
 
 basis={
 Including file /global/homes/a/aannabe/docs/totals/pps/Al.pp
 Including file /global/homes/a/aannabe/docs/totals/basis/aug-cc-pVnZ/Al_6z.basis
 }
 
 {hf
 wf,3,2,1
 occ,1,1,0,0,0,0,0,0
                                                                                 !open,1.2
 closed,1,0,0,0,0,0,0,0
                                                                                 !sym,
 }
 scf(i)=energy
 
 _CC_NORM_MAX=2.0
 {fci
 maxit,100
 core
 }
 posthf(i)=energy
 
 table,scf,posthf,ekin,pot
 save,6.csv,new
 
 

 Variables initialized (889), CPU time= 0.01 sec
 Commands  initialized (702), CPU time= 0.01 sec, 572 directives.
 Default parameters read. Elapsed time= 0.13 sec

 Checking input...
 Passed
1


                                         ***  PROGRAM SYSTEM MOLPRO  ***
                                       Copyright, TTI GmbH Stuttgart, 2015
                                    Version 2015.1 linked Sep  7 2016 23:09:38


 **********************************************************************************************************************************
 LABEL *   Al                                                                            
  64 bit serial version                                                                  DATE: 05-Oct-18          TIME: 11:02:30  
 **********************************************************************************************************************************

 SHA1:             2873118e99aab1bc19f5b6fc1784693c06d15c95
 **********************************************************************************************************************************

 THRESHOLDS:

 ZERO    =  1.00D-12  ONEINT  =  1.00D-12  TWOINT  =  1.00D-12  PREFAC  =  1.00D-14  LOCALI  =  1.00D-09  EORDER  =  1.00D-04
 ENERGY  =  0.00D+00  ETEST   =  0.00D+00  EDENS   =  0.00D+00  THRDEDEF=  1.00D-06  GRADIENT=  1.00D-02  STEP    =  1.00D-03
 ORBITAL =  1.00D-05  CIVEC   =  1.00D-05  COEFF   =  1.00D-04  PRINTCI =  5.00D-02  PUNCHCI =  9.90D+01  OPTGRAD =  3.00D-04
 OPTENERG=  1.00D-06  OPTSTEP =  3.00D-04  THRGRAD =  1.00D-10  COMPRESS=  1.00D-11  VARMIN  =  1.00D-07  VARMAX  =  1.00D-03
 THRDOUB =  0.00D+00  THRDIV  =  1.00D-05  THRRED  =  1.00D-07  THRPSP  =  1.00D+00  THRDC   =  1.00D-10  THRCS   =  1.00D-10
 THRNRM  =  1.00D-08  THREQ   =  0.00D+00  THRDE   =  1.00D+00  THRREF  =  1.00D-05  SPARFAC =  1.00D+00  THRDLP  =  1.00D-07
 THRDIA  =  1.00D-10  THRDLS  =  1.00D-07  THRGPS  =  0.00D+00  THRKEX  =  0.00D+00  THRDIS  =  2.00D-01  THRVAR  =  1.00D-10
 THRLOC  =  1.00D-06  THRGAP  =  1.00D-06  THRLOCT = -1.00D+00  THRGAPT = -1.00D+00  THRORB  =  1.00D-06  THRMLTP =  0.00D+00
 THRCPQCI=  1.00D-10  KEXTA   =  0.00D+00  THRCOARS=  0.00D+00  SYMTOL  =  1.00D-06  GRADTOL =  1.00D-06  THROVL  =  1.00D-08
 THRORTH =  1.00D-08  GRID    =  1.00D-06  GRIDMAX =  1.00D-03  DTMAX   =  0.00D+00  THROCCDE=  1.00D-01  THROCCDE=  1.00D-01



 ZUNIT=ANG
 

Geometry recognized as XYZ


 Variable memory set to 8000000000 words,  buffer space   230000 words

 SETTING BASIS          =    USERDEF


 Recomputing integrals since basis changed


 Using spherical harmonics



 PROGRAM * SEWARD (Integral evaluation for generally contracted gaussian basis sets)     Author: Roland Lindh, 1990

 Geometry written to block  1 of record 700

 Orientation using atomic masses  
 Molecule type: Atom
 Symmetry elements: X,Y,Z
 Rotational constants:       0.0000000      0.0000000      0.0000000 GHz  (calculated with average atomic masses)

 Point group  D2h 



 ATOMIC COORDINATES

 NR  ATOM    CHARGE       X              Y              Z

   1  AL      3.00    0.000000000    0.000000000    0.000000000


          AL  CORE POTENTIAL

          d POTENTIAL

 POWERS             1              3              2
 EXPONENTIALS   5.073893       8.607001       3.027490    
 COEFFICIENTS   3.000000       15.22168      -11.16568    

          s - d POTENTIAL

 POWERS             2              2
 EXPONENTIALS   7.863954       2.061358    
 COEFFICIENTS   14.87951       20.74686    

          p - d POTENTIAL

 POWERS             2              2
 EXPONENTIALS   3.125175       1.414930    
 COEFFICIENTS   7.786227       7.109015    


 BASIS DATA

   Nr Sym  Nuc  Type         Exponents   Contraction coefficients

    1.1 Ag    1  1s           8.257944     0.003287
                              4.514245    -0.017168
                              2.467734     0.069766
                              1.348998    -0.183475
                              0.737436    -0.147133
                              0.403123     0.046882
                              0.220369     0.308423
                              0.120466     0.451564
                              0.065853     0.302904
                              0.035999     0.079545
    2.1 Ag    1  1s           0.022060     1.000000
    3.1 Ag    1  1s           0.048530     1.000000
    4.1 Ag    1  1s           0.106760     1.000000
    5.1 Ag    1  1s           0.234857     1.000000
    6.1 Ag    1  1s           0.516655     1.000000
    7.1 Ag    1  1s           1.136574     1.000000
    8.1 Ag    1  3d0          0.030298     1.000000
    9.1 Ag    1  3d2+         0.030298     1.000000
   10.1 Ag    1  3d0          0.070018     1.000000
   11.1 Ag    1  3d2+         0.070018     1.000000
   12.1 Ag    1  3d0          0.161812     1.000000
   13.1 Ag    1  3d2+         0.161812     1.000000
   14.1 Ag    1  3d0          0.373949     1.000000
   15.1 Ag    1  3d2+         0.373949     1.000000
   16.1 Ag    1  3d0          0.864200     1.000000
   17.1 Ag    1  3d2+         0.864200     1.000000
   18.1 Ag    1  3d0          1.997172     1.000000
   19.1 Ag    1  3d2+         1.997172     1.000000
   20.1 Ag    1  5g0          0.117110     1.000000
   21.1 Ag    1  5g4+         0.117110     1.000000
   22.1 Ag    1  5g2+         0.117110     1.000000
   23.1 Ag    1  5g0          0.212469     1.000000
   24.1 Ag    1  5g4+         0.212469     1.000000
   25.1 Ag    1  5g2+         0.212469     1.000000
   26.1 Ag    1  5g0          0.385477     1.000000
   27.1 Ag    1  5g4+         0.385477     1.000000
   28.1 Ag    1  5g2+         0.385477     1.000000
   29.1 Ag    1  5g0          0.699361     1.000000
   30.1 Ag    1  5g4+         0.699361     1.000000
   31.1 Ag    1  5g2+         0.699361     1.000000
   32.1 Ag    1  7i6+         0.204502     1.000000
   33.1 Ag    1  7i4+         0.204502     1.000000
   34.1 Ag    1  7i2+         0.204502     1.000000
   35.1 Ag    1  7i0          0.204502     1.000000
   36.1 Ag    1  7i6+         0.511254     1.000000
   37.1 Ag    1  7i4+         0.511254     1.000000
   38.1 Ag    1  7i2+         0.511254     1.000000
   39.1 Ag    1  7i0          0.511254     1.000000
    1.2 B3u   1  2px          1.570603    -0.002645
                              0.977752    -0.037850
                              0.608683     0.006636
                              0.378925     0.089291
                              0.235893     0.134421
                              0.146851     0.256105
                              0.091420     0.238970
                              0.056912     0.260677
                              0.035429     0.112350
                              0.022056     0.052665
    2.2 B3u   1  2px          0.013011     1.000000
    3.2 B3u   1  2px          0.028616     1.000000
    4.2 B3u   1  2px          0.062938     1.000000
    5.2 B3u   1  2px          0.138426     1.000000
    6.2 B3u   1  2px          0.304456     1.000000
    7.2 B3u   1  2px          0.669621     1.000000
    8.2 B3u   1  4f1+         0.061775     1.000000
    9.2 B3u   1  4f3+         0.061775     1.000000
   10.2 B3u   1  4f1+         0.114249     1.000000
   11.2 B3u   1  4f3+         0.114249     1.000000
   12.2 B3u   1  4f1+         0.211295     1.000000
   13.2 B3u   1  4f3+         0.211295     1.000000
   14.2 B3u   1  4f1+         0.390776     1.000000
   15.2 B3u   1  4f3+         0.390776     1.000000
   16.2 B3u   1  4f1+         0.722712     1.000000
   17.2 B3u   1  4f3+         0.722712     1.000000
   18.2 B3u   1  6h1+         0.178977     1.000000
   19.2 B3u   1  6h3+         0.178977     1.000000
   20.2 B3u   1  6h5+         0.178977     1.000000
   21.2 B3u   1  6h1+         0.338669     1.000000
   22.2 B3u   1  6h3+         0.338669     1.000000
   23.2 B3u   1  6h5+         0.338669     1.000000
   24.2 B3u   1  6h1+         0.640844     1.000000
   25.2 B3u   1  6h3+         0.640844     1.000000
   26.2 B3u   1  6h5+         0.640844     1.000000
    1.3 B2u   1  2py          1.570603    -0.002645
                              0.977752    -0.037850
                              0.608683     0.006636
                              0.378925     0.089291
                              0.235893     0.134421
                              0.146851     0.256105
                              0.091420     0.238970
                              0.056912     0.260677
                              0.035429     0.112350
                              0.022056     0.052665
    2.3 B2u   1  2py          0.013011     1.000000
    3.3 B2u   1  2py          0.028616     1.000000
    4.3 B2u   1  2py          0.062938     1.000000
    5.3 B2u   1  2py          0.138426     1.000000
    6.3 B2u   1  2py          0.304456     1.000000
    7.3 B2u   1  2py          0.669621     1.000000
    8.3 B2u   1  4f1-         0.061775     1.000000
    9.3 B2u   1  4f3-         0.061775     1.000000
   10.3 B2u   1  4f1-         0.114249     1.000000
   11.3 B2u   1  4f3-         0.114249     1.000000
   12.3 B2u   1  4f1-         0.211295     1.000000
   13.3 B2u   1  4f3-         0.211295     1.000000
   14.3 B2u   1  4f1-         0.390776     1.000000
   15.3 B2u   1  4f3-         0.390776     1.000000
   16.3 B2u   1  4f1-         0.722712     1.000000
   17.3 B2u   1  4f3-         0.722712     1.000000
   18.3 B2u   1  6h1-         0.178977     1.000000
   19.3 B2u   1  6h3-         0.178977     1.000000
   20.3 B2u   1  6h5-         0.178977     1.000000
   21.3 B2u   1  6h1-         0.338669     1.000000
   22.3 B2u   1  6h3-         0.338669     1.000000
   23.3 B2u   1  6h5-         0.338669     1.000000
   24.3 B2u   1  6h1-         0.640844     1.000000
   25.3 B2u   1  6h3-         0.640844     1.000000
   26.3 B2u   1  6h5-         0.640844     1.000000
    1.4 B1g   1  3d2-         0.030298     1.000000
    2.4 B1g   1  3d2-         0.070018     1.000000
    3.4 B1g   1  3d2-         0.161812     1.000000
    4.4 B1g   1  3d2-         0.373949     1.000000
    5.4 B1g   1  3d2-         0.864200     1.000000
    6.4 B1g   1  3d2-         1.997172     1.000000
    7.4 B1g   1  5g2-         0.117110     1.000000
    8.4 B1g   1  5g4-         0.117110     1.000000
    9.4 B1g   1  5g2-         0.212469     1.000000
   10.4 B1g   1  5g4-         0.212469     1.000000
   11.4 B1g   1  5g2-         0.385477     1.000000
   12.4 B1g   1  5g4-         0.385477     1.000000
   13.4 B1g   1  5g2-         0.699361     1.000000
   14.4 B1g   1  5g4-         0.699361     1.000000
   15.4 B1g   1  7i2-         0.204502     1.000000
   16.4 B1g   1  7i6-         0.204502     1.000000
   17.4 B1g   1  7i4-         0.204502     1.000000
   18.4 B1g   1  7i2-         0.511254     1.000000
   19.4 B1g   1  7i6-         0.511254     1.000000
   20.4 B1g   1  7i4-         0.511254     1.000000
    1.5 B1u   1  2pz          1.570603    -0.002645
                              0.977752    -0.037850
                              0.608683     0.006636
                              0.378925     0.089291
                              0.235893     0.134421
                              0.146851     0.256105
                              0.091420     0.238970
                              0.056912     0.260677
                              0.035429     0.112350
                              0.022056     0.052665
    2.5 B1u   1  2pz          0.013011     1.000000
    3.5 B1u   1  2pz          0.028616     1.000000
    4.5 B1u   1  2pz          0.062938     1.000000
    5.5 B1u   1  2pz          0.138426     1.000000
    6.5 B1u   1  2pz          0.304456     1.000000
    7.5 B1u   1  2pz          0.669621     1.000000
    8.5 B1u   1  4f0          0.061775     1.000000
    9.5 B1u   1  4f2+         0.061775     1.000000
   10.5 B1u   1  4f0          0.114249     1.000000
   11.5 B1u   1  4f2+         0.114249     1.000000
   12.5 B1u   1  4f0          0.211295     1.000000
   13.5 B1u   1  4f2+         0.211295     1.000000
   14.5 B1u   1  4f0          0.390776     1.000000
   15.5 B1u   1  4f2+         0.390776     1.000000
   16.5 B1u   1  4f0          0.722712     1.000000
   17.5 B1u   1  4f2+         0.722712     1.000000
   18.5 B1u   1  6h2+         0.178977     1.000000
   19.5 B1u   1  6h4+         0.178977     1.000000
   20.5 B1u   1  6h0          0.178977     1.000000
   21.5 B1u   1  6h2+         0.338669     1.000000
   22.5 B1u   1  6h4+         0.338669     1.000000
   23.5 B1u   1  6h0          0.338669     1.000000
   24.5 B1u   1  6h2+         0.640844     1.000000
   25.5 B1u   1  6h4+         0.640844     1.000000
   26.5 B1u   1  6h0          0.640844     1.000000
    1.6 B2g   1  3d1+         0.030298     1.000000
    2.6 B2g   1  3d1+         0.070018     1.000000
    3.6 B2g   1  3d1+         0.161812     1.000000
    4.6 B2g   1  3d1+         0.373949     1.000000
    5.6 B2g   1  3d1+         0.864200     1.000000
    6.6 B2g   1  3d1+         1.997172     1.000000
    7.6 B2g   1  5g1+         0.117110     1.000000
    8.6 B2g   1  5g3+         0.117110     1.000000
    9.6 B2g   1  5g1+         0.212469     1.000000
   10.6 B2g   1  5g3+         0.212469     1.000000
   11.6 B2g   1  5g1+         0.385477     1.000000
   12.6 B2g   1  5g3+         0.385477     1.000000
   13.6 B2g   1  5g1+         0.699361     1.000000
   14.6 B2g   1  5g3+         0.699361     1.000000
   15.6 B2g   1  7i5+         0.204502     1.000000
   16.6 B2g   1  7i3+         0.204502     1.000000
   17.6 B2g   1  7i1+         0.204502     1.000000
   18.6 B2g   1  7i5+         0.511254     1.000000
   19.6 B2g   1  7i3+         0.511254     1.000000
   20.6 B2g   1  7i1+         0.511254     1.000000
    1.7 B3g   1  3d1-         0.030298     1.000000
    2.7 B3g   1  3d1-         0.070018     1.000000
    3.7 B3g   1  3d1-         0.161812     1.000000
    4.7 B3g   1  3d1-         0.373949     1.000000
    5.7 B3g   1  3d1-         0.864200     1.000000
    6.7 B3g   1  3d1-         1.997172     1.000000
    7.7 B3g   1  5g1-         0.117110     1.000000
    8.7 B3g   1  5g3-         0.117110     1.000000
    9.7 B3g   1  5g1-         0.212469     1.000000
   10.7 B3g   1  5g3-         0.212469     1.000000
   11.7 B3g   1  5g1-         0.385477     1.000000
   12.7 B3g   1  5g3-         0.385477     1.000000
   13.7 B3g   1  5g1-         0.699361     1.000000
   14.7 B3g   1  5g3-         0.699361     1.000000
   15.7 B3g   1  7i5-         0.204502     1.000000
   16.7 B3g   1  7i3-         0.204502     1.000000
   17.7 B3g   1  7i1-         0.204502     1.000000
   18.7 B3g   1  7i5-         0.511254     1.000000
   19.7 B3g   1  7i3-         0.511254     1.000000
   20.7 B3g   1  7i1-         0.511254     1.000000
    1.8 Au    1  4f2-         0.061775     1.000000
    2.8 Au    1  4f2-         0.114249     1.000000
    3.8 Au    1  4f2-         0.211295     1.000000
    4.8 Au    1  4f2-         0.390776     1.000000
    5.8 Au    1  4f2-         0.722712     1.000000
    6.8 Au    1  6h4-         0.178977     1.000000
    7.8 Au    1  6h2-         0.178977     1.000000
    8.8 Au    1  6h4-         0.338669     1.000000
    9.8 Au    1  6h2-         0.338669     1.000000
   10.8 Au    1  6h4-         0.640844     1.000000
   11.8 Au    1  6h2-         0.640844     1.000000

 NUCLEAR CHARGE:                    3
 NUMBER OF PRIMITIVE AOS:         329
 NUMBER OF SYMMETRY AOS:          224
 NUMBER OF CONTRACTIONS:          188   (  39Ag  +  26B3u +  26B2u +  20B1g +  26B1u +  20B2g +  20B3g +  11Au  )
 NUMBER OF CORE ORBITALS:           0   (   0Ag  +   0B3u +   0B2u +   0B1g +   0B1u +   0B2g +   0B3g +   0Au  )
 NUMBER OF VALENCE ORBITALS:        4   (   1Ag  +   1B3u +   1B2u +   0B1g +   1B1u +   0B2g +   0B3g +   0Au  )


 NUCLEAR REPULSION ENERGY    0.00000000

 EXTRA SYMMETRY OF AOS IN SYMMETRY 1:   1 1 1 1 1 1 1 2 3 2   3 2 3 2 3 2 3 2 3 4   5 6 4 5 6 4 5 6 4 5   6 7 8 910 7 8 910
 EXTRA SYMMETRY OF AOS IN SYMMETRY 2:   1 1 1 1 1 1 1 2 3 2   3 2 3 2 3 2 3 4 5 6   4 5 6 4 5 6
 EXTRA SYMMETRY OF AOS IN SYMMETRY 3:   1 1 1 1 1 1 1 2 3 2   3 2 3 2 3 2 3 4 5 6   4 5 6 4 5 6
 EXTRA SYMMETRY OF AOS IN SYMMETRY 4:   1 1 1 1 1 1 2 3 2 3   2 3 2 3 4 5 6 4 5 6
 EXTRA SYMMETRY OF AOS IN SYMMETRY 5:   1 1 1 1 1 1 1 2 3 2   3 2 3 2 3 2 3 4 5 6   4 5 6 4 5 6
 EXTRA SYMMETRY OF AOS IN SYMMETRY 6:   1 1 1 1 1 1 2 3 2 3   2 3 2 3 4 5 6 4 5 6
 EXTRA SYMMETRY OF AOS IN SYMMETRY 7:   1 1 1 1 1 1 2 3 2 3   2 3 2 3 4 5 6 4 5 6
 EXTRA SYMMETRY OF AOS IN SYMMETRY 8:   1 1 1 1 1 2 3 2 3 2   3

 Eigenvalues of metric

         1 0.329E-04 0.228E-02 0.161E-01 0.281E-01 0.281E-01 0.308E-01 0.308E-01 0.308E-01
         2 0.357E-04 0.810E-02 0.122E-01 0.122E-01 0.430E-01 0.889E-01 0.889E-01 0.113E+00
         3 0.357E-04 0.810E-02 0.122E-01 0.122E-01 0.430E-01 0.889E-01 0.889E-01 0.113E+00
         4 0.281E-01 0.308E-01 0.308E-01 0.105E+00 0.237E+00 0.237E+00 0.328E+00 0.533E+00
         5 0.357E-04 0.810E-02 0.122E-01 0.122E-01 0.430E-01 0.889E-01 0.889E-01 0.113E+00
         6 0.281E-01 0.308E-01 0.308E-01 0.105E+00 0.237E+00 0.237E+00 0.328E+00 0.533E+00
         7 0.281E-01 0.308E-01 0.308E-01 0.105E+00 0.237E+00 0.237E+00 0.328E+00 0.533E+00
         8 0.122E-01 0.889E-01 0.113E+00 0.113E+00 0.422E+00 0.711E+00 0.711E+00 0.140E+01


 Contracted 2-electron integrals neglected if value below      1.0D-12
 AO integral compression algorithm  1   Integral accuracy      1.0D-12

     116.130 MB (compressed) written to integral file ( 45.9%)


 NUMBER OF SORTED TWO-ELECTRON INTEGRALS:   20212815.     BUFFER LENGTH:  32768
 NUMBER OF SEGMENTS:   2  SEGMENT LENGTH:   15998787      RECORD LENGTH: 524288

 Memory used in sort:      16.56 MW

 SORT1 READ    31710950. AND WROTE    13213985. INTEGRALS IN     39 RECORDS. CPU TIME:     0.98 SEC, REAL TIME:     1.30 SEC
 SORT2 READ    13213985. AND WROTE    20212815. INTEGRALS IN    443 RECORDS. CPU TIME:     0.56 SEC, REAL TIME:     1.03 SEC

 FILE SIZES:   FILE 1:   136.0 MBYTE,  FILE 4:   163.6 MBYTE,   TOTAL:    299.6 MBYTE

 OPERATOR DM      FOR CENTER  0  COORDINATES:    0.000000    0.000000    0.000000
 OPERATOR EKIN    FOR CENTER  0  COORDINATES:    0.000000    0.000000    0.000000
 OPERATOR POT     FOR CENTER  0  COORDINATES:    0.000000    0.000000    0.000000


 **********************************************************************************************************************************
 DATASETS  * FILE   NREC   LENGTH (MB)   RECORD NAMES
              1      20       94.92       500      610      700      900      950      970     1000      129      960     1100   
                                          VAR    BASINP    GEOM    SYMINP    ZMAT    AOBASIS   BASIS     P2S    ABASIS      S 
                                         1400     1410     1420     1200     1210     1080     1600     1650     1300     1700   
                                         EKIN       V       ECP      H0       H01     AOSYM     SMH    MOLCAS    ERIS     OPER   

 PROGRAMS   *        TOTAL       INT
 CPU TIMES  *         8.43      8.33
 REAL TIME  *        19.97 SEC
 DISK USED  *       299.98 MB      
 **********************************************************************************************************************************


 PROGRAM * RHF-SCF (OPEN SHELL)       Authors: W. Meyer, H.-J. Werner


 NUMBER OF ELECTRONS:       2+    1-    SPACE SYMMETRY=2    SPIN SYMMETRY: Doublet 
 CONVERGENCE THRESHOLDS:    1.00E-05 (Density)    1.00E-07 (Energy)
 MAX. NUMBER OF ITERATIONS:       60
 INTERPOLATION TYPE:            DIIS
 INTERPOLATION STEPS:              2 (START)      1 (STEP)
 LEVEL SHIFTS:                 -0.60 (CLOSED) -0.30 (OPEN) 

 Number of closed-shell orbitals:    1 (   1   0   0   0   0   0   0   0 )
 Number of open-shell orbitals:      1 (   0   1   0   0   0   0   0   0 )



   Atom=AL basis=ECP10MWB_GUESS    lmin=0  lmax=1

 Orbital guess generated from atomic densities. Full valence occupancy:    1   1   1   0   1   0   0   0


 Molecular orbital dump at record        2100.2

 ITERATION    DDIFF          GRAD             ENERGY        2-EL.EN.            DIPOLE MOMENTS         DIIS   ORB.
    1      0.000D+00      0.000D+00        -1.86846003      1.642269    0.00000    0.00000    0.00000    0    start
    2      0.000D+00      0.293D-02        -1.87261596      1.683670    0.00000    0.00000    0.00000    1    diag,B
    3      0.269D-02      0.178D-02        -1.87591949      1.731621    0.00000    0.00000    0.00000    2    diag,B
    4      0.323D-02      0.888D-03        -1.87700446      1.755426    0.00000    0.00000    0.00000    3    diag,B
    5      0.228D-02      0.309D-03        -1.87708370      1.758222    0.00000    0.00000    0.00000    4    diag,B
    6      0.709D-03      0.104D-03        -1.87709019      1.759011    0.00000    0.00000    0.00000    5    diag,B
    7      0.369D-03      0.326D-04        -1.87709058      1.758899    0.00000    0.00000    0.00000    6    fixocc
    8      0.171D-03      0.982D-05        -1.87709061      1.758936    0.00000    0.00000    0.00000    7    diag,B
    9      0.334D-04      0.350D-05        -1.87709061      1.758924    0.00000    0.00000    0.00000    8    diag,B
   10      0.229D-04      0.349D-06        -1.87709061      1.758927    0.00000    0.00000    0.00000    9    orth
   11      0.150D-05      0.140D-06        -1.87709061      1.758926    0.00000    0.00000    0.00000    0    orth

 Final alpha occupancy:   1   1   0   0   0   0   0   0
 Final beta  occupancy:   1   0   0   0   0   0   0   0

 !RHF STATE 1.2 Energy                 -1.877090613984
 Nuclear energy                         0.00000000
 One-electron energy                   -2.75655379
 Two-electron energy                    0.87946318
 Virial quotient                       -2.92513862
 !RHF STATE 1.2 Dipole moment           0.00000000     0.00000000     0.00000000
 Dipole moment /Debye                   0.00000000     0.00000000     0.00000000
 

 !RHF expec          <1.2|EKIN|1.2>     0.641709969070
 
 !RHF expec           <1.2|POT|1.2>    -1.245924104276

 ELECTRON ORBITALS
 =================


   Orb  Occ    Energy  Couls-En    Coefficients

                                   1 1s      1 1s      1 1s      1 1s      1 1s      1 1s      1 1s      1 3d0     1 3d2+    1 3d0  
                                   1 3d2+    1 3d0     1 3d2+    1 3d0     1 3d2+    1 3d0     1 3d2+    1 3d0     1 3d2+    1 5g0  
                                   1 5g4+    1 5g2+    1 5g0     1 5g4+    1 5g2+    1 5g0     1 5g4+    1 5g2+    1 5g0     1 5g4+ 
                                   1 5g2+    1 7i6+    1 7i4+    1 7i2+    1 7i0     1 7i6+    1 7i4+    1 7i2+    1 7i0  

   1.1   2    -0.3939   -1.4017  1.000533  0.000615 -0.001612  0.000869 -0.000618  0.000197  0.000048 -0.000956  0.001655 -0.004375
                                 0.007578 -0.000184  0.000319  0.000621 -0.001076 -0.000335  0.000581 -0.000044  0.000076 -0.000053
                                -0.000104  0.000079  0.000002  0.000004 -0.000003 -0.000004 -0.000008  0.000006  0.000001  0.000002
                                -0.000001  0.000001 -0.000001  0.000001 -0.000000 -0.000000  0.000000 -0.000000  0.000000

                                   1 2px     1 2px     1 2px     1 2px     1 2px     1 2px     1 2px     1 4f1+    1 4f3+    1 4f1+ 
                                   1 4f3+    1 4f1+    1 4f3+    1 4f1+    1 4f3+    1 4f1+    1 4f3+    1 6h1+    1 6h3+    1 6h5+ 
                                   1 6h1+    1 6h3+    1 6h5+    1 6h1+    1 6h3+    1 6h5+ 

   1.2   +    -0.2098   -0.9507  0.999975  0.000251 -0.000243  0.000511 -0.000444  0.000035  0.000011 -0.000147  0.000190  0.000049
                                -0.000063  0.000068 -0.000087  0.000039 -0.000050 -0.000003  0.000003 -0.000002  0.000002 -0.000003
                                 0.000001 -0.000001  0.000001 -0.000000  0.000000 -0.000000

 HOMO      1.2    -0.209801 =      -5.7090eV
 LUMO      1.3     0.007189 =       0.1956eV
 LUMO-HOMO         0.216989 =       5.9046eV


 **********************************************************************************************************************************
 DATASETS  * FILE   NREC   LENGTH (MB)   RECORD NAMES
              1      20       94.92       500      610      700      900      950      970     1000      129      960     1100   
                                          VAR    BASINP    GEOM    SYMINP    ZMAT    AOBASIS   BASIS     P2S    ABASIS      S 
                                         1400     1410     1420     1200     1210     1080     1600     1650     1300     1700   
                                         EKIN       V       ECP      H0       H01     AOSYM     SMH    MOLCAS    ERIS     OPER   

              2       4        2.92       700     1000      520     2100   
                                         GEOM     BASIS   MCVARS     RHF  

 PROGRAMS   *        TOTAL        HF       INT
 CPU TIMES  *         9.12      0.68      8.33
 REAL TIME  *        21.12 SEC
 DISK USED  *       299.98 MB      
 **********************************************************************************************************************************
 SETTING SCF(I)         =        -1.87709061  AU                              
 SETTING _CC_NORM_MAX   =         2.00000000                                  


 PROGRAM * FCI (Full CI)     Author: P.J. Knowles, 1984

 ***  Initialisation ***
 
 Molecular orbitals read from record     2100.2  Type=RHF/CANONICAL (state 1.2)
 
 Frozen orbitals:              0 (  0  0  0  0  0  0  0  0)
 Active orbitals:            188 ( 39 26 26 20 26 20 20 11)
 Active electrons:             3
 Spin quantum number:          0.5
 Orbital pairs:                  2529    2274    2274    2142    2274    2142    2142    1989
 Strings:                        2341    2274    2274    2142    2274    2142    2142    1989
                                   39      26      26      20      26      20      20      11
 Determinants:                         419070          415238          415238          411014
                                       415238          411014          411014          406838

 Load integrals                9.1 sec
 Transform integrals          20.1 sec
 Storage for integrals:       39700558
 Remaining memory:           *********

 Core energy:               0.00000000
 Run Hamiltonian processor DAVIDSON
 Symmetry:                   2
 Trial vector:                  0.00
 Result vector:                 0.00
 Maximum iterations:          100
 Convergence threshold:         0.0000100
 RHS vector:                    0.00
 Hamiltonian shift:             0.0000000
 Output threshold:              0.0500000
 Options:                        0
 Number of roots:             1

 Hamiltonian diagonaliser entered at time     88.84

 Initial configuration generated:
       1      1.0000000     -1.8770906

 It  Tr    CPU  Convergence   Energy       Pop     dE(next)

  1   1  128.0  1.00000000    -1.87709061
                                           0.01 -0.06300371 -0.06296327
  2   1  170.7  0.22966527    -1.93090454
                                           0.03 -0.00530746 -0.00520988
  3   1  241.5  0.07512303    -1.93670939
                                           0.04 -0.00055699 -0.00054467
  4   1  333.1  0.02041155    -1.93727922
                                           0.07 -0.00006112 -0.00005911
  5   1  463.2  0.00694163    -1.93734037
                                           0.10 -0.00000600 -0.00000573
  6   1  615.9  0.00201440    -1.93734621
                                           0.12 -0.00000085 -0.00000080
  7   1  788.2  0.00077203    -1.93734704
                                           0.15 -0.00000013 -0.00000012
  8   1  990.4  0.00034688    -1.93734718
                                           0.17 -0.00000002 -0.00000002
  9   1 1221.4  0.00012460    -1.93734720
                                           0.18 -0.00000000 -0.00000000
 10   1 1500.5  0.00006278    -1.93734721
                                           0.19 -0.00000000 -0.00000000
 11   1 1792.9  0.00002130    -1.93734721
                                           0.19 -0.00000000 -0.00000000
 12   1 2073.8  0.00000906    -1.93734721


RESULTS FOR STATE 1.2
=====================

 Correlation energy                    -0.060256592591
 !FCI STATE 1.2 Energy                 -1.937347206575
 CI Vector (threshold= 0.500E-01)
       0.959518170676  1 40  1
      -0.066594256439  1  6 40
       0.058460973018 40 66 66
       0.058460973022 40112112
 /EOF
 !FCI STATE 1.2 Dipole moment           0.00000000     0.00000000     0.00000000
 Dipole moment /Debye                   0.00000000     0.00000000     0.00000000
 

 !FCI expec          <1.2|EKIN|1.2>     0.706064547032
 
 !FCI expec           <1.2|POT|1.2>    -1.257454103042


 **********************************************************************************************************************************
 DATASETS  * FILE   NREC   LENGTH (MB)   RECORD NAMES
              1      20       94.92       500      610      700      900      950      970     1000      129      960     1100   
                                          VAR    BASINP    GEOM    SYMINP    ZMAT    AOBASIS   BASIS     P2S    ABASIS      S 
                                         1400     1410     1420     1200     1210     1080     1600     1650     1300     1700   
                                         EKIN       V       ECP      H0       H01     AOSYM     SMH    MOLCAS    ERIS     OPER   

              2       4        2.92       700     1000      520     2100   
                                         GEOM     BASIS   MCVARS     RHF  

 PROGRAMS   *        TOTAL       FCI        HF       INT
 CPU TIMES  *      2073.93   2064.81      0.68      8.33
 REAL TIME  *      2093.78 SEC
 DISK USED  *       299.98 MB      
 **********************************************************************************************************************************
 SETTING POSTHF(I)      =        -1.93734721  AU                              
                                                                                                                                                                                                                                                                

       SCF           POSTHF       EKIN          POT
    -1.87709061   -1.93734721   0.70606455   -1.25745410
                                                  

 FCI/USERDEF energy=     -1.937347206575

        FCI             HF-SCF  
     -1.93734721     -1.87709061
 **********************************************************************************************************************************
 Variable memory released
