
 Primary working directories    : /global/cscratch1/sd/aannabe
 Secondary working directories  : /global/cscratch1/sd/aannabe
 Wavefunction directory         : /global/homes/a/aannabe/wfu/
 Main file repository           : /global/cscratch1/sd/aannabe/

 SHA1      : 2873118e99aab1bc19f5b6fc1784693c06d15c95
 NAME      : 2015.1.8
 ARCHNAME  : linux/x86_64
 FC        : /opt/cray/pe/craype/2.5.5/bin/ftn
 BLASLIB   : -Wl,-_start-group /opt/intel/compilers_and_libraries_2016.3.210/linux/mkl/lib/intel64/libmkl_intel_ilp64.a /opt/intel/compilers_and_libraries_2016.3.210/linux/mkl/lib/intel64/libmkl_intel_thread.a /opt/intel/compilers_and_libraries_2016.3.210/linux/mkl/lib/intel64/libmkl_core.a -Wl,-_end-group
 id        : lbl

 Nodes     nprocs
 nid00463     1

 Using customized tuning parameters: mindgm=8; mindgv=16; mindgc=4; mindgr=1; noblas=0; minvec=7
 default implementation of scratch files=df  

 ***,Cu
 memory,512,m
 gthresh,twoint=1.e-12
 
 gprint,basis,orbitals
 gexpec,ekin,pot
 
 angstrom
 geometry={
 1                                                                               ! Number of atoms
 Cu 0.0 0.0 0.0
 }
 
 basis={
 Including file /global/homes/a/aannabe/docs/accurate/ccECP_Kh/pps/Cu.pp
                                              !include,/global/homes/a/aannabe/docs/accurate/ccECP_Kh/basis/aug-cc-pVnZ/Cu_5z.basis
 Including file /global/homes/a/aannabe/docs/accurate/ccECP_Kh/basis/cc-pVnZ/Cu_5z.basis
 }
 
 {rhf
  start,atden
  print,orbitals=2
  wf,19,1,1
  occ,4,1,1,1,1,1,1,0
  open,4.1
  sym,1,1,3,2,1
  orbital,4202.2
 }
 pop
 {multi
  start,4202.2
  occ,4,1,1,1,1,1,1,0
  closed,3,1,1,1,1,1,1,0
  wf,19,1,1;state,1
  restrict,1,1,4.1
  natorb,ci,print
  orbital,5202.2
 }
 {rhf,nitord=1,maxit=0
  start,5202.2
  wf,19,1,1
  occ,4,1,1,1,1,1,1,0
  open,4.1
 }
 
 scf(i)=energy
 
 _CC_NORM_MAX=2.0
 {rccsd(t)
 maxit,100
 core
 }
 posthf(i)=energy
 
 table,scf,posthf,ekin,pot
 save,5.csv,new
 
 

 Variables initialized (889), CPU time= 0.00 sec
 Commands  initialized (702), CPU time= 0.01 sec, 572 directives.
 Default parameters read. Elapsed time= 0.20 sec

 Checking input...
 Passed
1


                                         ***  PROGRAM SYSTEM MOLPRO  ***
                                       Copyright, TTI GmbH Stuttgart, 2015
                                    Version 2015.1 linked Sep  7 2016 23:09:38


 **********************************************************************************************************************************
 LABEL *   Cu                                                                            
  64 bit serial version                                                                  DATE: 13-Nov-18          TIME: 22:26:51  
 **********************************************************************************************************************************

 SHA1:             2873118e99aab1bc19f5b6fc1784693c06d15c95
 **********************************************************************************************************************************

 THRESHOLDS:

 ZERO    =  1.00D-12  ONEINT  =  1.00D-12  TWOINT  =  1.00D-12  PREFAC  =  1.00D-14  LOCALI  =  1.00D-09  EORDER  =  1.00D-04
 ENERGY  =  0.00D+00  ETEST   =  0.00D+00  EDENS   =  0.00D+00  THRDEDEF=  1.00D-06  GRADIENT=  1.00D-02  STEP    =  1.00D-03
 ORBITAL =  1.00D-05  CIVEC   =  1.00D-05  COEFF   =  1.00D-04  PRINTCI =  5.00D-02  PUNCHCI =  9.90D+01  OPTGRAD =  3.00D-04
 OPTENERG=  1.00D-06  OPTSTEP =  3.00D-04  THRGRAD =  1.00D-10  COMPRESS=  1.00D-11  VARMIN  =  1.00D-07  VARMAX  =  1.00D-03
 THRDOUB =  0.00D+00  THRDIV  =  1.00D-05  THRRED  =  1.00D-07  THRPSP  =  1.00D+00  THRDC   =  1.00D-10  THRCS   =  1.00D-10
 THRNRM  =  1.00D-08  THREQ   =  0.00D+00  THRDE   =  1.00D+00  THRREF  =  1.00D-05  SPARFAC =  1.00D+00  THRDLP  =  1.00D-07
 THRDIA  =  1.00D-10  THRDLS  =  1.00D-07  THRGPS  =  0.00D+00  THRKEX  =  0.00D+00  THRDIS  =  2.00D-01  THRVAR  =  1.00D-10
 THRLOC  =  1.00D-06  THRGAP  =  1.00D-06  THRLOCT = -1.00D+00  THRGAPT = -1.00D+00  THRORB  =  1.00D-06  THRMLTP =  0.00D+00
 THRCPQCI=  1.00D-10  KEXTA   =  0.00D+00  THRCOARS=  0.00D+00  SYMTOL  =  1.00D-06  GRADTOL =  1.00D-06  THROVL  =  1.00D-08
 THRORTH =  1.00D-08  GRID    =  1.00D-06  GRIDMAX =  1.00D-03  DTMAX   =  0.00D+00  THROCCDE=  1.00D-01  THROCCDE=  1.00D-01



 ZUNIT=ANG
 

Geometry recognized as XYZ


 Variable memory set to  512000000 words,  buffer space   230000 words

 SETTING BASIS          =    USERDEF


 Recomputing integrals since basis changed


 Using spherical harmonics



 PROGRAM * SEWARD (Integral evaluation for generally contracted gaussian basis sets)     Author: Roland Lindh, 1990

 Geometry written to block  1 of record 700

 Orientation using atomic masses  
 Molecule type: Atom
 Symmetry elements: X,Y,Z
 Rotational constants:       0.0000000      0.0000000      0.0000000 GHz  (calculated with average atomic masses)

 Point group  D2h 



 ATOMIC COORDINATES

 NR  ATOM    CHARGE       X              Y              Z

   1  CU     19.00    0.000000000    0.000000000    0.000000000


          CU  CORE POTENTIAL

          d POTENTIAL

 POWERS             1              3              2              2
 EXPONENTIALS   31.53811       31.06926       30.59036       14.05141    
 COEFFICIENTS   19.00000       599.2241      -244.6892      -1.293495    

          s - d POTENTIAL

 POWERS             2              2
 EXPONENTIALS   12.77236       29.35562    
 COEFFICIENTS   66.27561       370.7137    

          p - d POTENTIAL

 POWERS             2              2
 EXPONENTIALS   12.52471       33.51695    
 COEFFICIENTS   49.76265       271.6628    


 BASIS DATA

   Nr Sym  Nuc  Type         Exponents   Contraction coefficients

    1.1 Ag    1  1s         104.471138     0.000741   -0.000133    0.000210    0.000366    0.002679   -0.000025
                                           0.000000
    2.1 Ag                   55.955221    -0.013953    0.002999    0.003806    0.006720   -0.026267   -0.014383
                                           0.000000
    3.1 Ag                   30.553953     0.105266   -0.024310   -0.047312   -0.091493    0.192129    0.224135
                                           0.000000
    4.1 Ag                   16.942394    -0.129399    0.031986    0.059957    0.142263   -0.404218   -0.555164
                                           0.000000
    5.1 Ag                    9.452707    -0.362738    0.089149    0.250642    0.471881   -0.434602   -1.111628
                                           0.000000
    6.1 Ag                    5.174537     0.013266   -0.010750   -0.119102   -0.319708    0.555674    3.393712
                                           0.000000
    7.1 Ag                    2.779171     0.489288   -0.128224   -0.314069   -1.068255    2.618211    0.292848
                                           0.000000
                              1.441817     0.562088   -0.215720   -0.689300   -0.615049   -3.207343   -6.107515
                                           0.000000
                              0.710674     0.190047   -0.149559    0.403050    2.261282   -0.330545    6.278240
                                           0.000000
                              0.241540     0.005635    0.142917    1.270440   -0.020059    4.041966   -3.388622
                                           0.000000
                              0.129621    -0.000582    0.446307   -0.029029   -1.815746   -3.355497   -0.139824
                                           0.000000
                              0.059229    -0.000024    0.484643   -0.622157    0.474174   -0.483991    2.892546
                                           0.000000
                              0.027110     0.000030    0.093069   -0.442074    0.713597    1.213664   -1.751599
                                           1.000000
    8.1 Ag    1  1s           4.316988     1.000000
    9.1 Ag    1  1s           4.665175     1.000000
   10.1 Ag    1  3d0        226.693527     0.000015
                             73.010278     0.004108
                             38.536518     0.028223
                             18.726700     0.069323
                              9.155485     0.156045
                              4.540884     0.251238
                              2.241175     0.297463
                              1.085869     0.274981
                              0.510612     0.193098
                              0.229608     0.086393
                              0.095781     0.014645
   11.1 Ag    1  3d2+       226.693527     0.000015
                             73.010278     0.004108
                             38.536518     0.028223
                             18.726700     0.069323
                              9.155485     0.156045
                              4.540884     0.251238
                              2.241175     0.297463
                              1.085869     0.274981
                              0.510612     0.193098
                              0.229608     0.086393
                              0.095781     0.014645
   12.1 Ag    1  3d0        226.693527    -0.000013
                             73.010278    -0.005252
                             38.536518    -0.034982
                             18.726700    -0.088950
                              9.155485    -0.207194
                              4.540884    -0.302597
                              2.241175    -0.179327
                              1.085869     0.169069
                              0.510612     0.405904
                              0.229608     0.341871
                              0.095781     0.117080
   13.1 Ag    1  3d2+       226.693527    -0.000013
                             73.010278    -0.005252
                             38.536518    -0.034982
                             18.726700    -0.088950
                              9.155485    -0.207194
                              4.540884    -0.302597
                              2.241175    -0.179327
                              1.085869     0.169069
                              0.510612     0.405904
                              0.229608     0.341871
                              0.095781     0.117080
   14.1 Ag    1  3d0        226.693527     0.000016
                             73.010278     0.006157
                             38.536518     0.040361
                             18.726700     0.106038
                              9.155485     0.263299
                              4.540884     0.288496
                              2.241175    -0.186745
                              1.085869    -0.591539
                              0.510612    -0.138681
                              0.229608     0.547749
                              0.095781     0.362353
   15.1 Ag    1  3d2+       226.693527     0.000016
                             73.010278     0.006157
                             38.536518     0.040361
                             18.726700     0.106038
                              9.155485     0.263299
                              4.540884     0.288496
                              2.241175    -0.186745
                              1.085869    -0.591539
                              0.510612    -0.138681
                              0.229608     0.547749
                              0.095781     0.362353
   16.1 Ag    1  3d0        226.693527    -0.000072
                             73.010278    -0.008703
                             38.536518    -0.060594
                             18.726700    -0.160221
                              9.155485    -0.457495
                              4.540884    -0.087607
                              2.241175     0.953056
                              1.085869     0.025185
                              0.510612    -0.984637
                              0.229608     0.258442
                              0.095781     0.525113
   17.1 Ag    1  3d2+       226.693527    -0.000072
                             73.010278    -0.008703
                             38.536518    -0.060594
                             18.726700    -0.160221
                              9.155485    -0.457495
                              4.540884    -0.087607
                              2.241175     0.953056
                              1.085869     0.025185
                              0.510612    -0.984637
                              0.229608     0.258442
                              0.095781     0.525113
   18.1 Ag    1  3d0        226.693527     0.000049
                             73.010278     0.011895
                             38.536518     0.075425
                             18.726700     0.238026
                              9.155485     0.661031
                              4.540884    -0.978540
                              2.241175    -0.559968
                              1.085869     1.693942
                              0.510612    -0.915958
                              0.229608    -0.493611
                              0.095781     0.766417
   19.1 Ag    1  3d2+       226.693527     0.000049
                             73.010278     0.011895
                             38.536518     0.075425
                             18.726700     0.238026
                              9.155485     0.661031
                              4.540884    -0.978540
                              2.241175    -0.559968
                              1.085869     1.693942
                              0.510612    -0.915958
                              0.229608    -0.493611
                              0.095781     0.766417
   20.1 Ag    1  3d0        226.693527     0.000000
                             73.010278     0.000000
                             38.536518     0.000000
                             18.726700     0.000000
                              9.155485     0.000000
                              4.540884     0.000000
                              2.241175     0.000000
                              1.085869     0.000000
                              0.510612     0.000000
                              0.229608     0.000000
                              0.095781     1.000000
   21.1 Ag    1  3d2+       226.693527     0.000000
                             73.010278     0.000000
                             38.536518     0.000000
                             18.726700     0.000000
                              9.155485     0.000000
                              4.540884     0.000000
                              2.241175     0.000000
                              1.085869     0.000000
                              0.510612     0.000000
                              0.229608     0.000000
                              0.095781     1.000000
   22.1 Ag    1  3d0          7.457725     1.000000
   23.1 Ag    1  3d2+         7.457725     1.000000
   24.1 Ag    1  3d0          6.897553     1.000000
   25.1 Ag    1  3d2+         6.897553     1.000000
   26.1 Ag    1  5g0          1.106138     1.000000
   27.1 Ag    1  5g4+         1.106138     1.000000
   28.1 Ag    1  5g2+         1.106138     1.000000
   29.1 Ag    1  5g0          3.158997     1.000000
   30.1 Ag    1  5g4+         3.158997     1.000000
   31.1 Ag    1  5g2+         3.158997     1.000000
   32.1 Ag    1  5g0          9.021717     1.000000
   33.1 Ag    1  5g4+         9.021717     1.000000
   34.1 Ag    1  5g2+         9.021717     1.000000
   35.1 Ag    1  5g0          6.697349     1.000000
   36.1 Ag    1  5g4+         6.697349     1.000000
   37.1 Ag    1  5g2+         6.697349     1.000000
   38.1 Ag    1  7i6+         4.948534     1.000000
   39.1 Ag    1  7i4+         4.948534     1.000000
   40.1 Ag    1  7i2+         4.948534     1.000000
   41.1 Ag    1  7i0          4.948534     1.000000
   42.1 Ag    1  7i6+         9.924175     1.000000
   43.1 Ag    1  7i4+         9.924175     1.000000
   44.1 Ag    1  7i2+         9.924175     1.000000
   45.1 Ag    1  7i0          9.924175     1.000000
    1.2 B3u   1  2px        159.152840     0.000026    0.000034   -0.000228   -0.000412    0.000329   -0.000663
                                           0.000000
    2.2 B3u                  83.322776    -0.000402   -0.000129    0.001414    0.001957   -0.001565    0.003514
                                           0.000000
    3.2 B3u                  44.840311     0.007405   -0.000802   -0.010290    0.000640   -0.003369   -0.003041
                                           0.000000
    4.2 B3u                  25.020360    -0.030714    0.004747    0.043896   -0.036753    0.087903   -0.162097
                                           0.000000
    5.2 B3u                  13.610016    -0.074348    0.018595    0.052865   -0.147193    0.221327   -0.299310
                                           0.000000
    6.2 B3u                   7.761318     0.043430   -0.017692   -0.056565    0.297782   -0.924006    2.771382
                                           0.000000
    7.2 B3u                   4.303947     0.289703   -0.052614   -0.480715    0.705271   -1.007316   -2.296104
                                           0.000000
                              2.290080     0.413467   -0.110349   -0.315984    0.196466    2.324312   -2.158802
                                           0.000000
                              1.202173     0.303762   -0.054701    0.075679   -1.659406    0.001191    5.405210
                                           0.000000
                              0.607647     0.093494   -0.026655    1.060747    0.391500   -2.329745   -4.521273
                                           0.000000
                              0.257656     0.006663    0.335880   -0.008061    1.243284    2.059599    1.934831
                                           0.000000
                              0.090897     0.000567    0.509478   -0.701601   -0.957529   -0.706620   -0.165914
                                           0.000000
                              0.041925     0.000176    0.302559    0.006941   -0.056091   -0.184797   -0.422784
                                           1.000000
    8.2 B3u   1  2px          4.677219     1.000000
    9.2 B3u   1  2px         12.829139     1.000000
   10.2 B3u   1  4f1+         0.523275     1.000000
   11.2 B3u   1  4f3+         0.523275     1.000000
   12.2 B3u   1  4f1+         1.480718     1.000000
   13.2 B3u   1  4f3+         1.480718     1.000000
   14.2 B3u   1  4f1+         4.190004     1.000000
   15.2 B3u   1  4f3+         4.190004     1.000000
   16.2 B3u   1  4f1+        11.856505     1.000000
   17.2 B3u   1  4f3+        11.856505     1.000000
   18.2 B3u   1  4f1+         5.644965     1.000000
   19.2 B3u   1  4f3+         5.644965     1.000000
   20.2 B3u   1  6h1+         2.124621     1.000000
   21.2 B3u   1  6h3+         2.124621     1.000000
   22.2 B3u   1  6h5+         2.124621     1.000000
   23.2 B3u   1  6h1+         6.632584     1.000000
   24.2 B3u   1  6h3+         6.632584     1.000000
   25.2 B3u   1  6h5+         6.632584     1.000000
   26.2 B3u   1  6h1+         8.903307     1.000000
   27.2 B3u   1  6h3+         8.903307     1.000000
   28.2 B3u   1  6h5+         8.903307     1.000000
    1.3 B2u   1  2py        159.152840     0.000026    0.000034   -0.000228   -0.000412    0.000329   -0.000663
                                           0.000000
    2.3 B2u                  83.322776    -0.000402   -0.000129    0.001414    0.001957   -0.001565    0.003514
                                           0.000000
    3.3 B2u                  44.840311     0.007405   -0.000802   -0.010290    0.000640   -0.003369   -0.003041
                                           0.000000
    4.3 B2u                  25.020360    -0.030714    0.004747    0.043896   -0.036753    0.087903   -0.162097
                                           0.000000
    5.3 B2u                  13.610016    -0.074348    0.018595    0.052865   -0.147193    0.221327   -0.299310
                                           0.000000
    6.3 B2u                   7.761318     0.043430   -0.017692   -0.056565    0.297782   -0.924006    2.771382
                                           0.000000
    7.3 B2u                   4.303947     0.289703   -0.052614   -0.480715    0.705271   -1.007316   -2.296104
                                           0.000000
                              2.290080     0.413467   -0.110349   -0.315984    0.196466    2.324312   -2.158802
                                           0.000000
                              1.202173     0.303762   -0.054701    0.075679   -1.659406    0.001191    5.405210
                                           0.000000
                              0.607647     0.093494   -0.026655    1.060747    0.391500   -2.329745   -4.521273
                                           0.000000
                              0.257656     0.006663    0.335880   -0.008061    1.243284    2.059599    1.934831
                                           0.000000
                              0.090897     0.000567    0.509478   -0.701601   -0.957529   -0.706620   -0.165914
                                           0.000000
                              0.041925     0.000176    0.302559    0.006941   -0.056091   -0.184797   -0.422784
                                           1.000000
    8.3 B2u   1  2py          4.677219     1.000000
    9.3 B2u   1  2py         12.829139     1.000000
   10.3 B2u   1  4f1-         0.523275     1.000000
   11.3 B2u   1  4f3-         0.523275     1.000000
   12.3 B2u   1  4f1-         1.480718     1.000000
   13.3 B2u   1  4f3-         1.480718     1.000000
   14.3 B2u   1  4f1-         4.190004     1.000000
   15.3 B2u   1  4f3-         4.190004     1.000000
   16.3 B2u   1  4f1-        11.856505     1.000000
   17.3 B2u   1  4f3-        11.856505     1.000000
   18.3 B2u   1  4f1-         5.644965     1.000000
   19.3 B2u   1  4f3-         5.644965     1.000000
   20.3 B2u   1  6h1-         2.124621     1.000000
   21.3 B2u   1  6h3-         2.124621     1.000000
   22.3 B2u   1  6h5-         2.124621     1.000000
   23.3 B2u   1  6h1-         6.632584     1.000000
   24.3 B2u   1  6h3-         6.632584     1.000000
   25.3 B2u   1  6h5-         6.632584     1.000000
   26.3 B2u   1  6h1-         8.903307     1.000000
   27.3 B2u   1  6h3-         8.903307     1.000000
   28.3 B2u   1  6h5-         8.903307     1.000000
    1.4 B1g   1  3d2-       226.693527     0.000015   -0.000013    0.000016   -0.000072    0.000049    0.000000
    2.4 B1g                  73.010278     0.004108   -0.005252    0.006157   -0.008703    0.011895    0.000000
    3.4 B1g                  38.536518     0.028223   -0.034982    0.040361   -0.060594    0.075425    0.000000
    4.4 B1g                  18.726700     0.069323   -0.088950    0.106038   -0.160221    0.238026    0.000000
    5.4 B1g                   9.155485     0.156045   -0.207194    0.263299   -0.457495    0.661031    0.000000
    6.4 B1g                   4.540884     0.251238   -0.302597    0.288496   -0.087607   -0.978540    0.000000
                              2.241175     0.297463   -0.179327   -0.186745    0.953056   -0.559968    0.000000
                              1.085869     0.274981    0.169069   -0.591539    0.025185    1.693942    0.000000
                              0.510612     0.193098    0.405904   -0.138681   -0.984637   -0.915958    0.000000
                              0.229608     0.086393    0.341871    0.547749    0.258442   -0.493611    0.000000
                              0.095781     0.014645    0.117080    0.362353    0.525113    0.766417    1.000000
    7.4 B1g   1  3d2-         7.457725     1.000000
    8.4 B1g   1  3d2-         6.897553     1.000000
    9.4 B1g   1  5g2-         1.106138     1.000000
   10.4 B1g   1  5g4-         1.106138     1.000000
   11.4 B1g   1  5g2-         3.158997     1.000000
   12.4 B1g   1  5g4-         3.158997     1.000000
   13.4 B1g   1  5g2-         9.021717     1.000000
   14.4 B1g   1  5g4-         9.021717     1.000000
   15.4 B1g   1  5g2-         6.697349     1.000000
   16.4 B1g   1  5g4-         6.697349     1.000000
   17.4 B1g   1  7i2-         4.948534     1.000000
   18.4 B1g   1  7i6-         4.948534     1.000000
   19.4 B1g   1  7i4-         4.948534     1.000000
   20.4 B1g   1  7i2-         9.924175     1.000000
   21.4 B1g   1  7i6-         9.924175     1.000000
   22.4 B1g   1  7i4-         9.924175     1.000000
    1.5 B1u   1  2pz        159.152840     0.000026    0.000034   -0.000228   -0.000412    0.000329   -0.000663
                                           0.000000
    2.5 B1u                  83.322776    -0.000402   -0.000129    0.001414    0.001957   -0.001565    0.003514
                                           0.000000
    3.5 B1u                  44.840311     0.007405   -0.000802   -0.010290    0.000640   -0.003369   -0.003041
                                           0.000000
    4.5 B1u                  25.020360    -0.030714    0.004747    0.043896   -0.036753    0.087903   -0.162097
                                           0.000000
    5.5 B1u                  13.610016    -0.074348    0.018595    0.052865   -0.147193    0.221327   -0.299310
                                           0.000000
    6.5 B1u                   7.761318     0.043430   -0.017692   -0.056565    0.297782   -0.924006    2.771382
                                           0.000000
    7.5 B1u                   4.303947     0.289703   -0.052614   -0.480715    0.705271   -1.007316   -2.296104
                                           0.000000
                              2.290080     0.413467   -0.110349   -0.315984    0.196466    2.324312   -2.158802
                                           0.000000
                              1.202173     0.303762   -0.054701    0.075679   -1.659406    0.001191    5.405210
                                           0.000000
                              0.607647     0.093494   -0.026655    1.060747    0.391500   -2.329745   -4.521273
                                           0.000000
                              0.257656     0.006663    0.335880   -0.008061    1.243284    2.059599    1.934831
                                           0.000000
                              0.090897     0.000567    0.509478   -0.701601   -0.957529   -0.706620   -0.165914
                                           0.000000
                              0.041925     0.000176    0.302559    0.006941   -0.056091   -0.184797   -0.422784
                                           1.000000
    8.5 B1u   1  2pz          4.677219     1.000000
    9.5 B1u   1  2pz         12.829139     1.000000
   10.5 B1u   1  4f0          0.523275     1.000000
   11.5 B1u   1  4f2+         0.523275     1.000000
   12.5 B1u   1  4f0          1.480718     1.000000
   13.5 B1u   1  4f2+         1.480718     1.000000
   14.5 B1u   1  4f0          4.190004     1.000000
   15.5 B1u   1  4f2+         4.190004     1.000000
   16.5 B1u   1  4f0         11.856505     1.000000
   17.5 B1u   1  4f2+        11.856505     1.000000
   18.5 B1u   1  4f0          5.644965     1.000000
   19.5 B1u   1  4f2+         5.644965     1.000000
   20.5 B1u   1  6h2+         2.124621     1.000000
   21.5 B1u   1  6h4+         2.124621     1.000000
   22.5 B1u   1  6h0          2.124621     1.000000
   23.5 B1u   1  6h2+         6.632584     1.000000
   24.5 B1u   1  6h4+         6.632584     1.000000
   25.5 B1u   1  6h0          6.632584     1.000000
   26.5 B1u   1  6h2+         8.903307     1.000000
   27.5 B1u   1  6h4+         8.903307     1.000000
   28.5 B1u   1  6h0          8.903307     1.000000
    1.6 B2g   1  3d1+       226.693527     0.000015   -0.000013    0.000016   -0.000072    0.000049    0.000000
    2.6 B2g                  73.010278     0.004108   -0.005252    0.006157   -0.008703    0.011895    0.000000
    3.6 B2g                  38.536518     0.028223   -0.034982    0.040361   -0.060594    0.075425    0.000000
    4.6 B2g                  18.726700     0.069323   -0.088950    0.106038   -0.160221    0.238026    0.000000
    5.6 B2g                   9.155485     0.156045   -0.207194    0.263299   -0.457495    0.661031    0.000000
    6.6 B2g                   4.540884     0.251238   -0.302597    0.288496   -0.087607   -0.978540    0.000000
                              2.241175     0.297463   -0.179327   -0.186745    0.953056   -0.559968    0.000000
                              1.085869     0.274981    0.169069   -0.591539    0.025185    1.693942    0.000000
                              0.510612     0.193098    0.405904   -0.138681   -0.984637   -0.915958    0.000000
                              0.229608     0.086393    0.341871    0.547749    0.258442   -0.493611    0.000000
                              0.095781     0.014645    0.117080    0.362353    0.525113    0.766417    1.000000
    7.6 B2g   1  3d1+         7.457725     1.000000
    8.6 B2g   1  3d1+         6.897553     1.000000
    9.6 B2g   1  5g1+         1.106138     1.000000
   10.6 B2g   1  5g3+         1.106138     1.000000
   11.6 B2g   1  5g1+         3.158997     1.000000
   12.6 B2g   1  5g3+         3.158997     1.000000
   13.6 B2g   1  5g1+         9.021717     1.000000
   14.6 B2g   1  5g3+         9.021717     1.000000
   15.6 B2g   1  5g1+         6.697349     1.000000
   16.6 B2g   1  5g3+         6.697349     1.000000
   17.6 B2g   1  7i5+         4.948534     1.000000
   18.6 B2g   1  7i3+         4.948534     1.000000
   19.6 B2g   1  7i1+         4.948534     1.000000
   20.6 B2g   1  7i5+         9.924175     1.000000
   21.6 B2g   1  7i3+         9.924175     1.000000
   22.6 B2g   1  7i1+         9.924175     1.000000
    1.7 B3g   1  3d1-       226.693527     0.000015   -0.000013    0.000016   -0.000072    0.000049    0.000000
    2.7 B3g                  73.010278     0.004108   -0.005252    0.006157   -0.008703    0.011895    0.000000
    3.7 B3g                  38.536518     0.028223   -0.034982    0.040361   -0.060594    0.075425    0.000000
    4.7 B3g                  18.726700     0.069323   -0.088950    0.106038   -0.160221    0.238026    0.000000
    5.7 B3g                   9.155485     0.156045   -0.207194    0.263299   -0.457495    0.661031    0.000000
    6.7 B3g                   4.540884     0.251238   -0.302597    0.288496   -0.087607   -0.978540    0.000000
                              2.241175     0.297463   -0.179327   -0.186745    0.953056   -0.559968    0.000000
                              1.085869     0.274981    0.169069   -0.591539    0.025185    1.693942    0.000000
                              0.510612     0.193098    0.405904   -0.138681   -0.984637   -0.915958    0.000000
                              0.229608     0.086393    0.341871    0.547749    0.258442   -0.493611    0.000000
                              0.095781     0.014645    0.117080    0.362353    0.525113    0.766417    1.000000
    7.7 B3g   1  3d1-         7.457725     1.000000
    8.7 B3g   1  3d1-         6.897553     1.000000
    9.7 B3g   1  5g1-         1.106138     1.000000
   10.7 B3g   1  5g3-         1.106138     1.000000
   11.7 B3g   1  5g1-         3.158997     1.000000
   12.7 B3g   1  5g3-         3.158997     1.000000
   13.7 B3g   1  5g1-         9.021717     1.000000
   14.7 B3g   1  5g3-         9.021717     1.000000
   15.7 B3g   1  5g1-         6.697349     1.000000
   16.7 B3g   1  5g3-         6.697349     1.000000
   17.7 B3g   1  7i5-         4.948534     1.000000
   18.7 B3g   1  7i3-         4.948534     1.000000
   19.7 B3g   1  7i1-         4.948534     1.000000
   20.7 B3g   1  7i5-         9.924175     1.000000
   21.7 B3g   1  7i3-         9.924175     1.000000
   22.7 B3g   1  7i1-         9.924175     1.000000
    1.8 Au    1  4f2-         0.523275     1.000000
    2.8 Au    1  4f2-         1.480718     1.000000
    3.8 Au    1  4f2-         4.190004     1.000000
    4.8 Au    1  4f2-        11.856505     1.000000
    5.8 Au    1  4f2-         5.644965     1.000000
    6.8 Au    1  6h4-         2.124621     1.000000
    7.8 Au    1  6h2-         2.124621     1.000000
    8.8 Au    1  6h4-         6.632584     1.000000
    9.8 Au    1  6h2-         6.632584     1.000000
   10.8 Au    1  6h4-         8.903307     1.000000
   11.8 Au    1  6h2-         8.903307     1.000000

 NUCLEAR CHARGE:                   19
 NUMBER OF PRIMITIVE AOS:         367
 NUMBER OF SYMMETRY AOS:          255
 NUMBER OF CONTRACTIONS:          206   (  45Ag  +  28B3u +  28B2u +  22B1g +  28B1u +  22B2g +  22B3g +  11Au  )
 NUMBER OF CORE ORBITALS:           4   (   1Ag  +   1B3u +   1B2u +   0B1g +   1B1u +   0B2g +   0B3g +   0Au  )
 NUMBER OF VALENCE ORBITALS:        6   (   3Ag  +   0B3u +   0B2u +   1B1g +   0B1u +   1B2g +   1B3g +   0Au  )


 NUCLEAR REPULSION ENERGY    0.00000000

 EXTRA SYMMETRY OF AOS IN SYMMETRY 1:   1 1 1 1 1 1 1 1 1 2   3 2 3 2 3 2 3 2 3 2   3 2 3 2 3 4 5 6 4 5   6 4 5 6 4 5 6 7 8 9
                                       10 7 8 910
 EXTRA SYMMETRY OF AOS IN SYMMETRY 2:   1 1 1 1 1 1 1 1 1 2   3 2 3 2 3 2 3 2 3 4   5 6 4 5 6 4 5 6
 EXTRA SYMMETRY OF AOS IN SYMMETRY 3:   1 1 1 1 1 1 1 1 1 2   3 2 3 2 3 2 3 2 3 4   5 6 4 5 6 4 5 6
 EXTRA SYMMETRY OF AOS IN SYMMETRY 4:   1 1 1 1 1 1 1 1 2 3   2 3 2 3 2 3 4 5 6 4   5 6
 EXTRA SYMMETRY OF AOS IN SYMMETRY 5:   1 1 1 1 1 1 1 1 1 2   3 2 3 2 3 2 3 2 3 4   5 6 4 5 6 4 5 6
 EXTRA SYMMETRY OF AOS IN SYMMETRY 6:   1 1 1 1 1 1 1 1 2 3   2 3 2 3 2 3 4 5 6 4   5 6
 EXTRA SYMMETRY OF AOS IN SYMMETRY 7:   1 1 1 1 1 1 1 1 2 3   2 3 2 3 2 3 4 5 6 4   5 6
 EXTRA SYMMETRY OF AOS IN SYMMETRY 8:   1 1 1 1 1 2 3 2 3 2   3

 Eigenvalues of metric

         1 0.861E-05 0.195E-03 0.195E-03 0.117E-02 0.130E-01 0.130E-01 0.231E-01 0.231E-01
         2 0.361E-03 0.101E-01 0.101E-01 0.445E-01 0.540E-01 0.540E-01 0.540E-01 0.134E+00
         3 0.361E-03 0.101E-01 0.101E-01 0.445E-01 0.540E-01 0.540E-01 0.540E-01 0.134E+00
         4 0.195E-03 0.130E-01 0.231E-01 0.231E-01 0.304E-01 0.352E+00 0.352E+00 0.359E+00
         5 0.361E-03 0.101E-01 0.101E-01 0.445E-01 0.540E-01 0.540E-01 0.540E-01 0.134E+00
         6 0.195E-03 0.130E-01 0.231E-01 0.231E-01 0.304E-01 0.352E+00 0.352E+00 0.359E+00
         7 0.195E-03 0.130E-01 0.231E-01 0.231E-01 0.304E-01 0.352E+00 0.352E+00 0.359E+00
         8 0.101E-01 0.540E-01 0.540E-01 0.244E+00 0.558E+00 0.858E+00 0.858E+00 0.138E+01


 Contracted 2-electron integrals neglected if value below      1.0D-12
 AO integral compression algorithm  1   Integral accuracy      1.0D-12

     183.501 MB (compressed) written to integral file ( 51.6%)


 NUMBER OF SORTED TWO-ELECTRON INTEGRALS:   29098917.     BUFFER LENGTH:  32768
 NUMBER OF SEGMENTS:   2  SEGMENT LENGTH:   15999969      RECORD LENGTH: 524288

 Memory used in sort:      16.56 MW

 SORT1 READ    44478058. AND WROTE    18923596. INTEGRALS IN     55 RECORDS. CPU TIME:     1.58 SEC, REAL TIME:     2.12 SEC
 SORT2 READ    18923596. AND WROTE    29098917. INTEGRALS IN    700 RECORDS. CPU TIME:     0.87 SEC, REAL TIME:     1.60 SEC

 FILE SIZES:   FILE 1:   203.6 MBYTE,  FILE 4:   230.7 MBYTE,   TOTAL:    434.3 MBYTE

 OPERATOR DM      FOR CENTER  0  COORDINATES:    0.000000    0.000000    0.000000
 OPERATOR EKIN    FOR CENTER  0  COORDINATES:    0.000000    0.000000    0.000000
 OPERATOR POT     FOR CENTER  0  COORDINATES:    0.000000    0.000000    0.000000


 **********************************************************************************************************************************
 DATASETS  * FILE   NREC   LENGTH (MB)   RECORD NAMES
              1      20      137.66       500      610      700      900      950      970     1000      129      960     1100   
                                          VAR    BASINP    GEOM    SYMINP    ZMAT    AOBASIS   BASIS     P2S    ABASIS      S 
                                         1400     1410     1420     1200     1210     1080     1600     1650     1300     1700   
                                         EKIN       V       ECP      H0       H01     AOSYM     SMH    MOLCAS    ERIS     OPER   

 PROGRAMS   *        TOTAL       INT
 CPU TIMES  *        13.64     13.52
 REAL TIME  *        17.51 SEC
 DISK USED  *       434.65 MB      
 **********************************************************************************************************************************


 PROGRAM * RHF-SCF (OPEN SHELL)       Authors: W. Meyer, H.-J. Werner


 NUMBER OF ELECTRONS:      10+    9-    SPACE SYMMETRY=1    SPIN SYMMETRY: Doublet 
 CONVERGENCE THRESHOLDS:    1.00E-05 (Density)    1.00E-07 (Energy)
 MAX. NUMBER OF ITERATIONS:       60
 INTERPOLATION TYPE:            DIIS
 INTERPOLATION STEPS:              2 (START)      1 (STEP)
 LEVEL SHIFTS:                 -0.60 (CLOSED) -0.30 (OPEN) 


 Singly occupied orbitals:      4.1
 
 Extra symmetries of mos in symmetry 1:   1   3   2   1

   Atom=CU basis=cc-pVTZ-PP        lmin=0  lmax=2

 Orbital guess generated from atomic densities. Full valence occupancy:    4   1   1   1   1   1   1   0


 Molecular orbital dump at record        4202.2

 ITERATION    DDIFF          GRAD             ENERGY        2-EL.EN.            DIPOLE MOMENTS         DIIS   ORB.
    1      0.000D+00      0.000D+00      -195.20886860    307.244188    0.00000    0.00000    0.00000    0    start
    2      0.000D+00      0.385D-01      -195.24774062    326.859545    0.00000    0.00000    0.00000    1    diag,B
    3      0.762D-02      0.371D-01      -195.33578373    319.133104    0.00000    0.00000    0.00000    2    diag,B
    4      0.290D-02      0.272D-02      -195.33689526    318.900259    0.00000    0.00000    0.00000    3    diag,B
    5      0.148D-02      0.466D-03      -195.33725736    319.052768    0.00000    0.00000    0.00000    4    diag,B
    6      0.184D-02      0.160D-03      -195.33737290    319.144560    0.00000    0.00000    0.00000    5    diag,B
    7      0.171D-02      0.683D-04      -195.33739801    319.182081    0.00000    0.00000    0.00000    6    fixocc
    8      0.106D-02      0.253D-04      -195.33740081    319.195464    0.00000    0.00000    0.00000    7    diag,B
    9      0.382D-03      0.358D-05      -195.33740083    319.196272    0.00000    0.00000    0.00000    8    diag,B
   10      0.157D-04      0.466D-06      -195.33740083    319.196353    0.00000    0.00000    0.00000    9    orth
   11      0.104D-04      0.142D-06      -195.33740083    319.196353    0.00000    0.00000    0.00000    9    diag,B
   12      0.339D-05      0.239D-07      -195.33740083    319.196348    0.00000    0.00000    0.00000    0    orth

 Final alpha occupancy:   4   1   1   1   1   1   1   0
 Final beta  occupancy:   3   1   1   1   1   1   1   0

 !RHF STATE 1.1 Energy               -195.337400834389
 Nuclear energy                         0.00000000
 One-electron energy                 -354.93557502
 Two-electron energy                  159.59817418
 Virial quotient                       -1.50195714
 !RHF STATE 1.1 Dipole moment           0.00000000     0.00000000     0.00000000
 Dipole moment /Debye                   0.00000000     0.00000000     0.00000000
 

 !RHF expec          <1.1|EKIN|1.1>   130.055242864049
 
 !RHF expec           <1.1|POT|1.1>   -26.460507040672

 ELECTRON ORBITALS
 =================


   Orb  Occ    Energy  Couls-En    Coefficients

                                   1 1s      1 1s      1 1s      1 1s      1 1s      1 1s      1 1s      1 1s      1 1s      1 3d0  
                                   1 3d2+    1 3d0     1 3d2+    1 3d0     1 3d2+    1 3d0     1 3d2+    1 3d0     1 3d2+    1 3d0  
                                   1 3d2+    1 3d0     1 3d2+    1 3d0     1 3d2+    1 5g0     1 5g4+    1 5g2+    1 5g0     1 5g4+ 
                                   1 5g2+    1 5g0     1 5g4+    1 5g2+    1 5g0     1 5g4+    1 5g2+    1 7i6+    1 7i4+    1 7i2+ 
                                   1 7i0     1 7i6+    1 7i4+    1 7i2+    1 7i0  

   1.1   2    -5.2081  -28.7580  0.999447  0.002923  0.006730  0.002595 -0.000681  0.000660  0.002729  0.002250 -0.002195 -0.000000
                                 0.000000 -0.000000 -0.000000 -0.000000 -0.000000 -0.000000 -0.000000 -0.000000 -0.000000  0.000000
                                 0.000000  0.000000  0.000000 -0.000000 -0.000000  0.000000  0.000000  0.000000 -0.000000 -0.000000
                                -0.000000 -0.000000 -0.000000 -0.000000  0.000000  0.000000  0.000000 -0.000000  0.000000 -0.000000
                                 0.000000  0.000000 -0.000000  0.000000 -0.000000

   2.1   2    -0.4810  -17.6805  0.000000  0.000000 -0.000000  0.000000  0.000000 -0.000000 -0.000000 -0.000000  0.000000  0.000152
                                 0.998944  0.000008  0.051301  0.000003  0.022844  0.000000  0.003161  0.000000  0.000117  0.000000
                                 0.001139  0.000000  0.000276 -0.000000 -0.000252 -0.000000  0.000000 -0.000000  0.000000 -0.000000
                                -0.000000 -0.000000  0.000000 -0.000000  0.000000 -0.000000  0.000000  0.000000  0.000000  0.000000
                                -0.000000 -0.000000 -0.000000  0.000000  0.000000

   3.1   2    -0.4810  -17.6805  0.000000  0.000000 -0.000000  0.000000  0.000000 -0.000000 -0.000000 -0.000000  0.000000  0.998944
                                -0.000152  0.051301 -0.000008  0.022844 -0.000003  0.003161 -0.000000  0.000117 -0.000000  0.001139
                                -0.000000  0.000276 -0.000000 -0.000252  0.000000  0.000000  0.000000  0.000000 -0.000000 -0.000000
                                 0.000000 -0.000000 -0.000000  0.000000  0.000000  0.000000 -0.000000  0.000000  0.000000 -0.000000
                                 0.000000 -0.000000 -0.000000  0.000000  0.000000

   4.1   +    -0.2447   -7.0158 -0.007753  0.964682 -0.109050  0.028744  0.006302 -0.001328  0.031543 -0.017917  0.016262 -0.000000
                                 0.000000 -0.000000  0.000000 -0.000000  0.000000 -0.000000  0.000000 -0.000000  0.000000  0.000000
                                -0.000000  0.000000 -0.000000 -0.000000  0.000000  0.000000  0.000000 -0.000000 -0.000000 -0.000000
                                 0.000000 -0.000000 -0.000000  0.000000  0.000000  0.000000 -0.000000 -0.000000  0.000000  0.000000
                                -0.000000  0.000000  0.000000 -0.000000  0.000000

   5.1   0     0.0769   -2.9937 -0.771118 -4.174369  1.686499 -0.887732 -0.352425  0.103436  5.028579  1.127694 -1.179879  0.000000
                                 0.000000  0.000000  0.000000  0.000000  0.000000  0.000000  0.000000  0.000000  0.000000 -0.000000
                                -0.000000 -0.000000 -0.000000  0.000000  0.000000 -0.000000 -0.000000 -0.000000  0.000000  0.000000
                                 0.000000  0.000000  0.000000  0.000000 -0.000000 -0.000000 -0.000000  0.000000 -0.000000 -0.000000
                                 0.000000 -0.000000 -0.000000  0.000000 -0.000000

   6.1   0     0.2731   -4.0536  0.000000  0.000000 -0.000000  0.000000  0.000000 -0.000000 -0.000000 -0.000000  0.000000 -0.314655
                                 0.005181 -0.535884  0.008824 -0.508388  0.008371 -0.254128  0.004185 -0.125043  0.002059  1.750704
                                -0.028828  0.444488 -0.007319 -0.523646  0.008623 -0.000000 -0.000000 -0.000000  0.000000  0.000000
                                 0.000000  0.000000  0.000000  0.000000 -0.000000 -0.000000 -0.000000  0.000000 -0.000000  0.000000
                                 0.000000 -0.000000  0.000000 -0.000000  0.000000

                                   1 2px     1 2px     1 2px     1 2px     1 2px     1 2px     1 2px     1 2px     1 2px     1 4f1+ 
                                   1 4f3+    1 4f1+    1 4f3+    1 4f1+    1 4f3+    1 4f1+    1 4f3+    1 4f1+    1 4f3+    1 6h1+ 
                                   1 6h3+    1 6h5+    1 6h1+    1 6h3+    1 6h5+    1 6h1+    1 6h3+    1 6h5+ 

   1.2   2    -3.3780  -24.8897  0.998952  0.025031  0.020340 -0.000288 -0.001319  0.000051 -0.008038  0.001975 -0.000405 -0.000000
                                 0.000000  0.000000 -0.000000 -0.000000  0.000000 -0.000000  0.000000  0.000000 -0.000000  0.000000
                                -0.000000 -0.000000 -0.000000  0.000000  0.000000  0.000000 -0.000000 -0.000000

   2.2   0     0.0494   -3.9699 -0.168147 -0.090696  0.132570  0.057092  0.054423  0.022036  1.178404  0.121908 -0.027850  0.000000
                                -0.000000 -0.000000  0.000000  0.000000 -0.000000  0.000000 -0.000000 -0.000000  0.000000 -0.000000
                                 0.000000  0.000000  0.000000  0.000000  0.000000 -0.000000 -0.000000 -0.000000

   3.2   0     0.2299   -4.5977  0.526118  2.236454 -0.719760 -0.311207 -0.251585 -0.099241 -2.407835 -0.534850  0.120513 -0.000000
                                 0.000000  0.000000 -0.000000 -0.000000  0.000000 -0.000000 -0.000000  0.000000 -0.000000  0.000000
                                -0.000000 -0.000000 -0.000000  0.000000  0.000000  0.000000 -0.000000 -0.000000

                                   1 2py     1 2py     1 2py     1 2py     1 2py     1 2py     1 2py     1 2py     1 2py     1 4f1- 
                                   1 4f3-    1 4f1-    1 4f3-    1 4f1-    1 4f3-    1 4f1-    1 4f3-    1 4f1-    1 4f3-    1 6h1- 
                                   1 6h3-    1 6h5-    1 6h1-    1 6h3-    1 6h5-    1 6h1-    1 6h3-    1 6h5- 

   1.3   2    -3.3780  -24.8897  0.998952  0.025031  0.020340 -0.000288 -0.001319  0.000051 -0.008038  0.001975 -0.000405 -0.000000
                                -0.000000  0.000000  0.000000 -0.000000 -0.000000 -0.000000 -0.000000  0.000000  0.000000  0.000000
                                 0.000000 -0.000000 -0.000000 -0.000000  0.000000  0.000000  0.000000 -0.000000

   2.3   0     0.0494   -3.9699 -0.168147 -0.090696  0.132570  0.057092  0.054423  0.022036  1.178404  0.121908 -0.027850  0.000000
                                 0.000000 -0.000000 -0.000000  0.000000  0.000000  0.000000  0.000000 -0.000000 -0.000000 -0.000000
                                -0.000000  0.000000  0.000000 -0.000000 -0.000000 -0.000000  0.000000  0.000000

   3.3   0     0.2299   -4.5977  0.526118  2.236454 -0.719760 -0.311207 -0.251585 -0.099241 -2.407835 -0.534850  0.120513 -0.000000
                                -0.000000  0.000000  0.000000 -0.000000 -0.000000 -0.000000 -0.000000  0.000000  0.000000  0.000000
                                 0.000000 -0.000000 -0.000000 -0.000000 -0.000000  0.000000  0.000000  0.000000

                                   1 3d2-    1 3d2-    1 3d2-    1 3d2-    1 3d2-    1 3d2-    1 3d2-    1 3d2-    1 5g2-    1 5g4- 
                                   1 5g2-    1 5g4-    1 5g2-    1 5g4-    1 5g2-    1 5g4-    1 7i2-    1 7i6-    1 7i4-    1 7i2- 
                                   1 7i6-    1 7i4- 

   1.4   2    -0.4810  -17.6805  0.998944  0.051301  0.022844  0.003161  0.000117  0.001139  0.000276 -0.000252 -0.000000 -0.000000
                                -0.000000  0.000000 -0.000000  0.000000  0.000000 -0.000000  0.000000 -0.000000 -0.000000  0.000000
                                 0.000000  0.000000

   2.4   0     0.2731   -4.0536 -0.314698 -0.535957 -0.508457 -0.254163 -0.125060  1.750941  0.444549 -0.523717  0.000000  0.000000
                                -0.000000 -0.000000 -0.000000 -0.000000  0.000000  0.000000 -0.000000  0.000000 -0.000000  0.000000
                                -0.000000  0.000000

   3.4   0     0.9133   -5.6305  0.332586  2.278210  2.103153  0.998911  0.454721 -2.913573 -1.514317  1.791807 -0.000000 -0.000000
                                -0.000000  0.000000 -0.000000  0.000000  0.000000 -0.000000  0.000000 -0.000000  0.000000 -0.000000
                                 0.000000 -0.000000

                                   1 2pz     1 2pz     1 2pz     1 2pz     1 2pz     1 2pz     1 2pz     1 2pz     1 2pz     1 4f0  
                                   1 4f2+    1 4f0     1 4f2+    1 4f0     1 4f2+    1 4f0     1 4f2+    1 4f0     1 4f2+    1 6h2+ 
                                   1 6h4+    1 6h0     1 6h2+    1 6h4+    1 6h0     1 6h2+    1 6h4+    1 6h0  

   1.5   2    -3.3780  -24.8897  0.998952  0.025031  0.020340 -0.000288 -0.001319  0.000051 -0.008038  0.001975 -0.000405  0.000000
                                -0.000000 -0.000000  0.000000  0.000000 -0.000000  0.000000 -0.000000 -0.000000  0.000000 -0.000000
                                -0.000000  0.000000  0.000000 -0.000000 -0.000000 -0.000000  0.000000  0.000000

   2.5   0     0.0494   -3.9699 -0.168147 -0.090696  0.132570  0.057092  0.054423  0.022036  1.178404  0.121908 -0.027850  0.000000
                                -0.000000 -0.000000  0.000000  0.000000 -0.000000  0.000000  0.000000  0.000000 -0.000000 -0.000000
                                 0.000000 -0.000000  0.000000  0.000000  0.000000 -0.000000 -0.000000 -0.000000

   3.5   0     0.2299   -4.5977  0.526118  2.236454 -0.719760 -0.311207 -0.251585 -0.099241 -2.407835 -0.534850  0.120513  0.000000
                                 0.000000 -0.000000 -0.000000  0.000000  0.000000 -0.000000  0.000000 -0.000000 -0.000000  0.000000
                                 0.000000 -0.000000  0.000000 -0.000000 -0.000000  0.000000  0.000000  0.000000

                                   1 3d1+    1 3d1+    1 3d1+    1 3d1+    1 3d1+    1 3d1+    1 3d1+    1 3d1+    1 5g1+    1 5g3+ 
                                   1 5g1+    1 5g3+    1 5g1+    1 5g3+    1 5g1+    1 5g3+    1 7i5+    1 7i3+    1 7i1+    1 7i5+ 
                                   1 7i3+    1 7i1+ 

   1.6   2    -0.4810  -17.6805  0.998944  0.051301  0.022844  0.003161  0.000117  0.001139  0.000276 -0.000252 -0.000000 -0.000000
                                -0.000000 -0.000000 -0.000000 -0.000000  0.000000  0.000000  0.000000  0.000000  0.000000  0.000000
                                -0.000000 -0.000000

   2.6   0     0.2731   -4.0536 -0.314698 -0.535957 -0.508457 -0.254163 -0.125060  1.750941  0.444549 -0.523717 -0.000000  0.000000
                                 0.000000 -0.000000  0.000000 -0.000000 -0.000000  0.000000 -0.000000  0.000000  0.000000  0.000000
                                -0.000000 -0.000000

   3.6   0     0.9133   -5.6305  0.332586  2.278210  2.103153  0.998911  0.454721 -2.913573 -1.514317  1.791807  0.000000 -0.000000
                                -0.000000  0.000000 -0.000000  0.000000  0.000000 -0.000000  0.000000 -0.000000 -0.000000 -0.000000
                                 0.000000 -0.000000

                                   1 3d1-    1 3d1-    1 3d1-    1 3d1-    1 3d1-    1 3d1-    1 3d1-    1 3d1-    1 5g1-    1 5g3- 
                                   1 5g1-    1 5g3-    1 5g1-    1 5g3-    1 5g1-    1 5g3-    1 7i5-    1 7i3-    1 7i1-    1 7i5- 
                                   1 7i3-    1 7i1- 

   1.7   2    -0.4810  -17.6805  0.998944  0.051301  0.022844  0.003161  0.000117  0.001139  0.000276 -0.000252 -0.000000  0.000000
                                -0.000000  0.000000 -0.000000  0.000000  0.000000 -0.000000 -0.000000 -0.000000  0.000000  0.000000
                                 0.000000 -0.000000

   2.7   0     0.2731   -4.0536 -0.314698 -0.535957 -0.508457 -0.254163 -0.125060  1.750941  0.444549 -0.523717 -0.000000 -0.000000
                                 0.000000  0.000000  0.000000  0.000000 -0.000000 -0.000000 -0.000000 -0.000000  0.000000  0.000000
                                 0.000000 -0.000000

   3.7   0     0.9133   -5.6305  0.332586  2.278210  2.103153  0.998911  0.454721 -2.913573 -1.514317  1.791807  0.000000  0.000000
                                -0.000000 -0.000000 -0.000000 -0.000000  0.000000  0.000000  0.000000  0.000000 -0.000000 -0.000000
                                -0.000000 -0.000000

                                   1 4f2-    1 4f2-    1 4f2-    1 4f2-    1 4f2-    1 6h4-    1 6h2-    1 6h4-    1 6h2-    1 6h4- 
                                   1 6h2- 

   1.8   0     1.8532   -5.5452  1.068388 -0.154605  0.187706  0.020368 -0.131343  0.000000  0.000000 -0.000000  0.000000  0.000000
                                -0.000000

   2.8   0     5.3085   -3.6606 -0.634649  1.315880 -0.458679 -0.033758  0.419057 -0.000000 -0.000000  0.000000 -0.000000 -0.000000
                                 0.000000

 HOMO      4.1    -0.244724 =      -6.6593eV
 LUMO      2.2     0.049430 =       1.3451eV
 LUMO-HOMO         0.294154 =       8.0043eV


 **********************************************************************************************************************************
 DATASETS  * FILE   NREC   LENGTH (MB)   RECORD NAMES
              1      20      137.66       500      610      700      900      950      970     1000      129      960     1100   
                                          VAR    BASINP    GEOM    SYMINP    ZMAT    AOBASIS   BASIS     P2S    ABASIS      S 
                                         1400     1410     1420     1200     1210     1080     1600     1650     1300     1700   
                                         EKIN       V       ECP      H0       H01     AOSYM     SMH    MOLCAS    ERIS     OPER   

              2       4        2.96       700     1000      520     4202   
                                         GEOM     BASIS   MCVARS     RHF  

 PROGRAMS   *        TOTAL       RHF       INT
 CPU TIMES  *        14.87      1.23     13.52
 REAL TIME  *        19.12 SEC
 DISK USED  *       434.65 MB      
 **********************************************************************************************************************************


 PROGRAM * POP (Mulliken population analysis)

 
 Density matrix read from record         4202.2  Type=RHF/CHARGE (state 1.1)
 
 Population analysis by basis function type

 Unique atom        s        p        d        f        g    Total    Charge
   1  CU      3.00000  6.00000 10.00000  0.00000  0.00000 19.00000  - 0.00000


 **********************************************************************************************************************************
 DATASETS  * FILE   NREC   LENGTH (MB)   RECORD NAMES
              1      20      137.66       500      610      700      900      950      970     1000      129      960     1100   
                                          VAR    BASINP    GEOM    SYMINP    ZMAT    AOBASIS   BASIS     P2S    ABASIS      S 
                                         1400     1410     1420     1200     1210     1080     1600     1650     1300     1700   
                                         EKIN       V       ECP      H0       H01     AOSYM     SMH    MOLCAS    ERIS     OPER   

              2       4        2.96       700     1000      520     4202   
                                         GEOM     BASIS   MCVARS     RHF  

 PROGRAMS   *        TOTAL       POP       RHF       INT
 CPU TIMES  *        14.87      0.00      1.23     13.52
 REAL TIME  *        19.14 SEC
 DISK USED  *       434.65 MB      
 **********************************************************************************************************************************


 PROGRAM * MULTI (Direct Multiconfiguration SCF)       Authors: P.J. Knowles, H.-J. Werner (1984)     S.T. Elbert (1988)


 Number of closed-shell orbitals:   9 (   3   1   1   1   1   1   1   0 )
 Number of active  orbitals:        1 (   1   0   0   0   0   0   0   0 )
 Number of external orbitals:     196 (  41  27  27  21  27  21  21  11 )

 State symmetry 1

 Orbital occupancy restrictions for symmetry 1
  1      1       2                               

 Number of electrons:     1    Spin symmetry=Doublet   Space symmetry=1
 Number of states:        1
 Number of CSFs:          1
 
 Maximum number of shells:             1
 Maximum number of spin couplings:     1

 Storage for configuration lists       2, coupling coefficients      1, address lists      7

 Molecular orbitals read from record     4202.2  Type=RHF/CANONICAL (state 1.1)
 *** IN SYMMETRY 1 ORBITAL  2 SYMMETRY CONTAMINATION OF 0.152D-03 HAS BEEN REMOVED
 *** IN SYMMETRY 1 ORBITAL  3 SYMMETRY CONTAMINATION OF 0.152D-03 HAS BEEN REMOVED

 EXTRA SYMMETRY OF MOS IN SYMMETRY 1:   1 3 2 1 1 2 3 1 2 3   1 2 3 1 5 4 6 2 3 1   2 3 5 4 6 8 910 7 4   5 6 2 3 1 4 5 6 3 2
                                       10 8 9 7 1
 EXTRA SYMMETRY OF MOS IN SYMMETRY 2:   1 1 1 1 3 2 1 3 2 1   6 5 4 3 2 1 3 2 4 6   5 1 3 2 4 6 5 1
 EXTRA SYMMETRY OF MOS IN SYMMETRY 3:   1 1 1 1 3 2 1 3 2 1   6 5 4 3 2 1 3 2 4 6   5 1 3 2 4 5 6 1
 EXTRA SYMMETRY OF MOS IN SYMMETRY 4:   1 1 1 1 3 2 1 1 3 2   6 4 5 3 2 1 2 3 1 4   6 5
 EXTRA SYMMETRY OF MOS IN SYMMETRY 5:   1 1 1 1 2 3 1 2 3 1   5 6 4 2 3 1 2 3 6 5   4 1 2 3 4 5 6 1
 EXTRA SYMMETRY OF MOS IN SYMMETRY 6:   1 1 1 1 3 2 1 1 3 2   4 6 5 2 3 1 2 3 1 6   5 4
 EXTRA SYMMETRY OF MOS IN SYMMETRY 7:   1 1 1 1 3 2 1 1 3 2   4 6 5 2 3 1 2 3 1 6   5 4
 EXTRA SYMMETRY OF MOS IN SYMMETRY 8:   1 1 2 3 1 1 2 3 1 3   2

 Wavefunction dump at record             5202.2

 Convergence thresholds  0.10E-01 (gradient)  0.10E-05 (energy)  0.10E-02 (step length)

 Number of orbital rotations:      311   (     3 Core/Active    267 Core/Virtual   0 Active/Active     41 Active/Virtual)
 Total number of variables:        312


 ITER. MIC  NCI  NEG     ENERGY(VAR)     ENERGY(PROJ)   ENERGY CHANGE     GRAD(0)  GRAD(ORB)   GRAD(CI)     STEP       TIME

   1   25    4    0    -195.33740083    -195.33740083   -0.00000000    0.00000052 0.00000000 0.00000000  0.68D-06      0.34

 ** WVFN ****  CONVERGENCE REACHED, FINAL GRADIENT:  0.12D-11


 First order charge density matrix for state 1.1 saved on record  5202.2 (density set 1)

 Results for state 1.1
 =====================

 !MCSCF STATE 1.1 Energy             -195.337400834389
 Nuclear energy                         0.00000000
 Kinetic energy                       130.05524395
 One electron energy                 -354.93557627
 Two electron energy                  159.59817544
 Virial ratio                           2.50195713

 !MCSCF STATE 1.1 Dipole moment         0.00000000     0.00000000     0.00000000
 Dipole moment /Debye                   0.00000000     0.00000000     0.00000000

 !MCSCF expec        <1.1|EKIN|1.1>   130.055243953447

 !MCSCF expec         <1.1|POT|1.1>   -26.460507184157


 NATURAL ORBITALS
 ================

   Orb     Occ        Energy       Coefficients

                                   1 1s      1 1s      1 1s      1 1s      1 1s      1 1s      1 1s      1 1s      1 1s      1 3d0  
                                   1 3d2+    1 3d0     1 3d2+    1 3d0     1 3d2+    1 3d0     1 3d2+    1 3d0     1 3d2+    1 3d0  
                                   1 3d2+    1 3d0     1 3d2+    1 3d0     1 3d2+    1 5g0     1 5g4+    1 5g2+    1 5g0     1 5g4+ 
                                   1 5g2+    1 5g0     1 5g4+    1 5g2+    1 5g0     1 5g4+    1 5g2+    1 7i6+    1 7i4+    1 7i2+ 
                                   1 7i0     1 7i6+    1 7i4+    1 7i2+    1 7i0  

   1.1  2.00000    -5.208104     0.999447  0.002923  0.006730  0.002595 -0.000681  0.000660  0.002729  0.002250 -0.002195  0.000000
                                 0.000000  0.000000  0.000000  0.000000  0.000000  0.000000  0.000000  0.000000  0.000000  0.000000
                                 0.000000  0.000000  0.000000  0.000000  0.000000  0.000000  0.000000  0.000000  0.000000  0.000000
                                 0.000000  0.000000  0.000000  0.000000  0.000000  0.000000  0.000000  0.000000  0.000000  0.000000
                                 0.000000  0.000000  0.000000  0.000000  0.000000

   2.1  2.00000    -0.481005     0.000000  0.000000  0.000000  0.000000  0.000000  0.000000  0.000000  0.000000  0.000000  0.998944
                                 0.000000  0.051301  0.000000  0.022844  0.000000  0.003161  0.000000  0.000117  0.000000  0.001139
                                 0.000000  0.000276  0.000000 -0.000252  0.000000  0.000000  0.000000  0.000000  0.000000  0.000000
                                 0.000000  0.000000  0.000000  0.000000  0.000000  0.000000  0.000000  0.000000  0.000000  0.000000
                                 0.000000  0.000000  0.000000  0.000000  0.000000

   3.1  2.00000    -0.481005     0.000000  0.000000  0.000000  0.000000  0.000000  0.000000  0.000000  0.000000  0.000000  0.000000
                                 0.998944  0.000000  0.051301  0.000000  0.022844  0.000000  0.003161  0.000000  0.000117  0.000000
                                 0.001139  0.000000  0.000276  0.000000 -0.000252  0.000000  0.000000  0.000000  0.000000  0.000000
                                 0.000000  0.000000  0.000000  0.000000  0.000000  0.000000  0.000000  0.000000  0.000000  0.000000
                                 0.000000  0.000000  0.000000  0.000000  0.000000

   4.1  1.00000    -0.105564    -0.007753  0.964678 -0.109048  0.028743  0.006302 -0.001328  0.031548 -0.017916  0.016261  0.000000
                                 0.000000  0.000000  0.000000  0.000000  0.000000  0.000000  0.000000  0.000000  0.000000  0.000000
                                 0.000000  0.000000  0.000000  0.000000  0.000000  0.000000  0.000000  0.000000  0.000000  0.000000
                                 0.000000  0.000000  0.000000  0.000000  0.000000  0.000000  0.000000  0.000000  0.000000  0.000000
                                 0.000000  0.000000  0.000000  0.000000  0.000000

                                   1 2px     1 2px     1 2px     1 2px     1 2px     1 2px     1 2px     1 2px     1 2px     1 4f1+ 
                                   1 4f3+    1 4f1+    1 4f3+    1 4f1+    1 4f3+    1 4f1+    1 4f3+    1 4f1+    1 4f3+    1 6h1+ 
                                   1 6h3+    1 6h5+    1 6h1+    1 6h3+    1 6h5+    1 6h1+    1 6h3+    1 6h5+ 

   1.2  2.00000    -3.378041     0.998952  0.025031  0.020340 -0.000288 -0.001319  0.000051 -0.008038  0.001975 -0.000405  0.000000
                                 0.000000  0.000000  0.000000  0.000000  0.000000  0.000000  0.000000  0.000000  0.000000  0.000000
                                 0.000000  0.000000  0.000000  0.000000  0.000000  0.000000  0.000000  0.000000

                                   1 2py     1 2py     1 2py     1 2py     1 2py     1 2py     1 2py     1 2py     1 2py     1 4f1- 
                                   1 4f3-    1 4f1-    1 4f3-    1 4f1-    1 4f3-    1 4f1-    1 4f3-    1 4f1-    1 4f3-    1 6h1- 
                                   1 6h3-    1 6h5-    1 6h1-    1 6h3-    1 6h5-    1 6h1-    1 6h3-    1 6h5- 

   1.3  2.00000    -3.378041     0.998952  0.025031  0.020340 -0.000288 -0.001319  0.000051 -0.008038  0.001975 -0.000405  0.000000
                                 0.000000  0.000000  0.000000  0.000000  0.000000  0.000000  0.000000  0.000000  0.000000  0.000000
                                 0.000000  0.000000  0.000000  0.000000  0.000000  0.000000  0.000000  0.000000

                                   1 3d2-    1 3d2-    1 3d2-    1 3d2-    1 3d2-    1 3d2-    1 3d2-    1 3d2-    1 5g2-    1 5g4- 
                                   1 5g2-    1 5g4-    1 5g2-    1 5g4-    1 5g2-    1 5g4-    1 7i2-    1 7i6-    1 7i4-    1 7i2- 
                                   1 7i6-    1 7i4- 

   1.4  2.00000    -0.481005     0.998944  0.051301  0.022844  0.003161  0.000117  0.001139  0.000276 -0.000252  0.000000  0.000000
                                 0.000000  0.000000  0.000000  0.000000  0.000000  0.000000  0.000000  0.000000  0.000000  0.000000
                                 0.000000  0.000000

                                   1 2pz     1 2pz     1 2pz     1 2pz     1 2pz     1 2pz     1 2pz     1 2pz     1 2pz     1 4f0  
                                   1 4f2+    1 4f0     1 4f2+    1 4f0     1 4f2+    1 4f0     1 4f2+    1 4f0     1 4f2+    1 6h2+ 
                                   1 6h4+    1 6h0     1 6h2+    1 6h4+    1 6h0     1 6h2+    1 6h4+    1 6h0  

   1.5  2.00000    -3.378041     0.998952  0.025031  0.020340 -0.000288 -0.001319  0.000051 -0.008038  0.001975 -0.000405  0.000000
                                 0.000000  0.000000  0.000000  0.000000  0.000000  0.000000  0.000000  0.000000  0.000000  0.000000
                                 0.000000  0.000000  0.000000  0.000000  0.000000  0.000000  0.000000  0.000000

                                   1 3d1+    1 3d1+    1 3d1+    1 3d1+    1 3d1+    1 3d1+    1 3d1+    1 3d1+    1 5g1+    1 5g3+ 
                                   1 5g1+    1 5g3+    1 5g1+    1 5g3+    1 5g1+    1 5g3+    1 7i5+    1 7i3+    1 7i1+    1 7i5+ 
                                   1 7i3+    1 7i1+ 

   1.6  2.00000    -0.481005     0.998944  0.051301  0.022844  0.003161  0.000117  0.001139  0.000276 -0.000252  0.000000  0.000000
                                 0.000000  0.000000  0.000000  0.000000  0.000000  0.000000  0.000000  0.000000  0.000000  0.000000
                                 0.000000  0.000000

                                   1 3d1-    1 3d1-    1 3d1-    1 3d1-    1 3d1-    1 3d1-    1 3d1-    1 3d1-    1 5g1-    1 5g3- 
                                   1 5g1-    1 5g3-    1 5g1-    1 5g3-    1 5g1-    1 5g3-    1 7i5-    1 7i3-    1 7i1-    1 7i5- 
                                   1 7i3-    1 7i1- 

   1.7  2.00000    -0.481005     0.998944  0.051301  0.022844  0.003161  0.000117  0.001139  0.000276 -0.000252  0.000000  0.000000
                                 0.000000  0.000000  0.000000  0.000000  0.000000  0.000000  0.000000  0.000000  0.000000  0.000000
                                 0.000000  0.000000
 

 EXTRA SYMMETRY OF MOS IN SYMMETRY 1:   1 2 3 1 1 2 3 1 2 3   1 2 3 1 4 5 6 2 3 1   2 3 5 4 6 810 9 7 5   4 6 2 3 1 5 4 6 3 2
                                        810 9 7 1
 EXTRA SYMMETRY OF MOS IN SYMMETRY 2:   1 1 1 1 2 3 1 3 2 1   5 6 4 3 2 1 3 2 6 4   5 1 3 2 4 6 5 1
 EXTRA SYMMETRY OF MOS IN SYMMETRY 3:   1 1 1 1 2 3 1 3 2 1   5 6 4 3 2 1 3 2 6 4   5 1 3 2 4 6 5 1
 EXTRA SYMMETRY OF MOS IN SYMMETRY 4:   1 1 1 1 3 2 1 1 3 2   6 4 5 3 2 1 3 2 1 5   6 4
 EXTRA SYMMETRY OF MOS IN SYMMETRY 5:   1 1 1 1 2 3 1 2 3 1   6 5 4 2 3 1 2 3 6 5   4 1 2 3 4 5 6 1
 EXTRA SYMMETRY OF MOS IN SYMMETRY 6:   1 1 1 1 2 3 1 1 2 3   4 6 5 2 3 1 3 2 1 6   5 4
 EXTRA SYMMETRY OF MOS IN SYMMETRY 7:   1 1 1 1 2 3 1 1 2 3   4 6 5 2 3 1 2 3 1 6   5 4
 EXTRA SYMMETRY OF MOS IN SYMMETRY 8:   1 1 2 3 1 1 2 3 1 2   3

 Natural orbital dump at molpro section  5202.2    (Orbital set 2)


 CI vector
 =========

 /             1.0000000


 **********************************************************************************************************************************
 DATASETS  * FILE   NREC   LENGTH (MB)   RECORD NAMES
              1      21      141.38       500      610      700      900      950      970     1000      129      960     1100   
                                          VAR    BASINP    GEOM    SYMINP    ZMAT    AOBASIS   BASIS     P2S    ABASIS      S 
                                         1400     1410     1420     1200     1210     1080     1600     1650     1300     1700   
                                         EKIN       V       ECP      H0       H01     AOSYM     SMH    MOLCAS    ERIS     OPER   
                                         1380   
                                         JKOP   

              2       5        5.67       700     1000      520     4202     5202   
                                         GEOM     BASIS   MCVARS     RHF     MCSCF   

 PROGRAMS   *        TOTAL     MULTI       POP       RHF       INT
 CPU TIMES  *        15.58      0.71      0.00      1.23     13.52
 REAL TIME  *        20.41 SEC
 DISK USED  *       434.65 MB      
 **********************************************************************************************************************************


 PROGRAM * RHF-SCF (OPEN SHELL)       Authors: W. Meyer, H.-J. Werner


 NUMBER OF ELECTRONS:      10+    9-    SPACE SYMMETRY=1    SPIN SYMMETRY: Doublet 
 CONVERGENCE THRESHOLDS:    1.00E-05 (Density)    1.00E-07 (Energy)
 MAX. NUMBER OF ITERATIONS:        0
 INTERPOLATION TYPE:            DIIS
 INTERPOLATION STEPS:              2 (START)      1 (STEP)
 LEVEL SHIFTS:                 -0.60 (CLOSED) -0.30 (OPEN) 


 Singly occupied orbitals:      4.1
 Molecular orbitals read from record     5202.2  Type=MCSCF/NATURAL (state 1.1)

 Molecular orbital dump at record        2101.2

 ITERATION    DDIFF          GRAD             ENERGY        2-EL.EN.            DIPOLE MOMENTS         DIIS   ORB.
    1      0.000D+00      0.000D+00      -195.33740083    319.196351    0.00000    0.00000    0.00000    0    start

 Final alpha occupancy:   4   1   1   1   1   1   1   0
 Final beta  occupancy:   3   1   1   1   1   1   1   0

 !RHF STATE 1.1 Energy               -195.337400834389
 Nuclear energy                         0.00000000
 One-electron energy                 -354.93557627
 Two-electron energy                  159.59817544
 Virial quotient                       -1.50195713
 !RHF STATE 1.1 Dipole moment           0.00000000     0.00000000     0.00000000
 Dipole moment /Debye                   0.00000000     0.00000000     0.00000000
 

 !RHF expec          <1.1|EKIN|1.1>   130.055243953447
 
 !RHF expec           <1.1|POT|1.1>   -26.460507184157

 ELECTRON ORBITALS
 =================


   Orb  Occ    Energy  Couls-En    Coefficients

                                   1 1s      1 1s      1 1s      1 1s      1 1s      1 1s      1 1s      1 1s      1 1s      1 3d0  
                                   1 3d2+    1 3d0     1 3d2+    1 3d0     1 3d2+    1 3d0     1 3d2+    1 3d0     1 3d2+    1 3d0  
                                   1 3d2+    1 3d0     1 3d2+    1 3d0     1 3d2+    1 5g0     1 5g4+    1 5g2+    1 5g0     1 5g4+ 
                                   1 5g2+    1 5g0     1 5g4+    1 5g2+    1 5g0     1 5g4+    1 5g2+    1 7i6+    1 7i4+    1 7i2+ 
                                   1 7i0     1 7i6+    1 7i4+    1 7i2+    1 7i0  

   1.1   2    -5.2081  -28.7580  0.999447  0.002923  0.006730  0.002595 -0.000681  0.000660  0.002729  0.002250 -0.002195  0.000000
                                 0.000000  0.000000  0.000000  0.000000  0.000000  0.000000  0.000000  0.000000  0.000000  0.000000
                                 0.000000  0.000000  0.000000  0.000000  0.000000  0.000000  0.000000  0.000000  0.000000  0.000000
                                 0.000000  0.000000  0.000000  0.000000  0.000000  0.000000  0.000000  0.000000  0.000000  0.000000
                                 0.000000  0.000000  0.000000  0.000000  0.000000

   2.1   2    -0.4810  -17.6805  0.000000  0.000000  0.000000  0.000000  0.000000  0.000000  0.000000  0.000000  0.000000  0.998944
                                 0.000000  0.051301  0.000000  0.022844  0.000000  0.003161  0.000000  0.000117  0.000000  0.001139
                                 0.000000  0.000276  0.000000 -0.000252  0.000000  0.000000  0.000000  0.000000  0.000000  0.000000
                                 0.000000  0.000000  0.000000  0.000000  0.000000  0.000000  0.000000  0.000000  0.000000  0.000000
                                 0.000000  0.000000  0.000000  0.000000  0.000000

   3.1   2    -0.4810  -17.6805  0.000000  0.000000  0.000000  0.000000  0.000000  0.000000  0.000000  0.000000  0.000000  0.000000
                                 0.998944  0.000000  0.051301  0.000000  0.022844  0.000000  0.003161  0.000000  0.000117  0.000000
                                 0.001139  0.000000  0.000276  0.000000 -0.000252  0.000000  0.000000  0.000000  0.000000  0.000000
                                 0.000000  0.000000  0.000000  0.000000  0.000000  0.000000  0.000000  0.000000  0.000000  0.000000
                                 0.000000  0.000000  0.000000  0.000000  0.000000

   4.1   +    -0.1056   -6.8767 -0.007753  0.964678 -0.109048  0.028743  0.006302 -0.001328  0.031548 -0.017916  0.016261  0.000000
                                 0.000000  0.000000  0.000000  0.000000  0.000000  0.000000  0.000000  0.000000  0.000000  0.000000
                                 0.000000  0.000000  0.000000  0.000000  0.000000  0.000000  0.000000  0.000000  0.000000  0.000000
                                 0.000000  0.000000  0.000000  0.000000  0.000000  0.000000  0.000000  0.000000  0.000000  0.000000
                                 0.000000  0.000000  0.000000  0.000000  0.000000

                                   1 2px     1 2px     1 2px     1 2px     1 2px     1 2px     1 2px     1 2px     1 2px     1 4f1+ 
                                   1 4f3+    1 4f1+    1 4f3+    1 4f1+    1 4f3+    1 4f1+    1 4f3+    1 4f1+    1 4f3+    1 6h1+ 
                                   1 6h3+    1 6h5+    1 6h1+    1 6h3+    1 6h5+    1 6h1+    1 6h3+    1 6h5+ 

   1.2   2    -3.3780  -24.8897  0.998952  0.025031  0.020340 -0.000288 -0.001319  0.000051 -0.008038  0.001975 -0.000405  0.000000
                                 0.000000  0.000000  0.000000  0.000000  0.000000  0.000000  0.000000  0.000000  0.000000  0.000000
                                 0.000000  0.000000  0.000000  0.000000  0.000000  0.000000  0.000000  0.000000

                                   1 2py     1 2py     1 2py     1 2py     1 2py     1 2py     1 2py     1 2py     1 2py     1 4f1- 
                                   1 4f3-    1 4f1-    1 4f3-    1 4f1-    1 4f3-    1 4f1-    1 4f3-    1 4f1-    1 4f3-    1 6h1- 
                                   1 6h3-    1 6h5-    1 6h1-    1 6h3-    1 6h5-    1 6h1-    1 6h3-    1 6h5- 

   1.3   2    -3.3780  -24.8897  0.998952  0.025031  0.020340 -0.000288 -0.001319  0.000051 -0.008038  0.001975 -0.000405  0.000000
                                 0.000000  0.000000  0.000000  0.000000  0.000000  0.000000  0.000000  0.000000  0.000000  0.000000
                                 0.000000  0.000000  0.000000  0.000000  0.000000  0.000000  0.000000  0.000000

                                   1 3d2-    1 3d2-    1 3d2-    1 3d2-    1 3d2-    1 3d2-    1 3d2-    1 3d2-    1 5g2-    1 5g4- 
                                   1 5g2-    1 5g4-    1 5g2-    1 5g4-    1 5g2-    1 5g4-    1 7i2-    1 7i6-    1 7i4-    1 7i2- 
                                   1 7i6-    1 7i4- 

   1.4   2    -0.4810  -17.6805  0.998944  0.051301  0.022844  0.003161  0.000117  0.001139  0.000276 -0.000252  0.000000  0.000000
                                 0.000000  0.000000  0.000000  0.000000  0.000000  0.000000  0.000000  0.000000  0.000000  0.000000
                                 0.000000  0.000000

                                   1 2pz     1 2pz     1 2pz     1 2pz     1 2pz     1 2pz     1 2pz     1 2pz     1 2pz     1 4f0  
                                   1 4f2+    1 4f0     1 4f2+    1 4f0     1 4f2+    1 4f0     1 4f2+    1 4f0     1 4f2+    1 6h2+ 
                                   1 6h4+    1 6h0     1 6h2+    1 6h4+    1 6h0     1 6h2+    1 6h4+    1 6h0  

   1.5   2    -3.3780  -24.8897  0.998952  0.025031  0.020340 -0.000288 -0.001319  0.000051 -0.008038  0.001975 -0.000405  0.000000
                                 0.000000  0.000000  0.000000  0.000000  0.000000  0.000000  0.000000  0.000000  0.000000  0.000000
                                 0.000000  0.000000  0.000000  0.000000  0.000000  0.000000  0.000000  0.000000

                                   1 3d1+    1 3d1+    1 3d1+    1 3d1+    1 3d1+    1 3d1+    1 3d1+    1 3d1+    1 5g1+    1 5g3+ 
                                   1 5g1+    1 5g3+    1 5g1+    1 5g3+    1 5g1+    1 5g3+    1 7i5+    1 7i3+    1 7i1+    1 7i5+ 
                                   1 7i3+    1 7i1+ 

   1.6   2    -0.4810  -17.6805  0.998944  0.051301  0.022844  0.003161  0.000117  0.001139  0.000276 -0.000252  0.000000  0.000000
                                 0.000000  0.000000  0.000000  0.000000  0.000000  0.000000  0.000000  0.000000  0.000000  0.000000
                                 0.000000  0.000000

                                   1 3d1-    1 3d1-    1 3d1-    1 3d1-    1 3d1-    1 3d1-    1 3d1-    1 3d1-    1 5g1-    1 5g3- 
                                   1 5g1-    1 5g3-    1 5g1-    1 5g3-    1 5g1-    1 5g3-    1 7i5-    1 7i3-    1 7i1-    1 7i5- 
                                   1 7i3-    1 7i1- 

   1.7   2    -0.4810  -17.6805  0.998944  0.051301  0.022844  0.003161  0.000117  0.001139  0.000276 -0.000252  0.000000  0.000000
                                 0.000000  0.000000  0.000000  0.000000  0.000000  0.000000  0.000000  0.000000  0.000000  0.000000
                                 0.000000  0.000000

 HOMO      4.1    -0.105564 =      -2.8725eV
 LUMO      2.2     0.064443 =       1.7536eV
 LUMO-HOMO         0.170007 =       4.6261eV


 **********************************************************************************************************************************
 DATASETS  * FILE   NREC   LENGTH (MB)   RECORD NAMES
              1      21      141.38       500      610      700      900      950      970     1000      129      960     1100   
                                          VAR    BASINP    GEOM    SYMINP    ZMAT    AOBASIS   BASIS     P2S    ABASIS      S 
                                         1400     1410     1420     1200     1210     1080     1600     1650     1300     1700   
                                         EKIN       V       ECP      H0       H01     AOSYM     SMH    MOLCAS    ERIS     OPER   
                                         1380   
                                         JKOP   

              2       6        8.37       700     1000      520     4202     5202     2101   
                                         GEOM     BASIS   MCVARS     RHF     MCSCF     RHF  

 PROGRAMS   *        TOTAL       RHF     MULTI       POP       RHF       INT
 CPU TIMES  *        15.70      0.11      0.71      0.00      1.23     13.52
 REAL TIME  *        20.65 SEC
 DISK USED  *       434.65 MB      
 **********************************************************************************************************************************
 SETTING SCF(I)         =      -195.33740083  AU                              
 SETTING _CC_NORM_MAX   =         2.00000000                                  


 PROGRAM * CCSD (Restricted open-shell coupled cluster)     Authors: C. Hampel, H.-J. Werner, 1991, M. Deegan, P.J. Knowles, 1992


 Convergence thresholds:  THRVAR = 1.00D-08  THRDEN = 1.00D-06

 CCSD(T)     terms to be evaluated (factor= 1.000)


 Number of closed-shell orbitals:   9 (   3   1   1   1   1   1   1   0 )
 Number of active  orbitals:        1 (   1   0   0   0   0   0   0   0 )
 Number of external orbitals:     196 (  41  27  27  21  27  21  21  11 )

 Memory could be reduced to 18.25 Mwords without degradation in triples

 Number of N-1 electron functions:              19
 Number of N-2 electron functions:             171
 Number of singly external CSFs:               582
 Number of doubly external CSFs:            639387
 Total number of CSFs:                      639969

 Molecular orbitals read from record     2101.2  Type=RHF/CANONICAL (state 1.1)

 Integral transformation finished. Total CPU:   0.55 sec, npass=  1  Memory used:   3.78 MW

 Starting RMP2 calculation

 Wavefunction is spin-projected

 ITER.      SQ.NORM     CORR.ENERGY   TOTAL ENERGY   ENERGY CHANGE        DEN1      VAR(S)    VAR(P)  DIIS     TIME
   1      1.12914709    -1.10633672  -196.44373755    -1.10633672    -0.00100508  0.20D-05  0.33D-03  1  1     0.62
   2      1.12989241    -1.10738554  -196.44478637    -0.00104882    -0.00000209  0.17D-07  0.12D-05  2  2     0.68
   3      1.12993056    -1.10741352  -196.44481436    -0.00002798    -0.00000001  0.71D-10  0.53D-08  3  3     0.75
   4      1.12993167    -1.10741377  -196.44481461    -0.00000025    -0.00000000  0.83D-13  0.15D-10  4  4     0.82

 Norm of t1 vector:      0.01212364      S-energy:    -0.00021386      T1 diagnostic:  0.00001918
 Norm of t2 vector:      0.36025642      P-energy:    -1.10719991
                                         Alpha-Beta:  -0.76676163
                                         Alpha-Alpha: -0.17619652
                                         Beta-Beta:   -0.16424176

 Spin contamination <S**2-Sz**2-Sz>     0.00000000
  Reference energy                   -195.337400834389
  RHF-RMP2 correlation energy          -1.107413771325
 !RHF-RMP2 energy                    -196.444814605714
 (NB above energy spin projected)

 Starting RCCSD calculation

 ITER.      SQ.NORM     CORR.ENERGY   TOTAL ENERGY   ENERGY CHANGE        DEN1      VAR(S)    VAR(P)  DIIS     TIME
   1      1.08944886    -0.93842406  -196.27582490    -0.93842406    -0.07486183  0.12D-01  0.11D-01  0  0     2.23
   2      1.10649863    -1.00436527  -196.34176611    -0.06594121    -0.01612912  0.33D-02  0.35D-02  1  1     3.61
   3      1.10456326    -0.98680966  -196.32421049     0.01755561    -0.00060119  0.49D-03  0.59D-04  2  2     5.00
   4      1.10639808    -0.98708904  -196.32448988    -0.00027938    -0.00016265  0.15D-03  0.19D-04  3  3     6.35
   5      1.11022620    -0.98823748  -196.32563831    -0.00114843    -0.00001776  0.21D-04  0.13D-05  4  4     7.72
   6      1.11123413    -0.98844224  -196.32584308    -0.00020477    -0.00000306  0.31D-05  0.45D-06  5  5     9.09
   7      1.11182015    -0.98850575  -196.32590659    -0.00006351    -0.00000013  0.13D-06  0.20D-07  6  6    10.45
   8      1.11186837    -0.98850475  -196.32590559     0.00000100    -0.00000002  0.23D-07  0.41D-08  6  5    11.83
   9      1.11189460    -0.98850775  -196.32590858    -0.00000300    -0.00000000  0.18D-08  0.47D-09  6  1    13.18
  10      1.11189884    -0.98850837  -196.32590920    -0.00000062    -0.00000000  0.19D-09  0.86D-10  6  2    14.55

 Norm of t1 vector:      0.12571242      S-energy:    -0.00027469      T1 diagnostic:  0.02024426
                                                                       D1 diagnostic:  0.05776583
 Norm of t2 vector:      0.30999231      P-energy:    -0.98823367
                                         Alpha-Beta:  -0.71313655
                                         Alpha-Alpha: -0.14352281
                                         Beta-Beta:   -0.13157431

 Singles amplitudes (print threshold =  0.500E-01):

         I         SYM. A    A   T(IA) [Alpha-Alpha]

         4         1         2     -0.06024507
         4         1         5      0.05109084

 Spin contamination <S**2-Sz**2-Sz>     0.00000000

 Memory could be reduced to 19.35 Mwords without degradation in triples
 

  Correlated core orbitals:             1.1       1.2       1.3       1.5
  Orbital energies:                    -5.2122   -3.3802   -3.3802   -3.3802
 
  RCCSD core-core energy               -0.126694961899
  RCCSD core-valence energy            -0.376751877141
  RCCSD valence correlation energy     -0.485061527955
 

 RESULTS
 =======

  Reference energy                   -195.337400834389
  RCCSD singles energy                 -0.000274694330
  RCCSD pair energy                    -0.988233672666
  RCCSD correlation energy             -0.988508366995
  Triples (T) contribution             -0.034629008822
  Total correlation energy             -1.023137375817
 
  RHF-RCCSD energy                   -196.325909201384
  RHF-RCCSD[T] energy                -196.365503393158
  RHF-RCCSD-T energy                 -196.360294890138
 !RHF-RCCSD(T) energy                -196.360538210206

 Program statistics:

 Available memory in ccsd:               511999000
 Min. memory needed in ccsd:               1895325
 Max. memory used in ccsd:                 2676326
 Max. memory used in cckext:               2092307 (10 integral passes)
 Max. memory used in cckint:               3783436 ( 1 integral passes)



 **********************************************************************************************************************************
 DATASETS  * FILE   NREC   LENGTH (MB)   RECORD NAMES
              1      21      141.38       500      610      700      900      950      970     1000      129      960     1100   
                                          VAR    BASINP    GEOM    SYMINP    ZMAT    AOBASIS   BASIS     P2S    ABASIS      S 
                                         1400     1410     1420     1200     1210     1080     1600     1650     1300     1700   
                                         EKIN       V       ECP      H0       H01     AOSYM     SMH    MOLCAS    ERIS     OPER   
                                         1380   
                                         JKOP   

              2       6        8.37       700     1000      520     4202     5202     2101   
                                         GEOM     BASIS   MCVARS     RHF     MCSCF     RHF  

 PROGRAMS   *        TOTAL  RCCSD(T)       RHF     MULTI       POP       RHF       INT
 CPU TIMES  *        77.84     62.14      0.11      0.71      0.00      1.23     13.52
 REAL TIME  *        87.83 SEC
 DISK USED  *       486.83 MB      
 **********************************************************************************************************************************
 SETTING POSTHF(I)      =      -196.36053821  AU                              
                                                                                                                                                                                                                                                                

         SCF            POSTHF        EKIN          POT
    -195.3374008   -196.3605382   130.0552440   -26.46050718
                                                  

 RCCSD(T)/USERDEF energy=   -196.360538210206

        RCCSD(T)        RHF-SCF         MULTI           RHF-SCF 
   -196.36053821   -195.33740083   -195.33740083   -195.33740083
 **********************************************************************************************************************************
 Variable memory released
