TACC:  Starting up job 3912438 
TACC:  Starting parallel tasks... 
  Input file(s): Ga.log.qmc.in-wfj.xml 

=====================================================
                    QMCPACK 3.7.9

       (c) Copyright 2003-  QMCPACK developers

                    Please cite:
 J. Kim et al. J. Phys. Cond. Mat. 30 195901 (2018)
      https://doi.org/10.1088/1361-648X/aab9c3

  Git branch: develop
  Last git commit: 9a049a3fb3e0d7110d61a924a52203fd8296522a
  Last git commit date: Mon Jul 1 13:42:43 2019 -0500
  Last git commit subject: Merge pull request #1686 from ye-luo/rename-to-LCAOHDFParser
=====================================================
  Global options 

  Total number of MPI ranks = 1024
  Number of MPI groups      = 1
  MPI group ID              = 0
  Number of ranks in group  = 1024
  MPI ranks per node        = 64
  OMP 1st level threads     = 1
  OMP nested threading disabled or only 1 thread on the 2nd level

  Precision used in this calculation, see definitions in the manual:
  Base precision      = double
  Full precision      = double

  Structure-of-arrays (SoA) optimization enabled

  Input XML = Ga.log.qmc.in-wfj.xml

  Project = Ga.log
  date    = 2019-07-01 18:01:16 CDT
  host    = c455-012.stampede2.tacc.utexas.edu

 Random Number
 -------------
  Offset for the random number seeds based on time: 188

  Range of prime numbers to use as seeds over processors and threads = 1151-9839


 Particle Set 
 ------------
  Name: ion0
  All the species have the same mass 1
  Particle set size: 1

 Particle Set 
 ------------
  Name: e
  All the species have the same mass 1
  Particle set size: 3

 Wavefunction setup: 
 ------------------- 
  Name: psi0
  LCAO: SoaAtomicBasisSet<MultiQuintic,1>
Reading BasisSet from HDF5 file:Ga.log.h5
<input node="atomicBasisSet" name="gaussian" expandYlm="pyscf" angular="spherical" elementType="Ga" normalized="no" type="Numerical" expM="0" />
  AO BasisSet for Ga
   Spherical Harmonics contain (-1)^m factor
   Angular momentum m expanded as -l, ... ,l, with the exception of L=1 (1,-1,0)
   Grid is created by the input paremters in h5
    Using log grid ri = 1e-06 rf = 100 npts = 1001
   R(n,l,m,s) 0 0 0 0
   R(n,l,m,s) 1 0 0 0
   R(n,l,m,s) 2 1 0 0
   R(n,l,m,s) 3 1 0 0
   R(n,l,m,s) 4 2 0 0
Expanding Ylm as L=1 as (1,-1,0) and L>1 as -l,-l+1,...,l-1,l
   Adding 1 spherical orbitals
   Adding 1 spherical orbitals
   Adding 3 spherical orbitals
   Adding 3 spherical orbitals
   Adding 5 spherical orbitals
  Setting cutoff radius 17.7011

   Maximum Angular Momentum  = 2
   Number of Radial functors = 5
   Basis size                = 13

  Created SPOSet builder named 'LCAOBSet' of type molecularorbital
Reuse SPOSetBuilder "LCAOBSet" type MolecularOrbital
  Building SPOSet '' with '' basis set.
Reuse SPOSetBuilder "LCAOBSet" type MolecularOrbital
  Building SPOSet '' with '' basis set.
  Creating a determinant updet group=0 sposet=updet
  Reusing a SPO set updet
Using DiracDeterminant with DelayedUpdate engine
Using rank-1 Sherman-Morrison Fahy update

  Creating a determinant downdet group=1 sposet=downdet
  Reusing a SPO set downdet
Using DiracDeterminant with DelayedUpdate engine
Using rank-1 Sherman-Morrison Fahy update

  FermionWF = SlaterDet

   Jastrow
   -------
    Name: J2   Type: Two-Body   Function: Bspline

    Radial function for species: u - u
     Number of parameters: 10
     Cusp: -0.25
     Cutoff radius: 10

     Name                        Value Type Recompute Use Index
     ---- ---------------------------- ---- --------- --- -----
     uu_0                 2.444844e-01    1         1  ON     0
     uu_1                 2.754047e-01    1         1  ON     1
     uu_2                 1.195637e-01    1         1  ON     2
     uu_3                 4.360488e-02    1         1  ON     3
     uu_4                -1.197956e-02    1         1  ON     4
     uu_5                -5.607253e-02    1         1  ON     5
     uu_6                -8.496452e-02    1         1  ON     6
     uu_7                -9.822001e-02    1         1  ON     7
     uu_8                -9.082299e-02    1         1  ON     8
     uu_9                -7.473430e-02    1         1  ON     9

    Radial function for species: u - d
     Number of parameters: 10
     Cusp: -0.5
     Cutoff radius: 10

     Name                        Value Type Recompute Use Index
     ---- ---------------------------- ---- --------- --- -----
     ud_0                 1.367527e+00    1         1  ON     0
     ud_1                 1.035231e+00    1         1  ON     1
     ud_2                 7.691262e-01    1         1  ON     2
     ud_3                 5.603029e-01    1         1  ON     3
     ud_4                 3.882205e-01    1         1  ON     4
     ud_5                 2.436058e-01    1         1  ON     5
     ud_6                 1.233389e-01    1         1  ON     6
     ud_7                 2.813464e-02    1         1  ON     7
     ud_8                -3.425825e-02    1         1  ON     8
     ud_9                -7.924796e-02    1         1  ON     9


   Jastrow
   -------
    Name: J1   Type: One-Body   Function: Bspline

    Radial function for element: Ga
     Number of parameters: 10
     Cusp: 0
     Cutoff radius: 10

      Name                        Value Type Recompute Use Index
     ----- ---------------------------- ---- --------- --- -----
     eGa_0                -4.446254e-01    1         1  ON     0
     eGa_1                -4.199352e-01    1         1  ON     1
     eGa_2                -4.829074e-01    1         1  ON     2
     eGa_3                -3.132213e-01    1         1  ON     3
     eGa_4                -1.641043e-01    1         1  ON     4
     eGa_5                 8.498907e-04    1         1  ON     5
     eGa_6                 1.150150e-01    1         1  ON     6
     eGa_7                 2.195686e-01    1         1  ON     7
     eGa_8                 2.531163e-01    1         1  ON     8
     eGa_9                 2.685485e-01    1         1  ON     9


   Jastrow
   -------
    Name: J3   Type: eeI   Function: polynomial

     Ion: Ga   electron-electron: u - u
      Number of parameters for e-e: 3, for e-I: 3
      Cutoff radius: 10

Expected 26 parameters, but found 0 in PolynomialFunctor3D.
         Name                        Value Type Recompute Use Index
      ------- ---------------------------- ---- --------- --- -----
       uuGa_0                 0.000000e+00    1         1  ON     0
       uuGa_1                 0.000000e+00    1         1  ON     1
       uuGa_2                 0.000000e+00    1         1  ON     2
       uuGa_3                 0.000000e+00    1         1  ON     3
       uuGa_4                 0.000000e+00    1         1  ON     4
       uuGa_5                 0.000000e+00    1         1  ON     5
       uuGa_6                 0.000000e+00    1         1  ON     6
       uuGa_7                 0.000000e+00    1         1  ON     7
       uuGa_8                 0.000000e+00    1         1  ON     8
       uuGa_9                 0.000000e+00    1         1  ON     9
      uuGa_10                 0.000000e+00    1         1  ON    10
      uuGa_11                 0.000000e+00    1         1  ON    11
      uuGa_12                 0.000000e+00    1         1  ON    12
      uuGa_13                 0.000000e+00    1         1  ON    13
      uuGa_14                 0.000000e+00    1         1  ON    14
      uuGa_15                 0.000000e+00    1         1  ON    15
      uuGa_16                 0.000000e+00    1         1  ON    16
      uuGa_17                 0.000000e+00    1         1  ON    17
      uuGa_18                 0.000000e+00    1         1  ON    18
      uuGa_19                 0.000000e+00    1         1  ON    19
      uuGa_20                 0.000000e+00    1         1  ON    20
      uuGa_21                 0.000000e+00    1         1  ON    21
      uuGa_22                 0.000000e+00    1         1  ON    22
      uuGa_23                 0.000000e+00    1         1  ON    23
      uuGa_24                 0.000000e+00    1         1  ON    24
      uuGa_25                 0.000000e+00    1         1  ON    25

     Ion: Ga   electron-electron: u - d
      Number of parameters for e-e: 3, for e-I: 3
      Cutoff radius: 10

Expected 26 parameters, but found 0 in PolynomialFunctor3D.
         Name                        Value Type Recompute Use Index
      ------- ---------------------------- ---- --------- --- -----
       udGa_0                 0.000000e+00    1         1  ON     0
       udGa_1                 0.000000e+00    1         1  ON     1
       udGa_2                 0.000000e+00    1         1  ON     2
       udGa_3                 0.000000e+00    1         1  ON     3
       udGa_4                 0.000000e+00    1         1  ON     4
       udGa_5                 0.000000e+00    1         1  ON     5
       udGa_6                 0.000000e+00    1         1  ON     6
       udGa_7                 0.000000e+00    1         1  ON     7
       udGa_8                 0.000000e+00    1         1  ON     8
       udGa_9                 0.000000e+00    1         1  ON     9
      udGa_10                 0.000000e+00    1         1  ON    10
      udGa_11                 0.000000e+00    1         1  ON    11
      udGa_12                 0.000000e+00    1         1  ON    12
      udGa_13                 0.000000e+00    1         1  ON    13
      udGa_14                 0.000000e+00    1         1  ON    14
      udGa_15                 0.000000e+00    1         1  ON    15
      udGa_16                 0.000000e+00    1         1  ON    16
      udGa_17                 0.000000e+00    1         1  ON    17
      udGa_18                 0.000000e+00    1         1  ON    18
      udGa_19                 0.000000e+00    1         1  ON    19
      udGa_20                 0.000000e+00    1         1  ON    20
      udGa_21                 0.000000e+00    1         1  ON    21
      udGa_22                 0.000000e+00    1         1  ON    22
      udGa_23                 0.000000e+00    1         1  ON    23
      udGa_24                 0.000000e+00    1         1  ON    24
      udGa_25                 0.000000e+00    1         1  ON    25

  QMCHamiltonian::addOperator Kinetic to H, physical Hamiltonian 
  QMCHamiltonian::addOperator ElecElec to H, physical Hamiltonian 
QMCHamiltonian::addOperatorType added type coulomb named ElecElec
  CoulombAA for ion0 is not created.  Number of particles == 1 and nonPeriodic

  ECPotential builder for pseudopotential 

  Adding pseudopotential for Ga
   Linear grid  ri=0 rf=10 npts = 10001
    ECPComponentBuilder::buildSemiLocalAndLocal 
    Assuming Hartree unit
   Number of angular momentum channels 4
   Maximum angular momentum channel 3
   Creating a Linear Grid Rmax=5.26
  Using global grid with delta = 0.001
   Making L=3 a local potential with a radial cutoff of 9.999
    Non-local pseudopotential parameters
    Maximum angular mementum = 2
    Number of non-local channels = 3
       l(0)=0
       l(1)=1
       l(2)=2
    Cutoff radius = 5.26
    Spherical grids and weights: 
                        1                 0                 0       0.08333333333
                       -1   1.224646799e-16                 0       0.08333333333
             0.4472135955       0.894427191                 0       0.08333333333
            -0.4472135955      0.7236067977      0.5257311121       0.08333333333
             0.4472135955      0.2763932023      0.8506508084       0.08333333333
            -0.4472135955     -0.2763932023      0.8506508084       0.08333333333
             0.4472135955     -0.7236067977      0.5257311121       0.08333333333
            -0.4472135955      -0.894427191   1.095357397e-16       0.08333333333
             0.4472135955     -0.7236067977     -0.5257311121       0.08333333333
            -0.4472135955     -0.2763932023     -0.8506508084       0.08333333333
             0.4472135955      0.2763932023     -0.8506508084       0.08333333333
            -0.4472135955      0.7236067977     -0.5257311121       0.08333333333
    Maximum cutoff radius 5.26
  QMCHamiltonian::addOperator LocalECP to H, physical Hamiltonian 

  Using NonLocalECP potential 
    Maximum grid on a sphere for NonLocalECPotential: 12
  QMCHamiltonian::addOperator NonLocalECP to H, physical Hamiltonian 
QMCHamiltonian::addOperatorType added type pseudo named PseudoPot

  QMCHamiltonian::add2WalkerProperty added
    4 to P::PropertyList 
    0 to P::Collectables 
    starting Index of the observables in P::PropertyList = 9
ParticleSetPool::randomize 
<init source="ion0" target="e">
</init>
  Initialization Execution time = 0.5292 secs
=========================================================
 Summary of QMC systems 
=========================================================
ParticleSetPool has: 

  ParticleSet 'e' contains 3 particles :  u(2) d(1)

    u  9.4030013088e-01 -8.5154447705e-01  6.6831855390e-01
    u -6.8996398901e-01 -3.0673597947e-01  1.3338910777e+00
    d -3.7290119202e-01 -7.1297062480e-01 -4.1765196231e-01

  Distance table for dissimilar particles (A-B):
    source: ion0  target: e
    Using structure-of-arrays (SoA) data layout
    Distance computations use open boundary conditions in 3D.

  Distance table for similar particles (A-A):
    source/target: e
    Using structure-of-arrays (SoA) data layout
    Distance computations use open boundary conditions in 3D.


  ParticleSet 'ion0' contains 1 particles :  Ga(1)

    Ga  0.0000000000e+00  0.0000000000e+00  0.0000000000e+00


  Hamiltonian h0
  Kinetic         Kinetic energy
  ElecElec        CoulombAB source=e

  LocalECP        LocalECPotential: ion0
  NonLocalECP     NonLocalECPotential: ion0


=========================================================
  Start VMC
  File Root Ga.log.s000 append = no 
=========================================================
  Adding 1 walkers to 0 existing sets
  Total number of walkers: 1.0240000000e+03
  Total weight: 1.0240000000e+03
  Resetting Properties of the walkers 1 x 13

<vmc function="put">
  qmc_counter=0  my_counter=0
  time step      = 1.5000000000e-01
  blocks         = 200
  steps          = 1
  substeps       = 5
  current        = 0
  target samples = 1.0240000000e+03
  walkers/mpi    = 1

  stepsbetweensamples = 200
<parameter name="blocks" condition="int">200</parameter>
<parameter name="blocks_between_recompute" condition="int">0</parameter>
<parameter name="check_properties" condition="int">100</parameter>
<parameter name="checkproperties" condition="int">100</parameter>
<parameter name="current" condition="int">0</parameter>
<parameter name="dmcwalkersperthread" condition="real">1.0000000000e+00</parameter>
<parameter name="maxcpusecs" condition="real">3.6000000000e+05</parameter>
<parameter name="record_configs" condition="int">0</parameter>
<parameter name="record_walkers" condition="int">200</parameter>
<parameter name="recordconfigs" condition="int">0</parameter>
<parameter name="recordwalkers" condition="int">200</parameter>
<parameter name="rewind" condition="int">0</parameter>
<parameter name="samples" condition="real">1.0240000000e+03</parameter>
<parameter name="samplesperthread" condition="real">1.0000000000e+00</parameter>
<parameter name="steps" condition="int">1</parameter>
<parameter name="stepsbetweensamples" condition="int">200</parameter>
<parameter name="store_configs" condition="int">0</parameter>
<parameter name="storeconfigs" condition="int">0</parameter>
<parameter name="sub_steps" condition="int">5</parameter>
<parameter name="substeps" condition="int">5</parameter>
<parameter name="tau" condition="au">1.5000000000e-01</parameter>
<parameter name="time_step" condition="au">1.5000000000e-01</parameter>
<parameter name="timestep" condition="au">1.5000000000e-01</parameter>
<parameter name="use_drift" condition="string">no</parameter>
<parameter name="usedrift" condition="string">no</parameter>
<parameter name="walkers" condition="int">1</parameter>
<parameter name="warmup_steps" condition="int">100</parameter>
<parameter name="warmupsteps" condition="int">100</parameter>
  DumpConfig==false Nothing (configurations, state) will be saved.
  Walker Samples are dumped every 200 steps.
</vmc>
  Set drift_modifier UNR parameter a = 1.0000000000e+00
  Initial partition of walkers 0 1 

  Using Particle by Particle moves
  Walker moves without drift
  Total Sample Size   =1024
  Walker distribution on root = 0 1 
  Using Locality Approximation
===== Memory Usage after the buffer registration =====
Available memory on node 0, free + buffers : 52265 MB
Memory footprint by rank 0 on node 0       : 577 MB
==================================================
  Anonymous Buffer size per walker : 1184 Bytes.
MEMORY increase 0 MB VMC::resetRun
====================================================
  SimpleFixedNodeBranch::finalize after a VMC block
    QMC counter        = 0
    time step          = 0.15
    reference energy   = -2.0245
    reference variance = 0.0268647
====================================================
  QMC Execution time = 1.7163e+00 secs
Loop execution max-interations = 20

=========================================================
  Start QMCFixedSampleLinearOptimize
  File Root Ga.log.s001 append = no 
=========================================================
  Skip QMCDriver::putQMCInfo 
  Resetting Properties of the walkers 1 x 13

=========================================================
  Start VMC
  File Root Ga.log.s001 append = no 
=========================================================
  Using the current 1 walkers.
  Total number of walkers: 1.0240e+03
  Total weight: 1.0240e+03
  Resetting Properties of the walkers 1 x 13

<vmc function="put">
  qmc_counter=0  my_counter=0
  time step      = 1.5000e-01
  blocks         = 500
  steps          = 1
  substeps       = 5
  current        = 0
  target samples = 5.1200e+05
  walkers/mpi    = 1

  stepsbetweensamples = 1
<parameter name="blocks" condition="int">500</parameter>
<parameter name="blocks_between_recompute" condition="int">0</parameter>
<parameter name="check_properties" condition="int">100</parameter>
<parameter name="checkproperties" condition="int">100</parameter>
<parameter name="current" condition="int">0</parameter>
<parameter name="dmcwalkersperthread" condition="real">5.0000e+02</parameter>
<parameter name="maxcpusecs" condition="real">3.6000e+05</parameter>
<parameter name="record_configs" condition="int">0</parameter>
<parameter name="record_walkers" condition="int">1</parameter>
<parameter name="recordconfigs" condition="int">0</parameter>
<parameter name="recordwalkers" condition="int">1</parameter>
<parameter name="rewind" condition="int">0</parameter>
<parameter name="samples" condition="real">5.1200e+05</parameter>
<parameter name="samplesperthread" condition="real">5.0000e+02</parameter>
<parameter name="steps" condition="int">1</parameter>
<parameter name="stepsbetweensamples" condition="int">1</parameter>
<parameter name="store_configs" condition="int">0</parameter>
<parameter name="storeconfigs" condition="int">0</parameter>
<parameter name="sub_steps" condition="int">5</parameter>
<parameter name="substeps" condition="int">5</parameter>
<parameter name="tau" condition="au">1.5000e-01</parameter>
<parameter name="time_step" condition="au">1.5000e-01</parameter>
<parameter name="timestep" condition="au">1.5000e-01</parameter>
<parameter name="use_drift" condition="string">no</parameter>
<parameter name="usedrift" condition="string">no</parameter>
<parameter name="walkers" condition="int">1</parameter>
<parameter name="warmup_steps" condition="int">0</parameter>
<parameter name="warmupsteps" condition="int">0</parameter>
  DumpConfig==false Nothing (configurations, state) will be saved.
  Walker Samples are dumped every 1 steps.
</vmc>
    Restarting, cummulative properties:
      energy     = -2.0245e+00
      variance   = 0.0000e+00
      r2accepted = 1.0000e-10
      r2proposed = 1.0000e-10
  Set drift_modifier UNR parameter a = 1.0000e+00
 Using QMCCostFunction::QMCCostFunction
  Set drift_modifier UNR parameter a = 1.0000e+00
  EstimatorManagerBase::add replace LocalEnergy estimator.
<optimization-report>
<vmc stage="main" blocks="500">
  Cannot make clones again. Use existing 1 clones
  Initial partition of walkers 0 1 

  Using Particle by Particle moves
  Walker moves without drift
  Total Sample Size   =512000
  Walker distribution on root = 0 1 
  Using Locality Approximation
===== Memory Usage after the buffer registration =====
Available memory on node 0, free + buffers : 52257 MB
Memory footprint by rank 0 on node 0       : 578 MB
==================================================
  Anonymous Buffer size per walker : 1184 Bytes.
MEMORY increase 0 MB VMC::resetRun
====================================================
  SimpleFixedNodeBranch::finalize after a VMC block
    QMC counter        = 1
    time step          = 0.15
    reference energy   = -2.0224
    reference variance = 0.0266126
====================================================
  Execution time = 2.9993e+00
</vmc>
<opt stage="setup">
  <log>
   Reading configurations from h5FileRoot Ga.log.s001
  QMCCostFunction is created with 1 threads.
  Using Nonlocal PP in Opt: NonLocalECP
   Number of samples loaded to each thread : 500 
  VMC Eavg = -1.9938e+00
  VMC Evar = 6.1111e-01
  Total weights = 5.1200e+05
  Execution time = 8.4252e-01
  </log>
</opt>
<opt stage="main" walkers="512000">
  <log>

*****************************************
Building overlap and Hamiltonian matrices
*****************************************

Among totally 82 optimized parameters, largest LM parameter change : 3.3061e-02 at parameter 20

******************************************************************************
Init Cost =  -1.8636e+00    New Cost =  -1.8748e+00  Delta Cost =  -1.1201e-02
******************************************************************************

The new set of parameters is valid. Updating the trial wave function!

*****************************************************************************
Applying the update for shift_i =   1.0000e-02     and shift_s =   2.5000e-01
*****************************************************************************
  Execution time = 4.8313e+00
  </log>
  <optVariables href="Ga.log.s001.opt.xml">
   uu_0                 2.495795e-01 1 1  ON 0
   uu_1                 2.757462e-01 1 1  ON 1
   uu_2                 1.367938e-01 1 1  ON 2
   uu_3                 6.624751e-02 1 1  ON 3
   uu_4                -4.290004e-03 1 1  ON 4
   uu_5                -6.271795e-02 1 1  ON 5
   uu_6                -9.715691e-02 1 1  ON 6
   uu_7                -1.107947e-01 1 1  ON 7
   uu_8                -1.002998e-01 1 1  ON 8
   uu_9                -8.280462e-02 1 1  ON 9
   ud_0                 1.379025e+00 1 1  ON 10
   ud_1                 1.028418e+00 1 1  ON 11
   ud_2                 7.641254e-01 1 1  ON 12
   ud_3                 5.577417e-01 1 1  ON 13
   ud_4                 3.984063e-01 1 1  ON 14
   ud_5                 2.638779e-01 1 1  ON 15
   ud_6                 1.408267e-01 1 1  ON 16
   ud_7                 4.477822e-02 1 1  ON 17
   ud_8                -1.816583e-02 1 1  ON 18
   ud_9                -6.458710e-02 1 1  ON 19
  eGa_0                -4.776862e-01 1 1  ON 20
  eGa_1                -3.973994e-01 1 1  ON 21
  eGa_2                -4.752060e-01 1 1  ON 22
  eGa_3                -3.261577e-01 1 1  ON 23
  eGa_4                -1.544715e-01 1 1  ON 24
  eGa_5                -1.791530e-02 1 1  ON 25
  eGa_6                 1.008136e-01 1 1  ON 26
  eGa_7                 2.037503e-01 1 1  ON 27
  eGa_8                 2.475143e-01 1 1  ON 28
  eGa_9                 2.646949e-01 1 1  ON 29
 uuGa_0                 7.637008e-05 1 1  ON 30
 uuGa_1                 1.673723e-04 1 1  ON 31
 uuGa_2                 1.313026e-04 1 1  ON 32
 uuGa_3                -1.718048e-04 1 1  ON 33
 uuGa_4                -5.495795e-05 1 1  ON 34
 uuGa_5                 5.599127e-06 1 1  ON 35
 uuGa_6                 4.894578e-05 1 1  ON 36
 uuGa_7                 3.325462e-04 1 1  ON 37
 uuGa_8                 2.969741e-04 1 1  ON 38
 uuGa_9                -2.604372e-04 1 1  ON 39
uuGa_10                -8.748343e-05 1 1  ON 40
uuGa_11                -2.584937e-04 1 1  ON 41
uuGa_12                -5.614562e-05 1 1  ON 42
uuGa_13                 2.789680e-04 1 1  ON 43
uuGa_14                 7.906476e-05 1 1  ON 44
uuGa_15                -2.598692e-06 1 1  ON 45
uuGa_16                 1.244440e-04 1 1  ON 46
uuGa_17                 2.497815e-04 1 1  ON 47
uuGa_18                 6.866195e-05 1 1  ON 48
uuGa_19                 3.539422e-06 1 1  ON 49
uuGa_20                -1.090178e-04 1 1  ON 50
uuGa_21                -1.503656e-05 1 1  ON 51
uuGa_22                 2.510029e-06 1 1  ON 52
uuGa_23                 2.549537e-05 1 1  ON 53
uuGa_24                 5.561226e-07 1 1  ON 54
uuGa_25                -5.192231e-07 1 1  ON 55
 udGa_0                -9.454871e-05 1 1  ON 56
 udGa_1                -2.545660e-04 1 1  ON 57
 udGa_2                -4.828379e-05 1 1  ON 58
 udGa_3                 2.951157e-04 1 1  ON 59
 udGa_4                 6.023130e-05 1 1  ON 60
 udGa_5                 1.133163e-05 1 1  ON 61
 udGa_6                -6.032533e-05 1 1  ON 62
 udGa_7                -6.517946e-05 1 1  ON 63
 udGa_8                -2.252768e-04 1 1  ON 64
 udGa_9                 1.259407e-04 1 1  ON 65
udGa_10                 1.729070e-04 1 1  ON 66
udGa_11                 5.237257e-05 1 1  ON 67
udGa_12                 6.256595e-05 1 1  ON 68
udGa_13                -3.180295e-04 1 1  ON 69
udGa_14                -6.465649e-05 1 1  ON 70
udGa_15                 4.387582e-07 1 1  ON 71
udGa_16                 8.900786e-05 1 1  ON 72
udGa_17                -3.487558e-04 1 1  ON 73
udGa_18                 6.056610e-05 1 1  ON 74
udGa_19                -2.253747e-05 1 1  ON 75
udGa_20                 7.356817e-05 1 1  ON 76
udGa_21                 9.304398e-07 1 1  ON 77
udGa_22                 1.011858e-06 1 1  ON 78
udGa_23                -1.296482e-05 1 1  ON 79
udGa_24                 1.048188e-06 1 1  ON 80
udGa_25                -1.400604e-07 1 1  ON 81
  </optVariables>
   Restore the number of walkers to 1, removing 0 walkers.
</opt>
</optimization-report>
  QMC Execution time = 4.846 secs
  Reusing QMCFixedSampleLinearOptimize
 Using QMCCostFunction::QMCCostFunction

=========================================================
  Start QMCFixedSampleLinearOptimize
  File Root Ga.log.s002 append = no 
=========================================================
  Skip QMCDriver::putQMCInfo 
  Resetting Properties of the walkers 1 x 13

=========================================================
  Start VMC
  File Root Ga.log.s002 append = no 
=========================================================
Using existing walkers 
  Resetting Properties of the walkers 1 x 13

<vmc function="put">
  qmc_counter=1  my_counter=1
  time step      = 1.5000e-01
  blocks         = 500
  steps          = 1
  substeps       = 5
  current        = 0
  target samples = 5.1200e+05
  walkers/mpi    = 1

  stepsbetweensamples = 1
<parameter name="blocks" condition="int">500</parameter>
<parameter name="blocks_between_recompute" condition="int">0</parameter>
<parameter name="check_properties" condition="int">100</parameter>
<parameter name="checkproperties" condition="int">100</parameter>
<parameter name="current" condition="int">0</parameter>
<parameter name="dmcwalkersperthread" condition="real">5.0000e+02</parameter>
<parameter name="maxcpusecs" condition="real">3.6000e+05</parameter>
<parameter name="record_configs" condition="int">0</parameter>
<parameter name="record_walkers" condition="int">1</parameter>
<parameter name="recordconfigs" condition="int">0</parameter>
<parameter name="recordwalkers" condition="int">1</parameter>
<parameter name="rewind" condition="int">0</parameter>
<parameter name="samples" condition="real">5.1200e+05</parameter>
<parameter name="samplesperthread" condition="real">5.0000e+02</parameter>
<parameter name="steps" condition="int">1</parameter>
<parameter name="stepsbetweensamples" condition="int">1</parameter>
<parameter name="store_configs" condition="int">0</parameter>
<parameter name="storeconfigs" condition="int">0</parameter>
<parameter name="sub_steps" condition="int">5</parameter>
<parameter name="substeps" condition="int">5</parameter>
<parameter name="tau" condition="au">1.5000e-01</parameter>
<parameter name="time_step" condition="au">1.5000e-01</parameter>
<parameter name="timestep" condition="au">1.5000e-01</parameter>
<parameter name="use_drift" condition="string">no</parameter>
<parameter name="usedrift" condition="string">no</parameter>
<parameter name="walkers" condition="int">1</parameter>
<parameter name="warmup_steps" condition="int">0</parameter>
<parameter name="warmupsteps" condition="int">0</parameter>
  DumpConfig==false Nothing (configurations, state) will be saved.
  Walker Samples are dumped every 1 steps.
</vmc>
  Set drift_modifier UNR parameter a = 1.0000e+00
  EstimatorManagerBase::add replace LocalEnergy estimator.
  Set drift_modifier UNR parameter a = 1.0000e+00
  EstimatorManagerBase::add replace LocalEnergy estimator.
<optimization-report>
<vmc stage="main" blocks="500">
  Cannot make clones again. Use existing 1 clones
  Initial partition of walkers 0 1 
  Using Particle by Particle moves
  Walker moves without drift
  Total Sample Size   =512000
  Walker distribution on root = 0 1 
  Using Locality Approximation
===== Memory Usage after the buffer registration =====
Available memory on node 0, free + buffers : 51543 MB
Memory footprint by rank 0 on node 0       : 594 MB
==================================================
====================================================
  SimpleFixedNodeBranch::finalize after a VMC block
    QMC counter        = 2
    time step          = 0.15
    reference energy   = -2.02744
    reference variance = 0.0290979
====================================================
  Execution time = 3.0393e+00
</vmc>
<opt stage="setup">
  <log>
   Reading configurations from h5FileRoot Ga.log.s002
  QMCCostFunction is created with 1 threads.
  Using Nonlocal PP in Opt: NonLocalECP
   Number of samples loaded to each thread : 500 
  VMC Eavg = -1.9994e+00
  VMC Evar = 4.1522e-01
  Total weights = 5.1200e+05
  Execution time = 8.2927e-01
  </log>
</opt>
<opt stage="main" walkers="512000">
  <log>

*****************************************
Building overlap and Hamiltonian matrices
*****************************************

Among totally 82 optimized parameters, largest LM parameter change : 2.0511e-02 at parameter 20

******************************************************************************
Init Cost =  -1.8787e+00    New Cost =  -1.8802e+00  Delta Cost =  -1.4798e-03
******************************************************************************

The new set of parameters is valid. Updating the trial wave function!

*****************************************************************************
Applying the update for shift_i =   1.0000e-02     and shift_s =   6.2500e-02
*****************************************************************************
  Execution time = 4.8288e+00
  </log>
  <optVariables href="Ga.log.s002.opt.xml">
   uu_0                 2.552302e-01 1 1  ON 0
   uu_1                 2.802177e-01 1 1  ON 1
   uu_2                 1.556474e-01 1 1  ON 2
   uu_3                 8.203125e-02 1 1  ON 3
   uu_4                 3.146991e-03 1 1  ON 4
   uu_5                -6.535457e-02 1 1  ON 5
   uu_6                -1.026385e-01 1 1  ON 6
   uu_7                -1.135635e-01 1 1  ON 7
   uu_8                -1.009588e-01 1 1  ON 8
   uu_9                -8.445167e-02 1 1  ON 9
   ud_0                 1.385657e+00 1 1  ON 10
   ud_1                 1.021913e+00 1 1  ON 11
   ud_2                 7.614970e-01 1 1  ON 12
   ud_3                 5.616393e-01 1 1  ON 13
   ud_4                 4.111832e-01 1 1  ON 14
   ud_5                 2.827447e-01 1 1  ON 15
   ud_6                 1.591161e-01 1 1  ON 16
   ud_7                 6.121999e-02 1 1  ON 17
   ud_8                -4.296859e-03 1 1  ON 18
   ud_9                -4.973931e-02 1 1  ON 19
  eGa_0                -4.981977e-01 1 1  ON 20
  eGa_1                -3.877417e-01 1 1  ON 21
  eGa_2                -4.680634e-01 1 1  ON 22
  eGa_3                -3.338822e-01 1 1  ON 23
  eGa_4                -1.542580e-01 1 1  ON 24
  eGa_5                -2.781539e-02 1 1  ON 25
  eGa_6                 9.537917e-02 1 1  ON 26
  eGa_7                 1.858950e-01 1 1  ON 27
  eGa_8                 2.376128e-01 1 1  ON 28
  eGa_9                 2.604109e-01 1 1  ON 29
 uuGa_0                 9.520655e-05 1 1  ON 30
 uuGa_1                 1.969920e-04 1 1  ON 31
 uuGa_2                 1.130982e-04 1 1  ON 32
 uuGa_3                -1.963980e-04 1 1  ON 33
 uuGa_4                -5.316964e-05 1 1  ON 34
 uuGa_5                 2.911291e-06 1 1  ON 35
 uuGa_6                 5.319902e-05 1 1  ON 36
 uuGa_7                 3.284420e-04 1 1  ON 37
 uuGa_8                 2.911264e-04 1 1  ON 38
 uuGa_9                -2.817781e-04 1 1  ON 39
uuGa_10                -1.014365e-04 1 1  ON 40
uuGa_11                -2.403044e-04 1 1  ON 41
uuGa_12                -5.195011e-05 1 1  ON 42
uuGa_13                 3.152243e-04 1 1  ON 43
uuGa_14                 7.881342e-05 1 1  ON 44
uuGa_15                -3.129160e-06 1 1  ON 45
uuGa_16                 9.700241e-05 1 1  ON 46
uuGa_17                 2.936850e-04 1 1  ON 47
uuGa_18                 4.701725e-05 1 1  ON 48
uuGa_19                 1.063462e-06 1 1  ON 49
uuGa_20                -1.118876e-04 1 1  ON 50
uuGa_21                -1.271363e-05 1 1  ON 51
uuGa_22                 2.884999e-06 1 1  ON 52
uuGa_23                 2.573084e-05 1 1  ON 53
uuGa_24                 3.876230e-07 1 1  ON 54
uuGa_25                -6.034409e-07 1 1  ON 55
 udGa_0                -5.963245e-05 1 1  ON 56
 udGa_1                -2.837628e-04 1 1  ON 57
 udGa_2                -8.968865e-05 1 1  ON 58
 udGa_3                 3.001698e-04 1 1  ON 59
 udGa_4                 6.586450e-05 1 1  ON 60
 udGa_5                 1.526517e-05 1 1  ON 61
 udGa_6                -1.568481e-04 1 1  ON 62
 udGa_7                -2.868707e-05 1 1  ON 63
 udGa_8                -2.450341e-04 1 1  ON 64
 udGa_9                 1.507032e-04 1 1  ON 65
udGa_10                 1.788754e-04 1 1  ON 66
udGa_11                 4.221178e-05 1 1  ON 67
udGa_12                 6.694889e-05 1 1  ON 68
udGa_13                -3.248947e-04 1 1  ON 69
udGa_14                -6.468665e-05 1 1  ON 70
udGa_15                 1.541982e-07 1 1  ON 71
udGa_16                 8.456068e-05 1 1  ON 72
udGa_17                -3.648091e-04 1 1  ON 73
udGa_18                 8.184011e-05 1 1  ON 74
udGa_19                -2.528232e-05 1 1  ON 75
udGa_20                 7.159612e-05 1 1  ON 76
udGa_21                -2.789890e-06 1 1  ON 77
udGa_22                 1.485314e-06 1 1  ON 78
udGa_23                -1.073628e-05 1 1  ON 79
udGa_24                 1.747801e-06 1 1  ON 80
udGa_25                -2.362522e-07 1 1  ON 81
  </optVariables>
   Restore the number of walkers to 1, removing 0 walkers.
</opt>
</optimization-report>
  QMC Execution time = 4.98 secs
  Reusing QMCFixedSampleLinearOptimize
 Using QMCCostFunction::QMCCostFunction

=========================================================
  Start QMCFixedSampleLinearOptimize
  File Root Ga.log.s003 append = no 
=========================================================
  Skip QMCDriver::putQMCInfo 
  Resetting Properties of the walkers 1 x 13

=========================================================
  Start VMC
  File Root Ga.log.s003 append = no 
=========================================================
Using existing walkers 
  Resetting Properties of the walkers 1 x 13

<vmc function="put">
  qmc_counter=2  my_counter=2
  time step      = 1.5000e-01
  blocks         = 500
  steps          = 1
  substeps       = 5
  current        = 0
  target samples = 5.1200e+05
  walkers/mpi    = 1

  stepsbetweensamples = 1
<parameter name="blocks" condition="int">500</parameter>
<parameter name="blocks_between_recompute" condition="int">0</parameter>
<parameter name="check_properties" condition="int">100</parameter>
<parameter name="checkproperties" condition="int">100</parameter>
<parameter name="current" condition="int">0</parameter>
<parameter name="dmcwalkersperthread" condition="real">5.0000e+02</parameter>
<parameter name="maxcpusecs" condition="real">3.6000e+05</parameter>
<parameter name="record_configs" condition="int">0</parameter>
<parameter name="record_walkers" condition="int">1</parameter>
<parameter name="recordconfigs" condition="int">0</parameter>
<parameter name="recordwalkers" condition="int">1</parameter>
<parameter name="rewind" condition="int">0</parameter>
<parameter name="samples" condition="real">5.1200e+05</parameter>
<parameter name="samplesperthread" condition="real">5.0000e+02</parameter>
<parameter name="steps" condition="int">1</parameter>
<parameter name="stepsbetweensamples" condition="int">1</parameter>
<parameter name="store_configs" condition="int">0</parameter>
<parameter name="storeconfigs" condition="int">0</parameter>
<parameter name="sub_steps" condition="int">5</parameter>
<parameter name="substeps" condition="int">5</parameter>
<parameter name="tau" condition="au">1.5000e-01</parameter>
<parameter name="time_step" condition="au">1.5000e-01</parameter>
<parameter name="timestep" condition="au">1.5000e-01</parameter>
<parameter name="use_drift" condition="string">no</parameter>
<parameter name="usedrift" condition="string">no</parameter>
<parameter name="walkers" condition="int">1</parameter>
<parameter name="warmup_steps" condition="int">0</parameter>
<parameter name="warmupsteps" condition="int">0</parameter>
  DumpConfig==false Nothing (configurations, state) will be saved.
  Walker Samples are dumped every 1 steps.
</vmc>
  Set drift_modifier UNR parameter a = 1.0000e+00
  EstimatorManagerBase::add replace LocalEnergy estimator.
  Set drift_modifier UNR parameter a = 1.0000e+00
  EstimatorManagerBase::add replace LocalEnergy estimator.
<optimization-report>
<vmc stage="main" blocks="500">
  Cannot make clones again. Use existing 1 clones
  Initial partition of walkers 0 1 
  Using Particle by Particle moves
  Walker moves without drift
  Total Sample Size   =512000
  Walker distribution on root = 0 1 
  Using Locality Approximation
===== Memory Usage after the buffer registration =====
Available memory on node 0, free + buffers : 51539 MB
Memory footprint by rank 0 on node 0       : 597 MB
==================================================
====================================================
  SimpleFixedNodeBranch::finalize after a VMC block
    QMC counter        = 3
    time step          = 0.15
    reference energy   = -2.01329
    reference variance = 0.0349294
====================================================
  Execution time = 3.0437e+00
</vmc>
<opt stage="setup">
  <log>
   Reading configurations from h5FileRoot Ga.log.s003
  QMCCostFunction is created with 1 threads.
  Using Nonlocal PP in Opt: NonLocalECP
   Number of samples loaded to each thread : 500 
  VMC Eavg = -2.0013e+00
  VMC Evar = 3.8671e-01
  Total weights = 5.1200e+05
  Execution time = 8.4081e-01
  </log>
</opt>
<opt stage="main" walkers="512000">
  <log>

*****************************************
Building overlap and Hamiltonian matrices
*****************************************

Among totally 82 optimized parameters, largest LM parameter change : 2.4860e-02 at parameter 20

******************************************************************************
Init Cost =  -1.8819e+00    New Cost =  -1.8817e+00  Delta Cost =   1.9652e-04
******************************************************************************

The new set of parameters is valid. Updating the trial wave function!

*****************************************************************************
Applying the update for shift_i =   1.0000e-02     and shift_s =   1.5625e-02
*****************************************************************************
  Execution time = 4.8765e+00
  </log>
  <optVariables href="Ga.log.s003.opt.xml">
   uu_0                 2.616705e-01 1 1  ON 0
   uu_1                 2.860831e-01 1 1  ON 1
   uu_2                 1.655504e-01 1 1  ON 2
   uu_3                 8.931635e-02 1 1  ON 3
   uu_4                 9.021958e-03 1 1  ON 4
   uu_5                -6.186707e-02 1 1  ON 5
   uu_6                -1.016580e-01 1 1  ON 6
   uu_7                -1.139206e-01 1 1  ON 7
   uu_8                -9.990585e-02 1 1  ON 8
   uu_9                -8.896801e-02 1 1  ON 9
   ud_0                 1.388407e+00 1 1  ON 10
   ud_1                 1.020818e+00 1 1  ON 11
   ud_2                 7.646953e-01 1 1  ON 12
   ud_3                 5.673488e-01 1 1  ON 13
   ud_4                 4.174173e-01 1 1  ON 14
   ud_5                 2.918388e-01 1 1  ON 15
   ud_6                 1.718785e-01 1 1  ON 16
   ud_7                 7.732005e-02 1 1  ON 17
   ud_8                 1.180626e-02 1 1  ON 18
   ud_9                -3.583893e-02 1 1  ON 19
  eGa_0                -5.230574e-01 1 1  ON 20
  eGa_1                -3.904612e-01 1 1  ON 21
  eGa_2                -4.580692e-01 1 1  ON 22
  eGa_3                -3.311725e-01 1 1  ON 23
  eGa_4                -1.538027e-01 1 1  ON 24
  eGa_5                -4.034951e-02 1 1  ON 25
  eGa_6                 8.539935e-02 1 1  ON 26
  eGa_7                 1.809284e-01 1 1  ON 27
  eGa_8                 2.285121e-01 1 1  ON 28
  eGa_9                 2.538290e-01 1 1  ON 29
 uuGa_0                 1.206693e-04 1 1  ON 30
 uuGa_1                 8.860394e-05 1 1  ON 31
 uuGa_2                 5.787937e-05 1 1  ON 32
 uuGa_3                -1.591057e-04 1 1  ON 33
 uuGa_4                -3.399149e-05 1 1  ON 34
 uuGa_5                 1.364525e-05 1 1  ON 35
 uuGa_6                -1.307034e-04 1 1  ON 36
 uuGa_7                 3.653200e-04 1 1  ON 37
 uuGa_8                 2.379205e-04 1 1  ON 38
 uuGa_9                -1.981668e-04 1 1  ON 39
uuGa_10                -6.411560e-05 1 1  ON 40
uuGa_11                -2.346961e-04 1 1  ON 41
uuGa_12                -3.530398e-05 1 1  ON 42
uuGa_13                 2.850401e-04 1 1  ON 43
uuGa_14                 6.941741e-05 1 1  ON 44
uuGa_15                -3.648004e-06 1 1  ON 45
uuGa_16                 3.212635e-05 1 1  ON 46
uuGa_17                 2.689641e-04 1 1  ON 47
uuGa_18                 5.359100e-05 1 1  ON 48
uuGa_19                -5.586792e-06 1 1  ON 49
uuGa_20                -9.880241e-05 1 1  ON 50
uuGa_21                -1.270651e-05 1 1  ON 51
uuGa_22                 3.391383e-06 1 1  ON 52
uuGa_23                 2.414221e-05 1 1  ON 53
uuGa_24                 6.171550e-07 1 1  ON 54
uuGa_25                -6.654797e-07 1 1  ON 55
 udGa_0                -6.034854e-05 1 1  ON 56
 udGa_1                -3.473564e-04 1 1  ON 57
 udGa_2                -1.061823e-04 1 1  ON 58
 udGa_3                 3.343197e-04 1 1  ON 59
 udGa_4                 7.719536e-05 1 1  ON 60
 udGa_5                 2.010483e-05 1 1  ON 61
 udGa_6                -2.204448e-04 1 1  ON 62
 udGa_7                -1.655756e-05 1 1  ON 63
 udGa_8                -2.655932e-04 1 1  ON 64
 udGa_9                 1.852899e-04 1 1  ON 65
udGa_10                 2.056790e-04 1 1  ON 66
udGa_11                 3.382870e-05 1 1  ON 67
udGa_12                 7.511224e-05 1 1  ON 68
udGa_13                -3.499957e-04 1 1  ON 69
udGa_14                -6.860051e-05 1 1  ON 70
udGa_15                -2.427476e-07 1 1  ON 71
udGa_16                 7.904062e-05 1 1  ON 72
udGa_17                -3.905464e-04 1 1  ON 73
udGa_18                 9.719865e-05 1 1  ON 74
udGa_19                -2.999377e-05 1 1  ON 75
udGa_20                 7.499125e-05 1 1  ON 76
udGa_21                -4.904028e-06 1 1  ON 77
udGa_22                 2.148228e-06 1 1  ON 78
udGa_23                -1.045383e-05 1 1  ON 79
udGa_24                 2.343776e-06 1 1  ON 80
udGa_25                -3.797377e-07 1 1  ON 81
  </optVariables>
   Restore the number of walkers to 1, removing 0 walkers.
</opt>
</optimization-report>
  QMC Execution time = 4.892 secs
  Reusing QMCFixedSampleLinearOptimize
 Using QMCCostFunction::QMCCostFunction

=========================================================
  Start QMCFixedSampleLinearOptimize
  File Root Ga.log.s004 append = no 
=========================================================
  Skip QMCDriver::putQMCInfo 
  Resetting Properties of the walkers 1 x 13

=========================================================
  Start VMC
  File Root Ga.log.s004 append = no 
=========================================================
Using existing walkers 
  Resetting Properties of the walkers 1 x 13

<vmc function="put">
  qmc_counter=3  my_counter=3
  time step      = 1.5000e-01
  blocks         = 500
  steps          = 1
  substeps       = 5
  current        = 0
  target samples = 5.1200e+05
  walkers/mpi    = 1

  stepsbetweensamples = 1
<parameter name="blocks" condition="int">500</parameter>
<parameter name="blocks_between_recompute" condition="int">0</parameter>
<parameter name="check_properties" condition="int">100</parameter>
<parameter name="checkproperties" condition="int">100</parameter>
<parameter name="current" condition="int">0</parameter>
<parameter name="dmcwalkersperthread" condition="real">5.0000e+02</parameter>
<parameter name="maxcpusecs" condition="real">3.6000e+05</parameter>
<parameter name="record_configs" condition="int">0</parameter>
<parameter name="record_walkers" condition="int">1</parameter>
<parameter name="recordconfigs" condition="int">0</parameter>
<parameter name="recordwalkers" condition="int">1</parameter>
<parameter name="rewind" condition="int">0</parameter>
<parameter name="samples" condition="real">5.1200e+05</parameter>
<parameter name="samplesperthread" condition="real">5.0000e+02</parameter>
<parameter name="steps" condition="int">1</parameter>
<parameter name="stepsbetweensamples" condition="int">1</parameter>
<parameter name="store_configs" condition="int">0</parameter>
<parameter name="storeconfigs" condition="int">0</parameter>
<parameter name="sub_steps" condition="int">5</parameter>
<parameter name="substeps" condition="int">5</parameter>
<parameter name="tau" condition="au">1.5000e-01</parameter>
<parameter name="time_step" condition="au">1.5000e-01</parameter>
<parameter name="timestep" condition="au">1.5000e-01</parameter>
<parameter name="use_drift" condition="string">no</parameter>
<parameter name="usedrift" condition="string">no</parameter>
<parameter name="walkers" condition="int">1</parameter>
<parameter name="warmup_steps" condition="int">0</parameter>
<parameter name="warmupsteps" condition="int">0</parameter>
  DumpConfig==false Nothing (configurations, state) will be saved.
  Walker Samples are dumped every 1 steps.
</vmc>
  Set drift_modifier UNR parameter a = 1.0000e+00
  EstimatorManagerBase::add replace LocalEnergy estimator.
  Set drift_modifier UNR parameter a = 1.0000e+00
  EstimatorManagerBase::add replace LocalEnergy estimator.
<optimization-report>
<vmc stage="main" blocks="500">
  Cannot make clones again. Use existing 1 clones
  Initial partition of walkers 0 1 
  Using Particle by Particle moves
  Walker moves without drift
  Total Sample Size   =512000
  Walker distribution on root = 0 1 
  Using Locality Approximation
===== Memory Usage after the buffer registration =====
Available memory on node 0, free + buffers : 51537 MB
Memory footprint by rank 0 on node 0       : 600 MB
==================================================
====================================================
  SimpleFixedNodeBranch::finalize after a VMC block
    QMC counter        = 4
    time step          = 0.15
    reference energy   = -2.02763
    reference variance = 0.032257
====================================================
  Execution time = 3.0629e+00
</vmc>
<opt stage="setup">
  <log>
   Reading configurations from h5FileRoot Ga.log.s004
  QMCCostFunction is created with 1 threads.
  Using Nonlocal PP in Opt: NonLocalECP
   Number of samples loaded to each thread : 500 
  VMC Eavg = -2.0029e+00
  VMC Evar = 4.1970e-01
  Total weights = 5.1200e+05
  Execution time = 9.1242e-01
  </log>
</opt>
<opt stage="main" walkers="512000">
  <log>

*****************************************
Building overlap and Hamiltonian matrices
*****************************************

Among totally 82 optimized parameters, largest LM parameter change : 3.1585e-02 at parameter 20

******************************************************************************
Init Cost =  -1.8818e+00    New Cost =  -1.8808e+00  Delta Cost =   9.9602e-04
******************************************************************************

The new set of parameters is valid. Updating the trial wave function!

*****************************************************************************
Applying the update for shift_i =   1.0000e-02     and shift_s =   3.9062e-03
*****************************************************************************
  Execution time = 5.0304e+00
  </log>
  <optVariables href="Ga.log.s004.opt.xml">
   uu_0                 2.692030e-01 1 1  ON 0
   uu_1                 2.951322e-01 1 1  ON 1
   uu_2                 1.772981e-01 1 1  ON 2
   uu_3                 1.049348e-01 1 1  ON 3
   uu_4                 2.052156e-02 1 1  ON 4
   uu_5                -5.501244e-02 1 1  ON 5
   uu_6                -9.910403e-02 1 1  ON 6
   uu_7                -1.159563e-01 1 1  ON 7
   uu_8                -1.008737e-01 1 1  ON 8
   uu_9                -9.164877e-02 1 1  ON 9
   ud_0                 1.393340e+00 1 1  ON 10
   ud_1                 1.023356e+00 1 1  ON 11
   ud_2                 7.738517e-01 1 1  ON 12
   ud_3                 5.769288e-01 1 1  ON 13
   ud_4                 4.274618e-01 1 1  ON 14
   ud_5                 3.015771e-01 1 1  ON 15
   ud_6                 1.806782e-01 1 1  ON 16
   ud_7                 8.639839e-02 1 1  ON 17
   ud_8                 1.691365e-02 1 1  ON 18
   ud_9                -2.675329e-02 1 1  ON 19
  eGa_0                -5.546427e-01 1 1  ON 20
  eGa_1                -3.808671e-01 1 1  ON 21
  eGa_2                -4.676648e-01 1 1  ON 22
  eGa_3                -3.281783e-01 1 1  ON 23
  eGa_4                -1.498889e-01 1 1  ON 24
  eGa_5                -4.641801e-02 1 1  ON 25
  eGa_6                 8.282487e-02 1 1  ON 26
  eGa_7                 1.819858e-01 1 1  ON 27
  eGa_8                 2.187162e-01 1 1  ON 28
  eGa_9                 2.413856e-01 1 1  ON 29
 uuGa_0                 1.393416e-04 1 1  ON 30
 uuGa_1                 5.352132e-05 1 1  ON 31
 uuGa_2                 2.518019e-05 1 1  ON 32
 uuGa_3                -1.630115e-04 1 1  ON 33
 uuGa_4                -2.983560e-05 1 1  ON 34
 uuGa_5                 1.638748e-05 1 1  ON 35
 uuGa_6                -2.099834e-04 1 1  ON 36
 uuGa_7                 3.419778e-04 1 1  ON 37
 uuGa_8                 2.233254e-04 1 1  ON 38
 uuGa_9                -1.522145e-04 1 1  ON 39
uuGa_10                -6.489104e-05 1 1  ON 40
uuGa_11                -2.116645e-04 1 1  ON 41
uuGa_12                -3.508974e-05 1 1  ON 42
uuGa_13                 3.013607e-04 1 1  ON 43
uuGa_14                 6.987637e-05 1 1  ON 44
uuGa_15                -3.645955e-06 1 1  ON 45
uuGa_16                -2.134069e-05 1 1  ON 46
uuGa_17                 2.965857e-04 1 1  ON 47
uuGa_18                 4.128606e-05 1 1  ON 48
uuGa_19                -4.021586e-06 1 1  ON 49
uuGa_20                -1.046947e-04 1 1  ON 50
uuGa_21                -1.244514e-05 1 1  ON 51
uuGa_22                 3.262119e-06 1 1  ON 52
uuGa_23                 2.887051e-05 1 1  ON 53
uuGa_24                 4.980589e-07 1 1  ON 54
uuGa_25                -6.474297e-07 1 1  ON 55
 udGa_0                -5.852554e-05 1 1  ON 56
 udGa_1                 9.635736e-06 1 1  ON 57
 udGa_2                -8.134978e-05 1 1  ON 58
 udGa_3                 1.456476e-04 1 1  ON 59
 udGa_4                 4.015859e-05 1 1  ON 60
 udGa_5                -1.846867e-05 1 1  ON 61
 udGa_6                 2.232675e-04 1 1  ON 62
 udGa_7                -3.123959e-04 1 1  ON 63
 udGa_8                -2.367778e-04 1 1  ON 64
 udGa_9                -4.170154e-06 1 1  ON 65
udGa_10                 5.171725e-05 1 1  ON 66
udGa_11                 2.214730e-04 1 1  ON 67
udGa_12                 4.852868e-05 1 1  ON 68
udGa_13                -1.777292e-04 1 1  ON 69
udGa_14                -6.570437e-05 1 1  ON 70
udGa_15                 1.521452e-06 1 1  ON 71
udGa_16                 1.161133e-04 1 1  ON 72
udGa_17                -1.898197e-04 1 1  ON 73
udGa_18                -6.409364e-05 1 1  ON 74
udGa_19                -7.145978e-06 1 1  ON 75
udGa_20                 2.930301e-05 1 1  ON 76
udGa_21                 1.413600e-05 1 1  ON 77
udGa_22                -1.102245e-06 1 1  ON 78
udGa_23                -2.116126e-06 1 1  ON 79
udGa_24                -1.323106e-06 1 1  ON 80
udGa_25                 2.349769e-07 1 1  ON 81
  </optVariables>
   Restore the number of walkers to 1, removing 0 walkers.
</opt>
</optimization-report>
  QMC Execution time = 5.045 secs
  Reusing QMCFixedSampleLinearOptimize
 Using QMCCostFunction::QMCCostFunction

=========================================================
  Start QMCFixedSampleLinearOptimize
  File Root Ga.log.s005 append = no 
=========================================================
  Skip QMCDriver::putQMCInfo 
  Resetting Properties of the walkers 1 x 13

=========================================================
  Start VMC
  File Root Ga.log.s005 append = no 
=========================================================
Using existing walkers 
  Resetting Properties of the walkers 1 x 13

<vmc function="put">
  qmc_counter=4  my_counter=4
  time step      = 1.5000e-01
  blocks         = 500
  steps          = 1
  substeps       = 5
  current        = 0
  target samples = 5.1200e+05
  walkers/mpi    = 1

  stepsbetweensamples = 1
<parameter name="blocks" condition="int">500</parameter>
<parameter name="blocks_between_recompute" condition="int">0</parameter>
<parameter name="check_properties" condition="int">100</parameter>
<parameter name="checkproperties" condition="int">100</parameter>
<parameter name="current" condition="int">0</parameter>
<parameter name="dmcwalkersperthread" condition="real">5.0000e+02</parameter>
<parameter name="maxcpusecs" condition="real">3.6000e+05</parameter>
<parameter name="record_configs" condition="int">0</parameter>
<parameter name="record_walkers" condition="int">1</parameter>
<parameter name="recordconfigs" condition="int">0</parameter>
<parameter name="recordwalkers" condition="int">1</parameter>
<parameter name="rewind" condition="int">0</parameter>
<parameter name="samples" condition="real">5.1200e+05</parameter>
<parameter name="samplesperthread" condition="real">5.0000e+02</parameter>
<parameter name="steps" condition="int">1</parameter>
<parameter name="stepsbetweensamples" condition="int">1</parameter>
<parameter name="store_configs" condition="int">0</parameter>
<parameter name="storeconfigs" condition="int">0</parameter>
<parameter name="sub_steps" condition="int">5</parameter>
<parameter name="substeps" condition="int">5</parameter>
<parameter name="tau" condition="au">1.5000e-01</parameter>
<parameter name="time_step" condition="au">1.5000e-01</parameter>
<parameter name="timestep" condition="au">1.5000e-01</parameter>
<parameter name="use_drift" condition="string">no</parameter>
<parameter name="usedrift" condition="string">no</parameter>
<parameter name="walkers" condition="int">1</parameter>
<parameter name="warmup_steps" condition="int">0</parameter>
<parameter name="warmupsteps" condition="int">0</parameter>
  DumpConfig==false Nothing (configurations, state) will be saved.
  Walker Samples are dumped every 1 steps.
</vmc>
  Set drift_modifier UNR parameter a = 1.0000e+00
  EstimatorManagerBase::add replace LocalEnergy estimator.
  Set drift_modifier UNR parameter a = 1.0000e+00
  EstimatorManagerBase::add replace LocalEnergy estimator.
<optimization-report>
<vmc stage="main" blocks="500">
  Cannot make clones again. Use existing 1 clones
  Initial partition of walkers 0 1 
  Using Particle by Particle moves
  Walker moves without drift
  Total Sample Size   =512000
  Walker distribution on root = 0 1 
  Using Locality Approximation
===== Memory Usage after the buffer registration =====
Available memory on node 0, free + buffers : 51534 MB
Memory footprint by rank 0 on node 0       : 603 MB
==================================================
====================================================
  SimpleFixedNodeBranch::finalize after a VMC block
    QMC counter        = 5
    time step          = 0.15
    reference energy   = -2.02211
    reference variance = 0.0329175
====================================================
  Execution time = 3.0776e+00
</vmc>
<opt stage="setup">
  <log>
   Reading configurations from h5FileRoot Ga.log.s005
  QMCCostFunction is created with 1 threads.
  Using Nonlocal PP in Opt: NonLocalECP
   Number of samples loaded to each thread : 500 
  VMC Eavg = -2.0020e+00
  VMC Evar = 4.8705e-01
  Total weights = 5.1200e+05
  Execution time = 8.2923e-01
  </log>
</opt>
<opt stage="main" walkers="512000">
  <log>

*****************************************
Building overlap and Hamiltonian matrices
*****************************************

Among totally 82 optimized parameters, largest LM parameter change : 1.6975e-02 at parameter 20

******************************************************************************
Init Cost =  -1.8776e+00    New Cost =  -1.8793e+00  Delta Cost =  -1.7348e-03
******************************************************************************

The new set of parameters is valid. Updating the trial wave function!

*****************************************************************************
Applying the update for shift_i =   1.0000e-02     and shift_s =   3.9062e-03
*****************************************************************************
  Execution time = 4.7380e+00
  </log>
  <optVariables href="Ga.log.s005.opt.xml">
   uu_0                 2.755403e-01 1 1  ON 0
   uu_1                 3.018785e-01 1 1  ON 1
   uu_2                 1.844180e-01 1 1  ON 2
   uu_3                 1.115488e-01 1 1  ON 3
   uu_4                 2.932479e-02 1 1  ON 4
   uu_5                -4.235094e-02 1 1  ON 5
   uu_6                -8.628544e-02 1 1  ON 6
   uu_7                -1.049904e-01 1 1  ON 7
   uu_8                -1.023259e-01 1 1  ON 8
   uu_9                -9.725135e-02 1 1  ON 9
   ud_0                 1.399109e+00 1 1  ON 10
   ud_1                 1.025335e+00 1 1  ON 11
   ud_2                 7.725272e-01 1 1  ON 12
   ud_3                 5.771591e-01 1 1  ON 13
   ud_4                 4.305362e-01 1 1  ON 14
   ud_5                 3.058626e-01 1 1  ON 15
   ud_6                 1.868581e-01 1 1  ON 16
   ud_7                 9.452447e-02 1 1  ON 17
   ud_8                 2.449206e-02 1 1  ON 18
   ud_9                -1.875281e-02 1 1  ON 19
  eGa_0                -5.716176e-01 1 1  ON 20
  eGa_1                -3.841357e-01 1 1  ON 21
  eGa_2                -4.654679e-01 1 1  ON 22
  eGa_3                -3.329016e-01 1 1  ON 23
  eGa_4                -1.602137e-01 1 1  ON 24
  eGa_5                -5.756378e-02 1 1  ON 25
  eGa_6                 7.581116e-02 1 1  ON 26
  eGa_7                 1.746742e-01 1 1  ON 27
  eGa_8                 2.218335e-01 1 1  ON 28
  eGa_9                 2.409542e-01 1 1  ON 29
 uuGa_0                 1.531288e-04 1 1  ON 30
 uuGa_1                 1.595941e-04 1 1  ON 31
 uuGa_2                 3.566697e-05 1 1  ON 32
 uuGa_3                -2.233208e-04 1 1  ON 33
 uuGa_4                -4.287294e-05 1 1  ON 34
 uuGa_5                 7.580566e-06 1 1  ON 35
 uuGa_6                -8.865985e-05 1 1  ON 36
 uuGa_7                 2.972632e-04 1 1  ON 37
 uuGa_8                 2.509709e-04 1 1  ON 38
 uuGa_9                -2.340208e-04 1 1  ON 39
uuGa_10                -1.117776e-04 1 1  ON 40
uuGa_11                -1.855127e-04 1 1  ON 41
uuGa_12                -4.522393e-05 1 1  ON 42
uuGa_13                 3.670714e-04 1 1  ON 43
uuGa_14                 7.694970e-05 1 1  ON 44
uuGa_15                -3.528730e-06 1 1  ON 45
uuGa_16                 1.541694e-05 1 1  ON 46
uuGa_17                 3.652967e-04 1 1  ON 47
uuGa_18                 7.125800e-06 1 1  ON 48
uuGa_19                 1.317210e-06 1 1  ON 49
uuGa_20                -1.264751e-04 1 1  ON 50
uuGa_21                -8.961671e-06 1 1  ON 51
uuGa_22                 2.731577e-06 1 1  ON 52
uuGa_23                 3.261431e-05 1 1  ON 53
uuGa_24                -3.279078e-07 1 1  ON 54
uuGa_25                -5.455010e-07 1 1  ON 55
 udGa_0                -8.220938e-05 1 1  ON 56
 udGa_1                -1.845364e-04 1 1  ON 57
 udGa_2                -8.801647e-05 1 1  ON 58
 udGa_3                 2.592528e-04 1 1  ON 59
 udGa_4                 5.828077e-05 1 1  ON 60
 udGa_5                 7.298450e-06 1 1  ON 61
 udGa_6                 2.757392e-05 1 1  ON 62
 udGa_7                -1.875047e-04 1 1  ON 63
 udGa_8                -2.790906e-04 1 1  ON 64
 udGa_9                 8.843683e-05 1 1  ON 65
udGa_10                 1.300829e-04 1 1  ON 66
udGa_11                 1.662243e-04 1 1  ON 67
udGa_12                 6.707242e-05 1 1  ON 68
udGa_13                -2.860002e-04 1 1  ON 69
udGa_14                -7.748678e-05 1 1  ON 70
udGa_15                 1.121538e-06 1 1  ON 71
udGa_16                 9.108509e-05 1 1  ON 72
udGa_17                -3.027732e-04 1 1  ON 73
udGa_18                -1.713713e-05 1 1  ON 74
udGa_19                -1.672974e-05 1 1  ON 75
udGa_20                 6.505867e-05 1 1  ON 76
udGa_21                 1.189191e-05 1 1  ON 77
udGa_22                -4.164317e-07 1 1  ON 78
udGa_23                -1.028871e-05 1 1  ON 79
udGa_24                -8.325959e-07 1 1  ON 80
udGa_25                 1.646847e-07 1 1  ON 81
  </optVariables>
   Restore the number of walkers to 1, removing 0 walkers.
</opt>
</optimization-report>
  QMC Execution time = 4.752 secs
  Reusing QMCFixedSampleLinearOptimize
 Using QMCCostFunction::QMCCostFunction

=========================================================
  Start QMCFixedSampleLinearOptimize
  File Root Ga.log.s006 append = no 
=========================================================
  Skip QMCDriver::putQMCInfo 
  Resetting Properties of the walkers 1 x 13

=========================================================
  Start VMC
  File Root Ga.log.s006 append = no 
=========================================================
Using existing walkers 
  Resetting Properties of the walkers 1 x 13

<vmc function="put">
  qmc_counter=5  my_counter=5
  time step      = 1.5000e-01
  blocks         = 500
  steps          = 1
  substeps       = 5
  current        = 0
  target samples = 5.1200e+05
  walkers/mpi    = 1

  stepsbetweensamples = 1
<parameter name="blocks" condition="int">500</parameter>
<parameter name="blocks_between_recompute" condition="int">0</parameter>
<parameter name="check_properties" condition="int">100</parameter>
<parameter name="checkproperties" condition="int">100</parameter>
<parameter name="current" condition="int">0</parameter>
<parameter name="dmcwalkersperthread" condition="real">5.0000e+02</parameter>
<parameter name="maxcpusecs" condition="real">3.6000e+05</parameter>
<parameter name="record_configs" condition="int">0</parameter>
<parameter name="record_walkers" condition="int">1</parameter>
<parameter name="recordconfigs" condition="int">0</parameter>
<parameter name="recordwalkers" condition="int">1</parameter>
<parameter name="rewind" condition="int">0</parameter>
<parameter name="samples" condition="real">5.1200e+05</parameter>
<parameter name="samplesperthread" condition="real">5.0000e+02</parameter>
<parameter name="steps" condition="int">1</parameter>
<parameter name="stepsbetweensamples" condition="int">1</parameter>
<parameter name="store_configs" condition="int">0</parameter>
<parameter name="storeconfigs" condition="int">0</parameter>
<parameter name="sub_steps" condition="int">5</parameter>
<parameter name="substeps" condition="int">5</parameter>
<parameter name="tau" condition="au">1.5000e-01</parameter>
<parameter name="time_step" condition="au">1.5000e-01</parameter>
<parameter name="timestep" condition="au">1.5000e-01</parameter>
<parameter name="use_drift" condition="string">no</parameter>
<parameter name="usedrift" condition="string">no</parameter>
<parameter name="walkers" condition="int">1</parameter>
<parameter name="warmup_steps" condition="int">0</parameter>
<parameter name="warmupsteps" condition="int">0</parameter>
  DumpConfig==false Nothing (configurations, state) will be saved.
  Walker Samples are dumped every 1 steps.
</vmc>
  Set drift_modifier UNR parameter a = 1.0000e+00
  EstimatorManagerBase::add replace LocalEnergy estimator.
  Set drift_modifier UNR parameter a = 1.0000e+00
  EstimatorManagerBase::add replace LocalEnergy estimator.
<optimization-report>
<vmc stage="main" blocks="500">
  Cannot make clones again. Use existing 1 clones
  Initial partition of walkers 0 1 
  Using Particle by Particle moves
  Walker moves without drift
  Total Sample Size   =512000
  Walker distribution on root = 0 1 
  Using Locality Approximation
===== Memory Usage after the buffer registration =====
Available memory on node 0, free + buffers : 51530 MB
Memory footprint by rank 0 on node 0       : 606 MB
==================================================
====================================================
  SimpleFixedNodeBranch::finalize after a VMC block
    QMC counter        = 6
    time step          = 0.15
    reference energy   = -2.01965
    reference variance = 0.0287531
====================================================
  Execution time = 3.0796e+00
</vmc>
<opt stage="setup">
  <log>
   Reading configurations from h5FileRoot Ga.log.s006
  QMCCostFunction is created with 1 threads.
  Using Nonlocal PP in Opt: NonLocalECP
   Number of samples loaded to each thread : 500 
  VMC Eavg = -1.9999e+00
  VMC Evar = 4.1559e-01
  Total weights = 5.1200e+05
  Execution time = 6.3075e-01
  </log>
</opt>
<opt stage="main" walkers="512000">
  <log>

*****************************************
Building overlap and Hamiltonian matrices
*****************************************

Among totally 82 optimized parameters, largest LM parameter change : 1.4051e-02 at parameter 23

******************************************************************************
Init Cost =  -1.8791e+00    New Cost =  -1.8798e+00  Delta Cost =  -6.9605e-04
******************************************************************************

The new set of parameters is valid. Updating the trial wave function!

*****************************************************************************
Applying the update for shift_i =   1.0000e-02     and shift_s =   3.9062e-03
*****************************************************************************
  Execution time = 4.4659e+00
  </log>
  <optVariables href="Ga.log.s006.opt.xml">
   uu_0                 2.815866e-01 1 1  ON 0
   uu_1                 3.081663e-01 1 1  ON 1
   uu_2                 1.889601e-01 1 1  ON 2
   uu_3                 1.132939e-01 1 1  ON 3
   uu_4                 2.820869e-02 1 1  ON 4
   uu_5                -4.419846e-02 1 1  ON 5
   uu_6                -8.956440e-02 1 1  ON 6
   uu_7                -1.099700e-01 1 1  ON 7
   uu_8                -9.758698e-02 1 1  ON 8
   uu_9                -8.769896e-02 1 1  ON 9
   ud_0                 1.400716e+00 1 1  ON 10
   ud_1                 1.027787e+00 1 1  ON 11
   ud_2                 7.757249e-01 1 1  ON 12
   ud_3                 5.828315e-01 1 1  ON 13
   ud_4                 4.375893e-01 1 1  ON 14
   ud_5                 3.130878e-01 1 1  ON 15
   ud_6                 1.937761e-01 1 1  ON 16
   ud_7                 9.743993e-02 1 1  ON 17
   ud_8                 2.817786e-02 1 1  ON 18
   ud_9                -1.675246e-02 1 1  ON 19
  eGa_0                -5.785485e-01 1 1  ON 20
  eGa_1                -3.937136e-01 1 1  ON 21
  eGa_2                -4.706167e-01 1 1  ON 22
  eGa_3                -3.469530e-01 1 1  ON 23
  eGa_4                -1.729644e-01 1 1  ON 24
  eGa_5                -6.518100e-02 1 1  ON 25
  eGa_6                 6.983736e-02 1 1  ON 26
  eGa_7                 1.741550e-01 1 1  ON 27
  eGa_8                 2.169933e-01 1 1  ON 28
  eGa_9                 2.387513e-01 1 1  ON 29
 uuGa_0                 1.293846e-04 1 1  ON 30
 uuGa_1                 1.104957e-04 1 1  ON 31
 uuGa_2                 6.454067e-05 1 1  ON 32
 uuGa_3                -1.819043e-04 1 1  ON 33
 uuGa_4                -4.184425e-05 1 1  ON 34
 uuGa_5                 1.099022e-05 1 1  ON 35
 uuGa_6                -1.082588e-04 1 1  ON 36
 uuGa_7                 3.586847e-04 1 1  ON 37
 uuGa_8                 2.623018e-04 1 1  ON 38
 uuGa_9                -2.201871e-04 1 1  ON 39
uuGa_10                -8.127442e-05 1 1  ON 40
uuGa_11                -2.434557e-04 1 1  ON 41
uuGa_12                -4.340410e-05 1 1  ON 42
uuGa_13                 3.177542e-04 1 1  ON 43
uuGa_14                 7.690485e-05 1 1  ON 44
uuGa_15                -3.648770e-06 1 1  ON 45
uuGa_16                 5.791213e-05 1 1  ON 46
uuGa_17                 2.927812e-04 1 1  ON 47
uuGa_18                 5.952329e-05 1 1  ON 48
uuGa_19                -3.560228e-06 1 1  ON 49
uuGa_20                -1.202695e-04 1 1  ON 50
uuGa_21                -1.462043e-05 1 1  ON 51
uuGa_22                 3.495685e-06 1 1  ON 52
uuGa_23                 3.131444e-05 1 1  ON 53
uuGa_24                 5.921517e-07 1 1  ON 54
uuGa_25                -6.895102e-07 1 1  ON 55
 udGa_0                -1.107669e-04 1 1  ON 56
 udGa_1                -4.612884e-04 1 1  ON 57
 udGa_2                -6.563951e-05 1 1  ON 58
 udGa_3                 4.000609e-04 1 1  ON 59
 udGa_4                 7.411836e-05 1 1  ON 60
 udGa_5                 3.226937e-05 1 1  ON 61
 udGa_6                -3.009907e-04 1 1  ON 62
 udGa_7                 5.948801e-05 1 1  ON 63
 udGa_8                -2.521286e-04 1 1  ON 64
 udGa_9                 2.589962e-04 1 1  ON 65
udGa_10                 2.451250e-04 1 1  ON 66
udGa_11                -1.595038e-05 1 1  ON 67
udGa_12                 7.186647e-05 1 1  ON 68
udGa_13                -4.186535e-04 1 1  ON 69
udGa_14                -6.720035e-05 1 1  ON 70
udGa_15                 8.427355e-08 1 1  ON 71
udGa_16                 4.486890e-05 1 1  ON 72
udGa_17                -4.539025e-04 1 1  ON 73
udGa_18                 1.286424e-04 1 1  ON 74
udGa_19                -2.890883e-05 1 1  ON 75
udGa_20                 1.000340e-04 1 1  ON 76
udGa_21                -7.448830e-06 1 1  ON 77
udGa_22                 1.921273e-06 1 1  ON 78
udGa_23                -1.578819e-05 1 1  ON 79
udGa_24                 2.556915e-06 1 1  ON 80
udGa_25                -3.194918e-07 1 1  ON 81
  </optVariables>
   Restore the number of walkers to 1, removing 0 walkers.
</opt>
</optimization-report>
  QMC Execution time = 4.481 secs
  Reusing QMCFixedSampleLinearOptimize
 Using QMCCostFunction::QMCCostFunction

=========================================================
  Start QMCFixedSampleLinearOptimize
  File Root Ga.log.s007 append = no 
=========================================================
  Skip QMCDriver::putQMCInfo 
  Resetting Properties of the walkers 1 x 13

=========================================================
  Start VMC
  File Root Ga.log.s007 append = no 
=========================================================
Using existing walkers 
  Resetting Properties of the walkers 1 x 13

<vmc function="put">
  qmc_counter=6  my_counter=6
  time step      = 1.5000e-01
  blocks         = 500
  steps          = 1
  substeps       = 5
  current        = 0
  target samples = 5.1200e+05
  walkers/mpi    = 1

  stepsbetweensamples = 1
<parameter name="blocks" condition="int">500</parameter>
<parameter name="blocks_between_recompute" condition="int">0</parameter>
<parameter name="check_properties" condition="int">100</parameter>
<parameter name="checkproperties" condition="int">100</parameter>
<parameter name="current" condition="int">0</parameter>
<parameter name="dmcwalkersperthread" condition="real">5.0000e+02</parameter>
<parameter name="maxcpusecs" condition="real">3.6000e+05</parameter>
<parameter name="record_configs" condition="int">0</parameter>
<parameter name="record_walkers" condition="int">1</parameter>
<parameter name="recordconfigs" condition="int">0</parameter>
<parameter name="recordwalkers" condition="int">1</parameter>
<parameter name="rewind" condition="int">0</parameter>
<parameter name="samples" condition="real">5.1200e+05</parameter>
<parameter name="samplesperthread" condition="real">5.0000e+02</parameter>
<parameter name="steps" condition="int">1</parameter>
<parameter name="stepsbetweensamples" condition="int">1</parameter>
<parameter name="store_configs" condition="int">0</parameter>
<parameter name="storeconfigs" condition="int">0</parameter>
<parameter name="sub_steps" condition="int">5</parameter>
<parameter name="substeps" condition="int">5</parameter>
<parameter name="tau" condition="au">1.5000e-01</parameter>
<parameter name="time_step" condition="au">1.5000e-01</parameter>
<parameter name="timestep" condition="au">1.5000e-01</parameter>
<parameter name="use_drift" condition="string">no</parameter>
<parameter name="usedrift" condition="string">no</parameter>
<parameter name="walkers" condition="int">1</parameter>
<parameter name="warmup_steps" condition="int">0</parameter>
<parameter name="warmupsteps" condition="int">0</parameter>
  DumpConfig==false Nothing (configurations, state) will be saved.
  Walker Samples are dumped every 1 steps.
</vmc>
  Set drift_modifier UNR parameter a = 1.0000e+00
  EstimatorManagerBase::add replace LocalEnergy estimator.
  Set drift_modifier UNR parameter a = 1.0000e+00
  EstimatorManagerBase::add replace LocalEnergy estimator.
<optimization-report>
<vmc stage="main" blocks="500">
  Cannot make clones again. Use existing 1 clones
  Initial partition of walkers 0 1 
  Using Particle by Particle moves
  Walker moves without drift
  Total Sample Size   =512000
  Walker distribution on root = 0 1 
  Using Locality Approximation
===== Memory Usage after the buffer registration =====
Available memory on node 0, free + buffers : 51524 MB
Memory footprint by rank 0 on node 0       : 609 MB
==================================================
====================================================
  SimpleFixedNodeBranch::finalize after a VMC block
    QMC counter        = 7
    time step          = 0.15
    reference energy   = -2.02506
    reference variance = 0.0357645
====================================================
  Execution time = 3.0722e+00
</vmc>
<opt stage="setup">
  <log>
   Reading configurations from h5FileRoot Ga.log.s007
  QMCCostFunction is created with 1 threads.
  Using Nonlocal PP in Opt: NonLocalECP
   Number of samples loaded to each thread : 500 
  VMC Eavg = -2.0023e+00
  VMC Evar = 4.1304e-01
  Total weights = 5.1200e+05
  Execution time = 6.3841e-01
  </log>
</opt>
<opt stage="main" walkers="512000">
  <log>

*****************************************
Building overlap and Hamiltonian matrices
*****************************************

Among totally 82 optimized parameters, largest LM parameter change : 1.5018e-02 at parameter 20

******************************************************************************
Init Cost =  -1.8815e+00    New Cost =  -1.8810e+00  Delta Cost =   4.7842e-04
******************************************************************************

The new set of parameters is valid. Updating the trial wave function!

*****************************************************************************
Applying the update for shift_i =   1.0000e-02     and shift_s =   3.9062e-03
*****************************************************************************
  Execution time = 4.4779e+00
  </log>
  <optVariables href="Ga.log.s007.opt.xml">
   uu_0                 2.877623e-01 1 1  ON 0
   uu_1                 3.140151e-01 1 1  ON 1
   uu_2                 1.940784e-01 1 1  ON 2
   uu_3                 1.172476e-01 1 1  ON 3
   uu_4                 3.087539e-02 1 1  ON 4
   uu_5                -4.315577e-02 1 1  ON 5
   uu_6                -9.022848e-02 1 1  ON 6
   uu_7                -1.058740e-01 1 1  ON 7
   uu_8                -9.702857e-02 1 1  ON 8
   uu_9                -8.768973e-02 1 1  ON 9
   ud_0                 1.403115e+00 1 1  ON 10
   ud_1                 1.031536e+00 1 1  ON 11
   ud_2                 7.826993e-01 1 1  ON 12
   ud_3                 5.897336e-01 1 1  ON 13
   ud_4                 4.429453e-01 1 1  ON 14
   ud_5                 3.162222e-01 1 1  ON 15
   ud_6                 1.939836e-01 1 1  ON 16
   ud_7                 9.970241e-02 1 1  ON 17
   ud_8                 3.237485e-02 1 1  ON 18
   ud_9                -1.266602e-02 1 1  ON 19
  eGa_0                -5.935667e-01 1 1  ON 20
  eGa_1                -4.060340e-01 1 1  ON 21
  eGa_2                -4.797478e-01 1 1  ON 22
  eGa_3                -3.517504e-01 1 1  ON 23
  eGa_4                -1.795480e-01 1 1  ON 24
  eGa_5                -7.038704e-02 1 1  ON 25
  eGa_6                 5.912771e-02 1 1  ON 26
  eGa_7                 1.621016e-01 1 1  ON 27
  eGa_8                 2.213197e-01 1 1  ON 28
  eGa_9                 2.363442e-01 1 1  ON 29
 uuGa_0                 1.261723e-04 1 1  ON 30
 uuGa_1                 1.493959e-04 1 1  ON 31
 uuGa_2                 7.136768e-05 1 1  ON 32
 uuGa_3                -1.793377e-04 1 1  ON 33
 uuGa_4                -3.813354e-05 1 1  ON 34
 uuGa_5                 7.317612e-06 1 1  ON 35
 uuGa_6                -4.642024e-05 1 1  ON 36
 uuGa_7                 3.165117e-04 1 1  ON 37
 uuGa_8                 2.485456e-04 1 1  ON 38
 uuGa_9                -2.508617e-04 1 1  ON 39
uuGa_10                -7.640812e-05 1 1  ON 40
uuGa_11                -2.281868e-04 1 1  ON 41
uuGa_12                -3.867717e-05 1 1  ON 42
uuGa_13                 3.111085e-04 1 1  ON 43
uuGa_14                 6.978619e-05 1 1  ON 44
uuGa_15                -3.427382e-06 1 1  ON 45
uuGa_16                 8.262214e-05 1 1  ON 46
uuGa_17                 2.729679e-04 1 1  ON 47
uuGa_18                 5.625358e-05 1 1  ON 48
uuGa_19                -4.900917e-06 1 1  ON 49
uuGa_20                -1.191092e-04 1 1  ON 50
uuGa_21                -1.304429e-05 1 1  ON 51
uuGa_22                 3.391028e-06 1 1  ON 52
uuGa_23                 3.059008e-05 1 1  ON 53
uuGa_24                 4.342297e-07 1 1  ON 54
uuGa_25                -6.576382e-07 1 1  ON 55
 udGa_0                -7.708591e-05 1 1  ON 56
 udGa_1                -2.381527e-04 1 1  ON 57
 udGa_2                -6.698282e-05 1 1  ON 58
 udGa_3                 2.805704e-04 1 1  ON 59
 udGa_4                 5.660857e-05 1 1  ON 60
 udGa_5                 1.294496e-05 1 1  ON 61
 udGa_6                -1.955517e-05 1 1  ON 62
 udGa_7                -1.205049e-04 1 1  ON 63
 udGa_8                -2.436854e-04 1 1  ON 64
 udGa_9                 7.900929e-05 1 1  ON 65
[...]
   uu_2                 2.443712e-01 1 1  ON 2
   uu_3                 1.475849e-01 1 1  ON 3
   uu_4                 5.035702e-02 1 1  ON 4
   uu_5                -3.081673e-02 1 1  ON 5
   uu_6                -7.695778e-02 1 1  ON 6
   uu_7                -9.522435e-02 1 1  ON 7
   uu_8                -8.574456e-02 1 1  ON 8
   uu_9                -7.730068e-02 1 1  ON 9
   ud_0                 1.457696e+00 1 1  ON 10
   ud_1                 1.090200e+00 1 1  ON 11
   ud_2                 8.382728e-01 1 1  ON 12
   ud_3                 6.454181e-01 1 1  ON 13
   ud_4                 4.984387e-01 1 1  ON 14
   ud_5                 3.735283e-01 1 1  ON 15
   ud_6                 2.504468e-01 1 1  ON 16
   ud_7                 1.484549e-01 1 1  ON 17
   ud_8                 7.122985e-02 1 1  ON 18
   ud_9                 1.473106e-02 1 1  ON 19
  eGa_0                -6.385589e-01 1 1  ON 20
  eGa_1                -5.108917e-01 1 1  ON 21
  eGa_2                -5.968682e-01 1 1  ON 22
  eGa_3                -4.641681e-01 1 1  ON 23
  eGa_4                -2.838056e-01 1 1  ON 24
  eGa_5                -1.539543e-01 1 1  ON 25
  eGa_6                -1.080462e-02 1 1  ON 26
  eGa_7                 1.076775e-01 1 1  ON 27
  eGa_8                 1.686081e-01 1 1  ON 28
  eGa_9                 2.184085e-01 1 1  ON 29
 uuGa_0                 1.042758e-04 1 1  ON 30
 uuGa_1                 1.795662e-04 1 1  ON 31
 uuGa_2                 1.102256e-04 1 1  ON 32
 uuGa_3                -2.120702e-04 1 1  ON 33
 uuGa_4                -5.417988e-05 1 1  ON 34
 uuGa_5                 5.192758e-06 1 1  ON 35
 uuGa_6                 1.271302e-05 1 1  ON 36
 uuGa_7                 3.347569e-04 1 1  ON 37
 uuGa_8                 3.041122e-04 1 1  ON 38
 uuGa_9                -2.783322e-04 1 1  ON 39
uuGa_10                -1.066242e-04 1 1  ON 40
uuGa_11                -2.374904e-04 1 1  ON 41
uuGa_12                -5.494707e-05 1 1  ON 42
uuGa_13                 3.592894e-04 1 1  ON 43
uuGa_14                 8.424060e-05 1 1  ON 44
uuGa_15                -3.355428e-06 1 1  ON 45
uuGa_16                 7.128704e-05 1 1  ON 46
uuGa_17                 3.468852e-04 1 1  ON 47
uuGa_18                 3.103504e-05 1 1  ON 48
uuGa_19                 2.530548e-06 1 1  ON 49
uuGa_20                -1.318845e-04 1 1  ON 50
uuGa_21                -1.120029e-05 1 1  ON 51
uuGa_22                 2.785678e-06 1 1  ON 52
uuGa_23                 3.275602e-05 1 1  ON 53
uuGa_24                -2.028927e-07 1 1  ON 54
uuGa_25                -5.563839e-07 1 1  ON 55
 udGa_0                -5.883675e-05 1 1  ON 56
 udGa_1                -4.253619e-04 1 1  ON 57
 udGa_2                -9.834001e-05 1 1  ON 58
 udGa_3                 3.534993e-04 1 1  ON 59
 udGa_4                 7.469957e-05 1 1  ON 60
 udGa_5                 3.070752e-05 1 1  ON 61
 udGa_6                -3.299813e-04 1 1  ON 62
 udGa_7                 5.032248e-05 1 1  ON 63
 udGa_8                -2.517803e-04 1 1  ON 64
 udGa_9                 2.279149e-04 1 1  ON 65
udGa_10                 2.227999e-04 1 1  ON 66
udGa_11                -4.819804e-06 1 1  ON 67
udGa_12                 7.228540e-05 1 1  ON 68
udGa_13                -3.627052e-04 1 1  ON 69
udGa_14                -6.465674e-05 1 1  ON 70
udGa_15                -1.914770e-07 1 1  ON 71
udGa_16                 6.557295e-05 1 1  ON 72
udGa_17                -4.091103e-04 1 1  ON 73
udGa_18                 1.173968e-04 1 1  ON 74
udGa_19                -2.954712e-05 1 1  ON 75
udGa_20                 7.631377e-05 1 1  ON 76
udGa_21                -6.186778e-06 1 1  ON 77
udGa_22                 2.012322e-06 1 1  ON 78
udGa_23                -9.750302e-06 1 1  ON 79
udGa_24                 2.100076e-06 1 1  ON 80
udGa_25                -3.037498e-07 1 1  ON 81
  </optVariables>
   Restore the number of walkers to 1, removing 0 walkers.
</opt>
</optimization-report>
  QMC Execution time = 4.497 secs

=========================================================
  Start VMC
  File Root Ga.log.s021 append = no 
=========================================================
  Using the current 1 walkers.
  Total number of walkers: 1024
  Total weight: 1024
  Resetting Properties of the walkers 1 x 13

<vmc function="put">
  qmc_counter=0  my_counter=0
  time step      = 0.15
  blocks         = 200
  steps          = 1
  substeps       = 30
  current        = 0
  target samples = 4096
  walkers/mpi    = 1

  stepsbetweensamples = 50
<parameter name="blocks" condition="int">200</parameter>
<parameter name="blocks_between_recompute" condition="int">0</parameter>
<parameter name="check_properties" condition="int">100</parameter>
<parameter name="checkproperties" condition="int">100</parameter>
<parameter name="current" condition="int">0</parameter>
<parameter name="dmcwalkersperthread" condition="real">4</parameter>
<parameter name="maxcpusecs" condition="real">3.6e+05</parameter>
<parameter name="record_configs" condition="int">0</parameter>
<parameter name="record_walkers" condition="int">50</parameter>
<parameter name="recordconfigs" condition="int">0</parameter>
<parameter name="recordwalkers" condition="int">50</parameter>
<parameter name="rewind" condition="int">0</parameter>
<parameter name="samples" condition="real">4096</parameter>
<parameter name="samplesperthread" condition="real">4</parameter>
<parameter name="steps" condition="int">1</parameter>
<parameter name="stepsbetweensamples" condition="int">50</parameter>
<parameter name="store_configs" condition="int">0</parameter>
<parameter name="storeconfigs" condition="int">0</parameter>
<parameter name="sub_steps" condition="int">30</parameter>
<parameter name="substeps" condition="int">30</parameter>
<parameter name="tau" condition="au">0.15</parameter>
<parameter name="time_step" condition="au">0.15</parameter>
<parameter name="timestep" condition="au">0.15</parameter>
<parameter name="use_drift" condition="string">no</parameter>
<parameter name="usedrift" condition="string">no</parameter>
<parameter name="walkers" condition="int">1</parameter>
<parameter name="warmup_steps" condition="int">100</parameter>
<parameter name="warmupsteps" condition="int">100</parameter>
  DumpConfig==true Configurations are dumped to config.h5 with a period of 200 blocks
  Walker Samples are dumped every 50 steps.
</vmc>
  Set drift_modifier UNR parameter a = 1
  EstimatorManagerBase::add replace LocalEnergy estimator.
  Cannot make clones again. Use existing 1 clones
  Initial partition of walkers 0 1 

  Using Particle by Particle moves
  Walker moves without drift
  Total Sample Size   =4096
  Walker distribution on root = 0 1 
  Using Locality Approximation
===== Memory Usage after the buffer registration =====
Available memory on node 0, free + buffers : 51464 MB
Memory footprint by rank 0 on node 0       : 654 MB
==================================================
  Anonymous Buffer size per walker : 1184 Bytes.
MEMORY increase 0 MB VMC::resetRun
  samples are written to the config.h5
====================================================
  SimpleFixedNodeBranch::finalize after a VMC block
    QMC counter        = 21
    time step          = 0.15
    reference energy   = -2.03427
    reference variance = 0.0407865
====================================================
  QMC Execution time = 2.035 secs

=========================================================
  Start DMC
  File Root Ga.log.s022 append = no 
=========================================================
Using existing walkers 
  Resetting Properties of the walkers 1 x 13
  Set drift_modifier UNR parameter a = 1
  EstimatorManagerBase::add replace LocalEnergy estimator.
  Cannot make clones again. Use existing 1 clones
  Total number of walkers: 4096
  Total weight: 4096
  Creating WalkerController: target  number of walkers = 4096
  Using WalkerControlMPI for dynamic population control.
  START ALL OVER 
  WalkerControlBase parameters 
    maxCopy = 2
    Max Walkers per MPI rank 9
    Min Walkers per MPI rank 1
    Using non-blocking send/recv
  QMC counter      = 22
  time step        = 0.02
  effective time step = 0.02
  trial energy     = -2.034
  reference energy = -2.034
  Feedback = 1
  reference variance = 0.04079
  target walkers = 4096
  branching cutoff scheme classic
  branch cutoff = 50 75
  Max and minimum walkers per node= 9 1
  QMC Status (BranchMode) = 0000001101
  Initial partition of walkers on a node: 0 4 
  Updates by particle-by-particle moves
  DMC moves are rejected when a node crossing is detected
  Using Non-local T-moves v1, M. Casula et al., JCP 132, 154113 (2010)
===== Memory Usage after the buffer registration =====
Available memory on node 0, free + buffers : 51399 MB
Memory footprint by rank 0 on node 0       : 667 MB
==================================================
SimpleFixedNodeBranch::checkParameters 
  Average Energy of a population  = -2.02756
  Energy Variance = 0.0355588

  Fluctuating population
  Persistent walkers are killed after 1 MC sweeps
  BranchInterval = 1
  Steps per block = 50
  Number of blocks = 150

  DMC Engine Initialization = 0.03166 secs

 Warmup is completed after 200

  TauEff     = 0.01995
 TauEff/Tau = 0.9977
  Etrial     = -2.011
 Running average of energy = -2.035
                  Variance = 0.0403
branch cutoff = 10 15
====================================================
  SimpleFixedNodeBranch::finalize after a DMC block
    QMC counter                   = 22
    time step                     = 0.02
    effective time step           = 0.0199557
    trial energy                  = -2.04609
    reference energy              = -2.03904
    reference variance            = 0.0403048
    target walkers                = 4096
    branch cutoff                 = 10 15
    Max and minimum walkers per node= 9 1
    Feedback                      = 1
    QMC Status (BranchMode)       = 0000001111
====================================================
  QMC Execution time = 149.5 secs
  Reusing DMC
BRANCH resetRun
 SimpleFixedNodeBranch::resetRun detected changes in <parameter>'s 
 BranchMode : 0000001111 0000001111
  WalkerControlBase parameters 
    maxCopy = 2
    Max Walkers per MPI rank 9
    Min Walkers per MPI rank 1
    Using non-blocking send/recv
 iParam (old):                  0                 1                22              4096                 9                 1                 1                 0
 iParam (new):                100                 1                22              4096                 9                 1                 1                 0
 vParam (old):               0.02     0.01995571466      -2.046092946      -2.039037814      -2.046388022                15                10               0.2     0.04030482348      -14887.02243              7301                 1                10                 1                 1                 1                 1
 vParam (new):               0.01     0.01995571466      -2.046092946      -2.039037814      -2.046388022                15                10               0.2     0.04030482348      -14887.02243              7301                 1                10                 1                 1                 1                 1

 Using branching cutoff scheme classic
SimpleFixedNodeBranch::checkParameters 
  Average Energy of a population  = -2.04671
  Energy Variance = 0.0472359

  Using Non-local T-moves v1, M. Casula et al., JCP 132, 154113 (2010)
===== Memory Usage after the buffer registration =====
Available memory on node 0, free + buffers : 51415 MB
Memory footprint by rank 0 on node 0       : 670 MB
==================================================

=========================================================
  Start DMC
  File Root Ga.log.s023 append = no 
=========================================================
Using existing walkers 
  Resetting Properties of the walkers 1 x 13
  Set drift_modifier UNR parameter a = 1
  EstimatorManagerBase::add replace LocalEnergy estimator.
  Cannot make clones again. Use existing 1 clones
SimpleFixedNodeBranch::checkParameters 
  Average Energy of a population  = -2.04671
  Energy Variance = 0.0473129

  Fluctuating population
  Persistent walkers are killed after 1 MC sweeps
  BranchInterval = 1
  Steps per block = 100
  Number of blocks = 200

  DMC Engine Initialization = 0.0003299713135 secs

 Warmup is completed after 100

  TauEff     = 0.009992371225
 TauEff/Tau = 0.9992371225
  Etrial     = -1.989279005
 Running average of energy = -2.039017651
                  Variance = 0.04321356473
branch cutoff = 10 15
====================================================
  SimpleFixedNodeBranch::finalize after a DMC block
    QMC counter                   = 23
    time step                     = 0.01
    effective time step           = 0.00999213
    trial energy                  = -2.0351
    reference energy              = -2.03926
    reference variance            = 0.0432136
    target walkers                = 4096
    branch cutoff                 = 10 15
    Max and minimum walkers per node= 9 1
    Feedback                      = 1
    QMC Status (BranchMode)       = 0000001111
====================================================
  QMC Execution time = 393.7 secs
  Reusing DMC
BRANCH resetRun
 SimpleFixedNodeBranch::resetRun detected changes in <parameter>'s 
 BranchMode : 0000001111 0000001111
  WalkerControlBase parameters 
    maxCopy = 2
    Max Walkers per MPI rank 9
    Min Walkers per MPI rank 1
    Using non-blocking send/recv
 iParam (old):                  0                 1                23              4096                 9                 1                 1                 0
 iParam (new):                200                 1                23              4096                 9                 1                 1                 0
 vParam (old):               0.01     0.00999213438      -2.035096661      -2.039255688      -2.037625888                15                10               0.2     0.04321356473      -40583.22582             19901                 1                10                 1                 1                 1                 1
 vParam (new):              0.005     0.00999213438      -2.035096661      -2.039255688      -2.037625888                15                10               0.2     0.04321356473      -40583.22582             19901                 1                10                 1                 1                 1                 1

 Using branching cutoff scheme classic
SimpleFixedNodeBranch::checkParameters 
  Average Energy of a population  = -2.03772
  Energy Variance = 0.0434306

  Using Non-local T-moves v1, M. Casula et al., JCP 132, 154113 (2010)
===== Memory Usage after the buffer registration =====
Available memory on node 0, free + buffers : 51395 MB
Memory footprint by rank 0 on node 0       : 673 MB
==================================================

=========================================================
  Start DMC
  File Root Ga.log.s024 append = no 
=========================================================
Using existing walkers 
  Resetting Properties of the walkers 1 x 13
  Set drift_modifier UNR parameter a = 1
  EstimatorManagerBase::add replace LocalEnergy estimator.
  Cannot make clones again. Use existing 1 clones
SimpleFixedNodeBranch::checkParameters 
  Average Energy of a population  = -2.03793
  Energy Variance = 0.043552

  Fluctuating population
  Persistent walkers are killed after 1 MC sweeps
  BranchInterval = 1
  Steps per block = 200
  Number of blocks = 250

  DMC Engine Initialization = 0.0003740787506 secs

 Warmup is completed after 200

  TauEff     = 0.004998656091
 TauEff/Tau = 0.9997312183
  Etrial     = -2.0372991
 Running average of energy = -2.038490393
                  Variance = 0.04329404883
branch cutoff = 10 15
====================================================
  SimpleFixedNodeBranch::finalize after a DMC block
    QMC counter                   = 24
    time step                     = 0.005
    effective time step           = 0.00499858
    trial energy                  = -2.03413
    reference energy              = -2.03878
    reference variance            = 0.043294
    target walkers                = 4096
    branch cutoff                 = 10 15
    Max and minimum walkers per node= 9 1
    Feedback                      = 1
    QMC Status (BranchMode)       = 0000001111
====================================================
  QMC Execution time = 990 secs
  Reusing DMC
BRANCH resetRun
 SimpleFixedNodeBranch::resetRun detected changes in <parameter>'s 
 BranchMode : 0000001111 0000001111
  WalkerControlBase parameters 
    maxCopy = 2
    Max Walkers per MPI rank 9
    Min Walkers per MPI rank 1
    Using non-blocking send/recv
 iParam (old):                  0                 1                24              4096                 9                 1                 1                 0
 iParam (new):                400                 1                24              4096                 9                 1                 1                 0
 vParam (old):              0.005    0.004998580118       -2.03412682      -2.038776284      -2.036967465                15                10               0.2     0.04329404883      -101533.0959             49801                 1                10                 1                 1                 1                 1
 vParam (new):             0.0025    0.004998580118       -2.03412682      -2.038776284      -2.036967465                15                10               0.2     0.04329404883      -101533.0959             49801                 1                10                 1                 1                 1                 1

 Using branching cutoff scheme classic
SimpleFixedNodeBranch::checkParameters 
  Average Energy of a population  = -2.03678
  Energy Variance = 0.0378859

  Using Non-local T-moves v1, M. Casula et al., JCP 132, 154113 (2010)
===== Memory Usage after the buffer registration =====
Available memory on node 0, free + buffers : 51366 MB
Memory footprint by rank 0 on node 0       : 676 MB
==================================================

=========================================================
  Start DMC
  File Root Ga.log.s025 append = no 
=========================================================
Using existing walkers 
  Resetting Properties of the walkers 1 x 13
  Set drift_modifier UNR parameter a = 1
  EstimatorManagerBase::add replace LocalEnergy estimator.
  Cannot make clones again. Use existing 1 clones
SimpleFixedNodeBranch::checkParameters 
  Average Energy of a population  = -2.03685
  Energy Variance = 0.0379194

  Fluctuating population
  Persistent walkers are killed after 1 MC sweeps
  BranchInterval = 1
  Steps per block = 400
  Number of blocks = 300

  DMC Engine Initialization = 0.0003750324249 secs

 Warmup is completed after 400

  TauEff     = 0.002499751362
 TauEff/Tau = 0.9999005449
  Etrial     = -2.234715832
 Running average of energy = -2.040367015
                  Variance = 0.04597832846
branch cutoff = 10 15
====================================================
  SimpleFixedNodeBranch::finalize after a DMC block
    QMC counter                   = 25
    time step                     = 0.0025
    effective time step           = 0.00249975
    trial energy                  = -2.04752
    reference energy              = -2.03902
    reference variance            = 0.0459783
    target walkers                = 4096
    branch cutoff                 = 10 15
    Max and minimum walkers per node= 9 1
    Feedback                      = 1
    QMC Status (BranchMode)       = 0000001111
====================================================
  QMC Execution time = 2360 secs
  Total Execution time = 3990 secs

=========================================================
  A new xml input file : Ga.log.s025.cont.xml
TACC:  Shutdown complete. Exiting. 
