TACC:  Starting up job 2983010 
TACC:  Starting parallel tasks... 
  Input file(s): K.log.qmc.in-wfj.xml 

=====================================================
                    QMCPACK 3.6.0

       (c) Copyright 2003-  QMCPACK developers

                    Please cite:
 J. Kim et al. J. Phys. Cond. Mat. 30 195901 (2018)
      https://doi.org/10.1088/1361-648X/aab9c3

  Git branch: develop
  Last git commit: 278b2da505fe49852d465a6e4d7961918d794c87
  Last git commit date: Thu Feb 14 11:22:02 2019 -0500
  Last git commit subject: Merge pull request #1379 from ye-luo/raise-boost-version
=====================================================
  Global options 

  MPI Nodes             = 1024
  MPI Nodes per group   = 1024
  MPI Group ID          = 0
  OMP 1st level threads = 1
  OMP nested threading disabled or only 1 thread on the 2nd level

  Precision used in this calculation, see definitions in the manual:
  Base precision      = double
  Full precision      = double

  Structure-of-arrays (SoA) optimization enabled

  Input XML = K.log.qmc.in-wfj.xml

  Project = K.log
  date    = 2019-02-21 12:49:49 CST
  host    = c456-024.stampede2.tacc.utexas.edu

 Random Number
 -------------
  Offset for the random number seeds based on time: 717

  Range of prime numbers to use as seeds over processors and threads = 5441-14879


 Particle Set 
 ------------
  Name: ion0
  All the species have the same mass 1
  Particle set size: 1

 Particle Set 
 ------------
  Name: e
  All the species have the same mass 1
  Particle set size: 9

 Wavefunction setup: 
 ------------------- 
  Name: psi0
  LCAO: SoaAtomicBasisSet<MultiQuintic,0>

  Distance table for similar particles (A-A):
    source/target: e
    Using structure-of-arrays (SoA) data layout
    Distance computations use open boundary conditions in 3D.


  Distance table for dissimilar particles (A-B):
    source: ion0  target: e
    Using structure-of-arrays (SoA) data layout
    Distance computations use open boundary conditions in 3D.

Reading BasisSet from HDF5 file:K.log.orbs.h5
<input node="atomicBasisSet" name="Gaussian" expandYlm="Gamess" angular="cartesian" elementType="K" normalized="no" type="Numerical" expM="0" />
  AO BasisSet for K
   Angular momentum expanded in cartesian functions x^lx y^ly z^lz according to Gamess
   Grid is created by the input paremters in h5
    Using log grid ri = 1e-06 rf = 100 npts = 1001
   R(n,l,m,s) 0 0 0 0
   R(n,l,m,s) 1 0 0 0
   R(n,l,m,s) 2 1 0 0
   R(n,l,m,s) 3 1 0 0
   R(n,l,m,s) 4 2 0 0
   R(n,l,m,s) 5 0 0 0
   R(n,l,m,s) 6 0 0 0
   R(n,l,m,s) 7 0 0 0
   R(n,l,m,s) 8 1 0 0
   R(n,l,m,s) 9 1 0 0
   R(n,l,m,s) 10 1 0 0
   R(n,l,m,s) 11 2 0 0
   R(n,l,m,s) 12 2 0 0
   R(n,l,m,s) 13 3 0 0
   R(n,l,m,s) 14 0 0 0
   R(n,l,m,s) 15 0 0 0
   R(n,l,m,s) 16 0 0 0
   R(n,l,m,s) 17 1 0 0
   R(n,l,m,s) 18 1 0 0
   R(n,l,m,s) 19 1 0 0
   R(n,l,m,s) 20 2 0 0
   R(n,l,m,s) 21 2 0 0
   R(n,l,m,s) 22 3 0 0
Expanding Ylm (angular function) according to Gamess using cartesian gaussians
Adding 1 cartesian gaussian orbitals for l= 0
Adding 1 cartesian gaussian orbitals for l= 0
Adding 3 cartesian gaussian orbitals for l= 1
Adding 3 cartesian gaussian orbitals for l= 1
Adding 6 cartesian gaussian orbitals for l= 2
Adding 1 cartesian gaussian orbitals for l= 0
Adding 1 cartesian gaussian orbitals for l= 0
Adding 1 cartesian gaussian orbitals for l= 0
Adding 3 cartesian gaussian orbitals for l= 1
Adding 3 cartesian gaussian orbitals for l= 1
Adding 3 cartesian gaussian orbitals for l= 1
Adding 6 cartesian gaussian orbitals for l= 2
Adding 6 cartesian gaussian orbitals for l= 2
Adding 10 cartesian gaussian orbitals for l= 3
Adding 1 cartesian gaussian orbitals for l= 0
Adding 1 cartesian gaussian orbitals for l= 0
Adding 1 cartesian gaussian orbitals for l= 0
Adding 3 cartesian gaussian orbitals for l= 1
Adding 3 cartesian gaussian orbitals for l= 1
Adding 3 cartesian gaussian orbitals for l= 1
Adding 6 cartesian gaussian orbitals for l= 2
Adding 6 cartesian gaussian orbitals for l= 2
Adding 10 cartesian gaussian orbitals for l= 3
  Setting cutoff radius 28.5759

   Maximum Angular Momentum  = 3
   Number of Radial functors = 23
   Basis size                = 82

  Created SPOSet builder named 'LCAOBSet' of type molecularorbital
Reuse SPOSetBuilder "LCAOBSet" type MolecularOrbital
  Building SPOSet '' with '' basis set.
Reuse SPOSetBuilder "LCAOBSet" type MolecularOrbital
  Building SPOSet '' with '' basis set.
  Creating a determinant updet group=0 sposet=updet
  Reusing a SPO set updet
Using DiracDeterminant
Using rank-1 Sherman-Morrison Fahy update

  Creating a determinant downdet group=1 sposet=downdet
  Reusing a SPO set downdet
Using DiracDeterminant
Using rank-1 Sherman-Morrison Fahy update

  FermionWF = SlaterDet
  RadialJastrowBuilder adds a functor with cusp = -0.25
 size = 10 parameters 
 cusp = -0.25
 rcut = 18
Parameter     Name      Value
uu_0 0 1 1  ON 0
uu_1 0 1 1  ON 1
uu_2 0 1 1  ON 2
uu_3 0 1 1  ON 3
uu_4 0 1 1  ON 4
uu_5 0 1 1  ON 5
uu_6 0 1 1  ON 6
uu_7 0 1 1  ON 7
uu_8 0 1 1  ON 8
uu_9 0 1 1  ON 9
  RadialJastrowBuilder adds a functor with cusp = -0.5
 size = 10 parameters 
 cusp = -0.5
 rcut = 18
Parameter     Name      Value
ud_0 0 1 1  ON 0
ud_1 0 1 1  ON 1
ud_2 0 1 1  ON 2
ud_3 0 1 1  ON 3
ud_4 0 1 1  ON 4
ud_5 0 1 1  ON 5
ud_6 0 1 1  ON 6
ud_7 0 1 1  ON 7
ud_8 0 1 1  ON 8
ud_9 0 1 1  ON 9
 size = 10 parameters 
 cusp = 0
 rcut = 18
Parameter     Name      Value
eK_0 0 1 1  ON 0
eK_1 0 1 1  ON 1
eK_2 0 1 1  ON 2
eK_3 0 1 1  ON 3
eK_4 0 1 1  ON 4
eK_5 0 1 1  ON 5
eK_6 0 1 1  ON 6
eK_7 0 1 1  ON 7
eK_8 0 1 1  ON 8
eK_9 0 1 1  ON 9
Expected 26 parameters, but found 0 in PolynomialFunctor3D.
Expected 26 parameters, but found 0 in PolynomialFunctor3D.
  QMCHamiltonian::addOperator Kinetic to H, physical Hamiltonian 
  QMCHamiltonian::addOperator ElecElec to H, physical Hamiltonian 
QMCHamiltonian::addOperatorType added type coulomb named ElecElec
  CoulombAA for ion0 is not created.  Number of particles == 1 and nonPeriodic

  ECPotential builder for pseudopotential 

  Adding pseudopotential for K
   Linear grid  ri=0 rf=10 npts = 10001
    ECPComponentBuilder::buildSemiLocalAndLocal 
    Assuming Hartree unit
   Number of angular momentum channels 3
   Maximum angular momentum channel 2
   Creating a Linear Grid Rmax=1.805
  Using global grid with delta = 0.001
   Making L=2 a local potential with a radial cutoff of 9.999
    Non-local pseudopotential parameters
    Maximum angular mementum = 1
    Number of non-local channels = 2
       l(0)=0
       l(1)=1
    Cutoff radius = 1.805
    Spherical grids and weights: 
                        1                 0                 0       0.08333333333
                       -1   1.224646799e-16                 0       0.08333333333
             0.4472135955       0.894427191                 0       0.08333333333
            -0.4472135955      0.7236067977      0.5257311121       0.08333333333
             0.4472135955      0.2763932023      0.8506508084       0.08333333333
            -0.4472135955     -0.2763932023      0.8506508084       0.08333333333
             0.4472135955     -0.7236067977      0.5257311121       0.08333333333
            -0.4472135955      -0.894427191   1.095357397e-16       0.08333333333
             0.4472135955     -0.7236067977     -0.5257311121       0.08333333333
            -0.4472135955     -0.2763932023     -0.8506508084       0.08333333333
             0.4472135955      0.2763932023     -0.8506508084       0.08333333333
            -0.4472135955      0.7236067977     -0.5257311121       0.08333333333
    Maximum cutoff radius 1.805
  QMCHamiltonian::addOperator LocalECP to H, physical Hamiltonian 

  Using NonLocalECP potential 
    Maximum grid on a sphere for NonLocalECPotential: 12
  QMCHamiltonian::addOperator NonLocalECP to H, physical Hamiltonian 
QMCHamiltonian::addOperatorType added type pseudo named PseudoPot

  QMCHamiltonian::add2WalkerProperty added
    4 to P::PropertyList 
    0 to P::Collectables 
    starting Index of the observables in P::PropertyList = 9
ParticleSetPool::randomize 
<init source="ion0" target="e">
</init>
  Initialization Execution time = 0.9526 secs
=========================================================
 Summary of QMC systems 
=========================================================
ParticleSetPool has: 

  ParticleSet e : 0 5 9 

    9

    u -3.3892092057e-01  4.7683997407e-01  1.4175643398e+00
    u  7.0442237974e-01 -3.6099450491e-02 -1.3009814166e+00
    u -3.7393946360e+00  4.5303539840e-01  1.1585963729e+00
    u -5.8417052787e-01 -1.6099400800e+00 -3.1484526845e-01
    u  1.5626866421e+00 -1.6857613858e-01  4.2265581930e-02
    d  1.5447334421e+00 -3.0171927015e+00  1.8334649756e+00
    d -1.2967492055e+00  9.7763818693e-01 -1.7157305711e+00
    d  2.0221514562e-01 -2.0180421797e+00  2.2749850265e+00
    d -7.8907886003e-01  4.6522400703e-01  2.1654448107e-02

  ParticleSet ion0 : 0 1 

    1

    K  0.0000000000e+00  0.0000000000e+00  0.0000000000e+00

  Hamiltonian h0
  Kinetic         Kinetic energy
  ElecElec        CoulombAA source/target e

  LocalECP        LocalECPotential: ion0
  NonLocalECP     NonLocalECPotential: ion0

=========================================================
  Start VMC
  File Root K.log.s000 append = no 
=========================================================
  Adding 1 walkers to 0 existing sets
  Total number of walkers: 1.0240000000e+03
  Total weight: 1.0240000000e+03
  Resetting Properties of the walkers 1 x 13

<vmc function="put">
  qmc_counter=0  my_counter=0
  time step      = 1.5000000000e-01
  blocks         = 200
  steps          = 1
  substeps       = 5
  current        = 0
  target samples = 1.0240000000e+03
  walkers/mpi    = 1

  stepsbetweensamples = 200
<parameter name="blocks" condition="int">200</parameter>
<parameter name="blocks_between_recompute" condition="int">0</parameter>
<parameter name="check_properties" condition="int">100</parameter>
<parameter name="checkproperties" condition="int">100</parameter>
<parameter name="current" condition="int">0</parameter>
<parameter name="dmcwalkersperthread" condition="real">1.0000000000e+00</parameter>
<parameter name="maxcpusecs" condition="real">3.6000000000e+05</parameter>
<parameter name="record_configs" condition="int">0</parameter>
<parameter name="record_walkers" condition="int">200</parameter>
<parameter name="recordconfigs" condition="int">0</parameter>
<parameter name="recordwalkers" condition="int">200</parameter>
<parameter name="rewind" condition="int">0</parameter>
<parameter name="samples" condition="real">1.0240000000e+03</parameter>
<parameter name="samplesperthread" condition="real">1.0000000000e+00</parameter>
<parameter name="steps" condition="int">1</parameter>
<parameter name="stepsbetweensamples" condition="int">200</parameter>
<parameter name="store_configs" condition="int">0</parameter>
<parameter name="storeconfigs" condition="int">0</parameter>
<parameter name="sub_steps" condition="int">5</parameter>
<parameter name="substeps" condition="int">5</parameter>
<parameter name="tau" condition="au">1.5000000000e-01</parameter>
<parameter name="time_step" condition="au">1.5000000000e-01</parameter>
<parameter name="timestep" condition="au">1.5000000000e-01</parameter>
<parameter name="use_drift" condition="string">no</parameter>
<parameter name="usedrift" condition="string">no</parameter>
<parameter name="walkers" condition="int">1</parameter>
<parameter name="warmup_steps" condition="int">100</parameter>
<parameter name="warmupsteps" condition="int">100</parameter>
  DumpConfig==false Nothing (configurations, state) will be saved.
  Walker Samples are dumped every 200 steps.
</vmc>
  Initial partition of walkers 0 1 

  Using Particle by Particle moves
  Walker moves without drift
  Total Sample Size   =1024
  Walker distribution on root = 0 1 
  Using Locality Approximation
===== Memory Usage after the buffer registration =====
Available memory on node 0, free + buffers : 84072 MB
Memory footprint by rank 0 on node 0       : 74 MB
==================================================
  Anonymous Buffer size per walker : 3840 Bytes.
MEMORY increase 0 MB VMC::resetRun
====================================================
  SimpleFixedNodeBranch::finalize after a VMC block
    QMC counter        = 0
    time step          = 0.15
    reference energy   = -28.0644
    reference variance = 0.766822
====================================================
  QMC Execution time = 1.1739e+00 secs
Loop execution max-interations = 5

=========================================================
  Start QMCFixedSampleLinearOptimize
  File Root K.log.s001 append = no 
=========================================================
  Skip QMCDriver::putQMCInfo 
  Resetting Properties of the walkers 1 x 13

=========================================================
  Start VMC
  File Root K.log.s001 append = no 
=========================================================
  Using the current 1 walkers.
  Total number of walkers: 1.0240e+03
  Total weight: 1.0240e+03
  Resetting Properties of the walkers 1 x 13

<vmc function="put">
  qmc_counter=0  my_counter=0
  time step      = 1.5000e-01
  blocks         = 200
  steps          = 2
  substeps       = 5
  current        = 0
  target samples = 2.5600e+05
  walkers/mpi    = 1

  stepsbetweensamples = 1
<parameter name="blocks" condition="int">200</parameter>
<parameter name="blocks_between_recompute" condition="int">0</parameter>
<parameter name="check_properties" condition="int">100</parameter>
<parameter name="checkproperties" condition="int">100</parameter>
<parameter name="current" condition="int">0</parameter>
<parameter name="dmcwalkersperthread" condition="real">2.5000e+02</parameter>
<parameter name="maxcpusecs" condition="real">3.6000e+05</parameter>
<parameter name="record_configs" condition="int">0</parameter>
<parameter name="record_walkers" condition="int">1</parameter>
<parameter name="recordconfigs" condition="int">0</parameter>
<parameter name="recordwalkers" condition="int">1</parameter>
<parameter name="rewind" condition="int">0</parameter>
<parameter name="samples" condition="real">2.5600e+05</parameter>
<parameter name="samplesperthread" condition="real">2.5000e+02</parameter>
<parameter name="steps" condition="int">2</parameter>
<parameter name="stepsbetweensamples" condition="int">1</parameter>
<parameter name="store_configs" condition="int">0</parameter>
<parameter name="storeconfigs" condition="int">0</parameter>
<parameter name="sub_steps" condition="int">5</parameter>
<parameter name="substeps" condition="int">5</parameter>
<parameter name="tau" condition="au">1.5000e-01</parameter>
<parameter name="time_step" condition="au">1.5000e-01</parameter>
<parameter name="timestep" condition="au">1.5000e-01</parameter>
<parameter name="use_drift" condition="string">no</parameter>
<parameter name="usedrift" condition="string">no</parameter>
<parameter name="walkers" condition="int">1</parameter>
<parameter name="warmup_steps" condition="int">0</parameter>
<parameter name="warmupsteps" condition="int">0</parameter>
  DumpConfig==false Nothing (configurations, state) will be saved.
  Walker Samples are dumped every 1 steps.
</vmc>
    Restarting, cummulative properties:
      energy     = -2.8064e+01
      variance   = 0.0000e+00
      r2accepted = 1.0000e-10
      r2proposed = 1.0000e-10
 Using QMCCostFunction::QMCCostFunction
  EstimatorManagerBase::add replace LocalEnergy estimator.
<optimization-report>
<vmc stage="main" blocks="200">
  Cannot make clones again. Use existing 1 clones
  Initial partition of walkers 0 1 

  Using Particle by Particle moves
  Walker moves without drift
  Total Sample Size   =256000
  Walker distribution on root = 0 1 
  Using Locality Approximation
===== Memory Usage after the buffer registration =====
Available memory on node 0, free + buffers : 84050 MB
Memory footprint by rank 0 on node 0       : 75 MB
==================================================
  Anonymous Buffer size per walker : 3840 Bytes.
MEMORY increase 0 MB VMC::resetRun
====================================================
  SimpleFixedNodeBranch::finalize after a VMC block
    QMC counter        = 1
    time step          = 0.15
    reference energy   = -28.0309
    reference variance = 0.716809
====================================================
  Execution time = 1.7124e+00
</vmc>
<opt stage="setup">
  <log>
   Reading configurations from h5FileRoot K.log.s001
  QMCCostFunction is created with 1 threads.
  Using Nonlocal PP in Opt: NonLocalECP
   Number of samples loaded to each thread : 250 
  VMC Eavg = -2.8051e+01
  VMC Evar = 7.5110e-01
  Total weights = 2.5600e+05
  Execution time = 2.3575e-01
  </log>
</opt>
<opt stage="main" walkers="256000">
  <log>

*****************************************
Building overlap and Hamiltonian matrices
*****************************************

Among totally 30 optimized parameters, largest LM parameter change : 7.1378e-01 at parameter 20

******************************************************************************
Init Cost =   7.5110e-01    New Cost =   3.6056e-01  Delta Cost =  -3.9054e-01
******************************************************************************

The new set of parameters is valid. Updating the trial wave function!

*****************************************************************************
Applying the update for shift_i =   1.0000e-02     and shift_s =   2.5000e-01
*****************************************************************************
  Execution time = 2.5873e+00
  </log>
  <optVariables href="K.log.s001.opt.xml">
uu_0 1.9087e-01 1 1  ON 0
uu_1 2.9557e-03 1 1  ON 1
uu_2 -4.1310e-02 1 1  ON 2
uu_3 -4.1302e-02 1 1  ON 3
uu_4 -2.8591e-02 1 1  ON 4
uu_5 -2.1741e-02 1 1  ON 5
uu_6 -9.2910e-03 1 1  ON 6
uu_7 -1.2582e-02 1 1  ON 7
uu_8 -9.8798e-03 1 1  ON 8
uu_9 -1.1264e-02 1 1  ON 9
ud_0 2.5322e-01 1 1  ON 10
ud_1 -4.5827e-03 1 1  ON 11
ud_2 -4.6663e-02 1 1  ON 12
ud_3 -5.7778e-02 1 1  ON 13
ud_4 -3.8001e-02 1 1  ON 14
ud_5 -3.1742e-02 1 1  ON 15
ud_6 -1.6886e-02 1 1  ON 16
ud_7 -1.6014e-02 1 1  ON 17
ud_8 -1.1949e-02 1 1  ON 18
ud_9 -1.2371e-02 1 1  ON 19
eK_0 -7.1378e-01 1 1  ON 20
eK_1 -7.8505e-02 1 1  ON 21
eK_2 2.4503e-01 1 1  ON 22
eK_3 2.5007e-01 1 1  ON 23
eK_4 1.8068e-01 1 1  ON 24
eK_5 9.3038e-02 1 1  ON 25
eK_6 3.0832e-02 1 1  ON 26
eK_7 2.2617e-03 1 1  ON 27
eK_8 -2.5882e-03 1 1  ON 28
eK_9 -2.9633e-03 1 1  ON 29
  </optVariables>
   Restore the number of walkers to 1, removing 0 walkers.
</opt>
</optimization-report>
  QMC Execution time = 2.5971e+00 secs
  Reusing QMCFixedSampleLinearOptimize
 Using QMCCostFunction::QMCCostFunction

=========================================================
  Start QMCFixedSampleLinearOptimize
  File Root K.log.s002 append = no 
=========================================================
  Skip QMCDriver::putQMCInfo 
  Resetting Properties of the walkers 1 x 13

=========================================================
  Start VMC
  File Root K.log.s002 append = no 
=========================================================
Using existing walkers 
  Resetting Properties of the walkers 1 x 13

<vmc function="put">
  qmc_counter=1  my_counter=1
  time step      = 1.5000e-01
  blocks         = 200
  steps          = 2
  substeps       = 5
  current        = 0
  target samples = 2.5600e+05
  walkers/mpi    = 1

  stepsbetweensamples = 1
<parameter name="blocks" condition="int">200</parameter>
<parameter name="blocks_between_recompute" condition="int">0</parameter>
<parameter name="check_properties" condition="int">100</parameter>
<parameter name="checkproperties" condition="int">100</parameter>
<parameter name="current" condition="int">0</parameter>
<parameter name="dmcwalkersperthread" condition="real">2.5000e+02</parameter>
<parameter name="maxcpusecs" condition="real">3.6000e+05</parameter>
<parameter name="record_configs" condition="int">0</parameter>
<parameter name="record_walkers" condition="int">1</parameter>
<parameter name="recordconfigs" condition="int">0</parameter>
<parameter name="recordwalkers" condition="int">1</parameter>
<parameter name="rewind" condition="int">0</parameter>
<parameter name="samples" condition="real">2.5600e+05</parameter>
<parameter name="samplesperthread" condition="real">2.5000e+02</parameter>
<parameter name="steps" condition="int">2</parameter>
<parameter name="stepsbetweensamples" condition="int">1</parameter>
<parameter name="store_configs" condition="int">0</parameter>
<parameter name="storeconfigs" condition="int">0</parameter>
<parameter name="sub_steps" condition="int">5</parameter>
<parameter name="substeps" condition="int">5</parameter>
<parameter name="tau" condition="au">1.5000e-01</parameter>
<parameter name="time_step" condition="au">1.5000e-01</parameter>
<parameter name="timestep" condition="au">1.5000e-01</parameter>
<parameter name="use_drift" condition="string">no</parameter>
<parameter name="usedrift" condition="string">no</parameter>
<parameter name="walkers" condition="int">1</parameter>
<parameter name="warmup_steps" condition="int">0</parameter>
<parameter name="warmupsteps" condition="int">0</parameter>
  DumpConfig==false Nothing (configurations, state) will be saved.
  Walker Samples are dumped every 1 steps.
</vmc>
  EstimatorManagerBase::add replace LocalEnergy estimator.
  EstimatorManagerBase::add replace LocalEnergy estimator.
<optimization-report>
<vmc stage="main" blocks="200">
  Cannot make clones again. Use existing 1 clones
  Initial partition of walkers 0 1 
  Using Particle by Particle moves
  Walker moves without drift
  Total Sample Size   =256000
  Walker distribution on root = 0 1 
  Using Locality Approximation
===== Memory Usage after the buffer registration =====
Available memory on node 0, free + buffers : 84049 MB
Memory footprint by rank 0 on node 0       : 76 MB
==================================================
====================================================
  SimpleFixedNodeBranch::finalize after a VMC block
    QMC counter        = 2
    time step          = 0.15
    reference energy   = -28.1797
    reference variance = 0.328834
====================================================
  Execution time = 2.5517e+00
</vmc>
<opt stage="setup">
  <log>
   Reading configurations from h5FileRoot K.log.s002
  QMCCostFunction is created with 1 threads.
  Using Nonlocal PP in Opt: NonLocalECP
   Number of samples loaded to each thread : 250 
  VMC Eavg = -2.8177e+01
  VMC Evar = 3.1424e-01
  Total weights = 2.5600e+05
  Execution time = 5.8224e-01
  </log>
</opt>
<opt stage="main" walkers="256000">
  <log>

*****************************************
Building overlap and Hamiltonian matrices
*****************************************

Among totally 30 optimized parameters, largest LM parameter change : 4.4232e-01 at parameter 20

******************************************************************************
Init Cost =   3.1424e-01    New Cost =   3.3299e-01  Delta Cost =   1.8743e-02
******************************************************************************

The new set of parameters is valid. Updating the trial wave function!

*****************************************************************************
Applying the update for shift_i =   1.0000e-02     and shift_s =   6.2500e-02
*****************************************************************************
  Execution time = 3.8822e+00
  </log>
  <optVariables href="K.log.s002.opt.xml">
uu_0 2.8930e-01 1 1  ON 0
uu_1 2.4682e-02 1 1  ON 1
uu_2 -5.8201e-02 1 1  ON 2
uu_3 -7.1496e-02 1 1  ON 3
uu_4 -5.2612e-02 1 1  ON 4
uu_5 -3.6400e-02 1 1  ON 5
uu_6 -1.5567e-02 1 1  ON 6
uu_7 -1.8219e-02 1 1  ON 7
uu_8 -1.9159e-02 1 1  ON 8
uu_9 -1.6844e-02 1 1  ON 9
ud_0 3.7016e-01 1 1  ON 10
ud_1 1.8875e-02 1 1  ON 11
ud_2 -6.8814e-02 1 1  ON 12
ud_3 -9.4226e-02 1 1  ON 13
ud_4 -6.5806e-02 1 1  ON 14
ud_5 -5.4086e-02 1 1  ON 15
ud_6 -2.8826e-02 1 1  ON 16
ud_7 -2.2849e-02 1 1  ON 17
ud_8 -1.8039e-02 1 1  ON 18
ud_9 -1.5005e-02 1 1  ON 19
eK_0 -1.1561e+00 1 1  ON 20
eK_1 -2.2938e-01 1 1  ON 21
eK_2 3.6511e-01 1 1  ON 22
eK_3 4.4034e-01 1 1  ON 23
eK_4 3.4121e-01 1 1  ON 24
eK_5 1.8746e-01 1 1  ON 25
eK_6 5.8082e-02 1 1  ON 26
eK_7 7.2880e-03 1 1  ON 27
eK_8 -5.4457e-03 1 1  ON 28
eK_9 -3.2157e-03 1 1  ON 29
  </optVariables>
   Restore the number of walkers to 1, removing 0 walkers.
</opt>
</optimization-report>
  QMC Execution time = 3.9045e+00 secs
  Reusing QMCFixedSampleLinearOptimize
 Using QMCCostFunction::QMCCostFunction

=========================================================
  Start QMCFixedSampleLinearOptimize
  File Root K.log.s003 append = no 
=========================================================
  Skip QMCDriver::putQMCInfo 
  Resetting Properties of the walkers 1 x 13

=========================================================
  Start VMC
  File Root K.log.s003 append = no 
=========================================================
Using existing walkers 
  Resetting Properties of the walkers 1 x 13

<vmc function="put">
  qmc_counter=2  my_counter=2
  time step      = 1.5000e-01
  blocks         = 200
  steps          = 2
  substeps       = 5
  current        = 0
  target samples = 2.5600e+05
  walkers/mpi    = 1

  stepsbetweensamples = 1
<parameter name="blocks" condition="int">200</parameter>
<parameter name="blocks_between_recompute" condition="int">0</parameter>
<parameter name="check_properties" condition="int">100</parameter>
<parameter name="checkproperties" condition="int">100</parameter>
<parameter name="current" condition="int">0</parameter>
<parameter name="dmcwalkersperthread" condition="real">2.5000e+02</parameter>
<parameter name="maxcpusecs" condition="real">3.6000e+05</parameter>
<parameter name="record_configs" condition="int">0</parameter>
<parameter name="record_walkers" condition="int">1</parameter>
<parameter name="recordconfigs" condition="int">0</parameter>
<parameter name="recordwalkers" condition="int">1</parameter>
<parameter name="rewind" condition="int">0</parameter>
<parameter name="samples" condition="real">2.5600e+05</parameter>
<parameter name="samplesperthread" condition="real">2.5000e+02</parameter>
<parameter name="steps" condition="int">2</parameter>
<parameter name="stepsbetweensamples" condition="int">1</parameter>
<parameter name="store_configs" condition="int">0</parameter>
<parameter name="storeconfigs" condition="int">0</parameter>
<parameter name="sub_steps" condition="int">5</parameter>
<parameter name="substeps" condition="int">5</parameter>
<parameter name="tau" condition="au">1.5000e-01</parameter>
<parameter name="time_step" condition="au">1.5000e-01</parameter>
<parameter name="timestep" condition="au">1.5000e-01</parameter>
<parameter name="use_drift" condition="string">no</parameter>
<parameter name="usedrift" condition="string">no</parameter>
<parameter name="walkers" condition="int">1</parameter>
<parameter name="warmup_steps" condition="int">0</parameter>
<parameter name="warmupsteps" condition="int">0</parameter>
  DumpConfig==false Nothing (configurations, state) will be saved.
  Walker Samples are dumped every 1 steps.
</vmc>
  EstimatorManagerBase::add replace LocalEnergy estimator.
  EstimatorManagerBase::add replace LocalEnergy estimator.
<optimization-report>
<vmc stage="main" blocks="200">
  Cannot make clones again. Use existing 1 clones
  Initial partition of walkers 0 1 
  Using Particle by Particle moves
  Walker moves without drift
  Total Sample Size   =256000
  Walker distribution on root = 0 1 
  Using Locality Approximation
===== Memory Usage after the buffer registration =====
Available memory on node 0, free + buffers : 84047 MB
Memory footprint by rank 0 on node 0       : 78 MB
==================================================
====================================================
  SimpleFixedNodeBranch::finalize after a VMC block
    QMC counter        = 3
    time step          = 0.15
    reference energy   = -28.215
    reference variance = 0.303306
====================================================
  Execution time = 2.6701e+00
</vmc>
<opt stage="setup">
  <log>
   Reading configurations from h5FileRoot K.log.s003
  QMCCostFunction is created with 1 threads.
  Using Nonlocal PP in Opt: NonLocalECP
   Number of samples loaded to each thread : 250 
  VMC Eavg = -2.8198e+01
  VMC Evar = 3.2614e-01
  Total weights = 2.5600e+05
  Execution time = 7.3637e-01
  </log>
</opt>
<opt stage="main" walkers="256000">
  <log>

*****************************************
Building overlap and Hamiltonian matrices
*****************************************

Among totally 30 optimized parameters, largest LM parameter change : 2.3046e-01 at parameter 20

******************************************************************************
Init Cost =   3.2614e-01    New Cost =   3.4794e-01  Delta Cost =   2.1797e-02
******************************************************************************

The new set of parameters is valid. Updating the trial wave function!

*****************************************************************************
Applying the update for shift_i =   1.0000e-02     and shift_s =   1.5625e-02
*****************************************************************************
  Execution time = 4.1960e+00
  </log>
  <optVariables href="K.log.s003.opt.xml">
uu_0 3.3223e-01 1 1  ON 0
uu_1 4.4165e-02 1 1  ON 1
uu_2 -5.7395e-02 1 1  ON 2
uu_3 -8.4277e-02 1 1  ON 3
uu_4 -6.6606e-02 1 1  ON 4
uu_5 -4.9837e-02 1 1  ON 5
uu_6 -2.1308e-02 1 1  ON 6
uu_7 -1.8547e-02 1 1  ON 7
uu_8 -2.5379e-02 1 1  ON 8
uu_9 -2.3922e-02 1 1  ON 9
ud_0 4.1870e-01 1 1  ON 10
ud_1 4.4921e-02 1 1  ON 11
ud_2 -6.2715e-02 1 1  ON 12
ud_3 -1.0664e-01 1 1  ON 13
ud_4 -8.3879e-02 1 1  ON 14
ud_5 -6.9533e-02 1 1  ON 15
ud_6 -3.7754e-02 1 1  ON 16
ud_7 -3.0011e-02 1 1  ON 17
ud_8 -2.3606e-02 1 1  ON 18
ud_9 -2.4720e-02 1 1  ON 19
eK_0 -1.3866e+00 1 1  ON 20
eK_1 -3.6221e-01 1 1  ON 21
eK_2 3.5518e-01 1 1  ON 22
eK_3 5.5101e-01 1 1  ON 23
eK_4 4.7134e-01 1 1  ON 24
eK_5 2.8198e-01 1 1  ON 25
eK_6 9.2649e-02 1 1  ON 26
eK_7 1.3043e-02 1 1  ON 27
eK_8 -5.7390e-03 1 1  ON 28
eK_9 -4.7483e-03 1 1  ON 29
  </optVariables>
   Restore the number of walkers to 1, removing 0 walkers.
</opt>
</optimization-report>
  QMC Execution time = 4.2492e+00 secs
  Reusing QMCFixedSampleLinearOptimize
 Using QMCCostFunction::QMCCostFunction

=========================================================
  Start QMCFixedSampleLinearOptimize
  File Root K.log.s004 append = no 
=========================================================
  Skip QMCDriver::putQMCInfo 
  Resetting Properties of the walkers 1 x 13

=========================================================
  Start VMC
  File Root K.log.s004 append = no 
=========================================================
Using existing walkers 
  Resetting Properties of the walkers 1 x 13

<vmc function="put">
  qmc_counter=3  my_counter=3
  time step      = 1.5000e-01
  blocks         = 200
  steps          = 2
  substeps       = 5
  current        = 0
  target samples = 2.5600e+05
  walkers/mpi    = 1

  stepsbetweensamples = 1
<parameter name="blocks" condition="int">200</parameter>
<parameter name="blocks_between_recompute" condition="int">0</parameter>
<parameter name="check_properties" condition="int">100</parameter>
<parameter name="checkproperties" condition="int">100</parameter>
<parameter name="current" condition="int">0</parameter>
<parameter name="dmcwalkersperthread" condition="real">2.5000e+02</parameter>
<parameter name="maxcpusecs" condition="real">3.6000e+05</parameter>
<parameter name="record_configs" condition="int">0</parameter>
<parameter name="record_walkers" condition="int">1</parameter>
<parameter name="recordconfigs" condition="int">0</parameter>
<parameter name="recordwalkers" condition="int">1</parameter>
<parameter name="rewind" condition="int">0</parameter>
<parameter name="samples" condition="real">2.5600e+05</parameter>
<parameter name="samplesperthread" condition="real">2.5000e+02</parameter>
<parameter name="steps" condition="int">2</parameter>
<parameter name="stepsbetweensamples" condition="int">1</parameter>
<parameter name="store_configs" condition="int">0</parameter>
<parameter name="storeconfigs" condition="int">0</parameter>
<parameter name="sub_steps" condition="int">5</parameter>
<parameter name="substeps" condition="int">5</parameter>
<parameter name="tau" condition="au">1.5000e-01</parameter>
<parameter name="time_step" condition="au">1.5000e-01</parameter>
<parameter name="timestep" condition="au">1.5000e-01</parameter>
<parameter name="use_drift" condition="string">no</parameter>
<parameter name="usedrift" condition="string">no</parameter>
<parameter name="walkers" condition="int">1</parameter>
<parameter name="warmup_steps" condition="int">0</parameter>
<parameter name="warmupsteps" condition="int">0</parameter>
  DumpConfig==false Nothing (configurations, state) will be saved.
  Walker Samples are dumped every 1 steps.
</vmc>
  EstimatorManagerBase::add replace LocalEnergy estimator.
  EstimatorManagerBase::add replace LocalEnergy estimator.
<optimization-report>
<vmc stage="main" blocks="200">
  Cannot make clones again. Use existing 1 clones
  Initial partition of walkers 0 1 
  Using Particle by Particle moves
  Walker moves without drift
  Total Sample Size   =256000
  Walker distribution on root = 0 1 
  Using Locality Approximation
===== Memory Usage after the buffer registration =====
Available memory on node 0, free + buffers : 84045 MB
Memory footprint by rank 0 on node 0       : 79 MB
==================================================
====================================================
  SimpleFixedNodeBranch::finalize after a VMC block
    QMC counter        = 4
    time step          = 0.15
    reference energy   = -28.188
    reference variance = 0.33248
====================================================
  Execution time = 2.7110e+00
</vmc>
<opt stage="setup">
  <log>
   Reading configurations from h5FileRoot K.log.s004
  QMCCostFunction is created with 1 threads.
  Using Nonlocal PP in Opt: NonLocalECP
   Number of samples loaded to each thread : 250 
  VMC Eavg = -2.8205e+01
  VMC Evar = 3.3600e-01
  Total weights = 2.5600e+05
  Execution time = 7.5610e-01
  </log>
</opt>
<opt stage="main" walkers="256000">
  <log>

*****************************************
Building overlap and Hamiltonian matrices
*****************************************

Among totally 30 optimized parameters, largest LM parameter change : 1.3422e-01 at parameter 20

******************************************************************************
Init Cost =   3.3600e-01    New Cost =   3.4313e-01  Delta Cost =   7.1236e-03
******************************************************************************

The new set of parameters is valid. Updating the trial wave function!

*****************************************************************************
Applying the update for shift_i =   1.0000e-02     and shift_s =   3.9062e-03
*****************************************************************************
  Execution time = 4.1877e+00
  </log>
  <optVariables href="K.log.s004.opt.xml">
uu_0 3.4779e-01 1 1  ON 0
uu_1 5.4203e-02 1 1  ON 1
uu_2 -5.5362e-02 1 1  ON 2
uu_3 -9.3493e-02 1 1  ON 3
uu_4 -8.1417e-02 1 1  ON 4
uu_5 -6.1904e-02 1 1  ON 5
uu_6 -2.7556e-02 1 1  ON 6
uu_7 -2.1470e-02 1 1  ON 7
uu_8 -1.5398e-02 1 1  ON 8
uu_9 -1.6975e-02 1 1  ON 9
ud_0 4.3143e-01 1 1  ON 10
ud_1 5.2221e-02 1 1  ON 11
ud_2 -6.2894e-02 1 1  ON 12
ud_3 -1.1699e-01 1 1  ON 13
ud_4 -9.9237e-02 1 1  ON 14
ud_5 -8.1391e-02 1 1  ON 15
ud_6 -4.3751e-02 1 1  ON 16
ud_7 -2.2988e-02 1 1  ON 17
ud_8 -1.2710e-02 1 1  ON 18
ud_9 -1.9854e-02 1 1  ON 19
eK_0 -1.5208e+00 1 1  ON 20
eK_1 -4.6357e-01 1 1  ON 21
eK_2 3.0689e-01 1 1  ON 22
eK_3 6.0034e-01 1 1  ON 23
eK_4 5.6200e-01 1 1  ON 24
eK_5 3.6808e-01 1 1  ON 25
eK_6 1.3695e-01 1 1  ON 26
eK_7 2.1248e-02 1 1  ON 27
eK_8 -2.0665e-03 1 1  ON 28
eK_9 -3.0836e-03 1 1  ON 29
  </optVariables>
   Restore the number of walkers to 1, removing 0 walkers.
</opt>
</optimization-report>
  QMC Execution time = 4.2809e+00 secs
  Reusing QMCFixedSampleLinearOptimize
 Using QMCCostFunction::QMCCostFunction

=========================================================
  Start QMCFixedSampleLinearOptimize
  File Root K.log.s005 append = no 
=========================================================
  Skip QMCDriver::putQMCInfo 
  Resetting Properties of the walkers 1 x 13

=========================================================
  Start VMC
  File Root K.log.s005 append = no 
=========================================================
Using existing walkers 
  Resetting Properties of the walkers 1 x 13

<vmc function="put">
  qmc_counter=4  my_counter=4
  time step      = 1.5000e-01
  blocks         = 200
  steps          = 2
  substeps       = 5
  current        = 0
  target samples = 2.5600e+05
  walkers/mpi    = 1

  stepsbetweensamples = 1
<parameter name="blocks" condition="int">200</parameter>
<parameter name="blocks_between_recompute" condition="int">0</parameter>
<parameter name="check_properties" condition="int">100</parameter>
<parameter name="checkproperties" condition="int">100</parameter>
<parameter name="current" condition="int">0</parameter>
<parameter name="dmcwalkersperthread" condition="real">2.5000e+02</parameter>
<parameter name="maxcpusecs" condition="real">3.6000e+05</parameter>
<parameter name="record_configs" condition="int">0</parameter>
<parameter name="record_walkers" condition="int">1</parameter>
<parameter name="recordconfigs" condition="int">0</parameter>
<parameter name="recordwalkers" condition="int">1</parameter>
<parameter name="rewind" condition="int">0</parameter>
<parameter name="samples" condition="real">2.5600e+05</parameter>
<parameter name="samplesperthread" condition="real">2.5000e+02</parameter>
<parameter name="steps" condition="int">2</parameter>
<parameter name="stepsbetweensamples" condition="int">1</parameter>
<parameter name="store_configs" condition="int">0</parameter>
<parameter name="storeconfigs" condition="int">0</parameter>
<parameter name="sub_steps" condition="int">5</parameter>
<parameter name="substeps" condition="int">5</parameter>
<parameter name="tau" condition="au">1.5000e-01</parameter>
<parameter name="time_step" condition="au">1.5000e-01</parameter>
<parameter name="timestep" condition="au">1.5000e-01</parameter>
<parameter name="use_drift" condition="string">no</parameter>
<parameter name="usedrift" condition="string">no</parameter>
<parameter name="walkers" condition="int">1</parameter>
<parameter name="warmup_steps" condition="int">0</parameter>
<parameter name="warmupsteps" condition="int">0</parameter>
  DumpConfig==false Nothing (configurations, state) will be saved.
  Walker Samples are dumped every 1 steps.
</vmc>
  EstimatorManagerBase::add replace LocalEnergy estimator.
  EstimatorManagerBase::add replace LocalEnergy estimator.
<optimization-report>
<vmc stage="main" blocks="200">
  Cannot make clones again. Use existing 1 clones
  Initial partition of walkers 0 1 
  Using Particle by Particle moves
  Walker moves without drift
  Total Sample Size   =256000
  Walker distribution on root = 0 1 
  Using Locality Approximation
===== Memory Usage after the buffer registration =====
Available memory on node 0, free + buffers : 84043 MB
Memory footprint by rank 0 on node 0       : 81 MB
==================================================
====================================================
  SimpleFixedNodeBranch::finalize after a VMC block
    QMC counter        = 5
    time step          = 0.15
    reference energy   = -28.1822
    reference variance = 0.348072
====================================================
  Execution time = 2.7818e+00
</vmc>
<opt stage="setup">
  <log>
   Reading configurations from h5FileRoot K.log.s005
  QMCCostFunction is created with 1 threads.
  Using Nonlocal PP in Opt: NonLocalECP
   Number of samples loaded to each thread : 250 
  VMC Eavg = -2.8206e+01
  VMC Evar = 3.3553e-01
  Total weights = 2.5600e+05
  Execution time = 7.4502e-01
  </log>
</opt>
<opt stage="main" walkers="256000">
  <log>

*****************************************
Building overlap and Hamiltonian matrices
*****************************************

Among totally 30 optimized parameters, largest LM parameter change : 8.3291e-02 at parameter 20

******************************************************************************
Init Cost =   3.3553e-01    New Cost =   3.3760e-01  Delta Cost =   2.0639e-03
******************************************************************************

The new set of parameters is valid. Updating the trial wave function!

*****************************************************************************
Applying the update for shift_i =   1.0000e-02     and shift_s =   3.9062e-03
*****************************************************************************
  Execution time = 4.1918e+00
  </log>
  <optVariables href="K.log.s005.opt.xml">
uu_0 3.6286e-01 1 1  ON 0
uu_1 6.5133e-02 1 1  ON 1
uu_2 -4.4971e-02 1 1  ON 2
uu_3 -9.2884e-02 1 1  ON 3
uu_4 -9.1259e-02 1 1  ON 4
uu_5 -7.4470e-02 1 1  ON 5
uu_6 -3.8435e-02 1 1  ON 6
uu_7 -2.2054e-02 1 1  ON 7
uu_8 -1.5816e-02 1 1  ON 8
uu_9 -2.0815e-02 1 1  ON 9
ud_0 4.4343e-01 1 1  ON 10
ud_1 6.3050e-02 1 1  ON 11
ud_2 -5.5787e-02 1 1  ON 12
ud_3 -1.1687e-01 1 1  ON 13
ud_4 -1.0636e-01 1 1  ON 14
ud_5 -9.3448e-02 1 1  ON 15
ud_6 -5.2183e-02 1 1  ON 16
ud_7 -2.9692e-02 1 1  ON 17
ud_8 -8.2112e-03 1 1  ON 18
ud_9 -1.9506e-02 1 1  ON 19
eK_0 -1.6041e+00 1 1  ON 20
eK_1 -5.3629e-01 1 1  ON 21
eK_2 2.5779e-01 1 1  ON 22
eK_3 6.1305e-01 1 1  ON 23
eK_4 6.3067e-01 1 1  ON 24
eK_5 4.4279e-01 1 1  ON 25
eK_6 1.7266e-01 1 1  ON 26
eK_7 3.3391e-02 1 1  ON 27
eK_8 -3.0465e-04 1 1  ON 28
eK_9 -4.0072e-03 1 1  ON 29
  </optVariables>
   Restore the number of walkers to 1, removing 0 walkers.
</opt>
</optimization-report>
  QMC Execution time = 4.2275e+00 secs
Loop execution max-interations = 5
  Reusing QMCFixedSampleLinearOptimize
 Using QMCCostFunction::QMCCostFunction

=========================================================
  Start QMCFixedSampleLinearOptimize
  File Root K.log.s006 append = no 
=========================================================
  Skip QMCDriver::putQMCInfo 
  Resetting Properties of the walkers 1 x 13

=========================================================
  Start VMC
  File Root K.log.s006 append = no 
=========================================================
  Using the current 1 walkers.
  Total number of walkers: 1.0240e+03
  Total weight: 1.0240e+03
  Resetting Properties of the walkers 1 x 13

<vmc function="put">
  qmc_counter=0  my_counter=5
  time step      = 1.5000e-01
  blocks         = 200
  steps          = 2
  substeps       = 5
  current        = 0
  target samples = 2.5600e+05
  walkers/mpi    = 1

  stepsbetweensamples = 1
<parameter name="blocks" condition="int">200</parameter>
<parameter name="blocks_between_recompute" condition="int">0</parameter>
<parameter name="check_properties" condition="int">100</parameter>
<parameter name="checkproperties" condition="int">100</parameter>
<parameter name="current" condition="int">0</parameter>
<parameter name="dmcwalkersperthread" condition="real">2.5000e+02</parameter>
<parameter name="maxcpusecs" condition="real">3.6000e+05</parameter>
<parameter name="record_configs" condition="int">0</parameter>
<parameter name="record_walkers" condition="int">1</parameter>
<parameter name="recordconfigs" condition="int">0</parameter>
<parameter name="recordwalkers" condition="int">1</parameter>
<parameter name="rewind" condition="int">0</parameter>
<parameter name="samples" condition="real">2.5600e+05</parameter>
<parameter name="samplesperthread" condition="real">2.5000e+02</parameter>
<parameter name="steps" condition="int">2</parameter>
<parameter name="stepsbetweensamples" condition="int">1</parameter>
<parameter name="store_configs" condition="int">0</parameter>
<parameter name="storeconfigs" condition="int">0</parameter>
<parameter name="sub_steps" condition="int">5</parameter>
<parameter name="substeps" condition="int">5</parameter>
<parameter name="tau" condition="au">1.5000e-01</parameter>
<parameter name="time_step" condition="au">1.5000e-01</parameter>
<parameter name="timestep" condition="au">1.5000e-01</parameter>
<parameter name="use_drift" condition="string">no</parameter>
<parameter name="usedrift" condition="string">no</parameter>
<parameter name="walkers" condition="int">1</parameter>
<parameter name="warmup_steps" condition="int">0</parameter>
<parameter name="warmupsteps" condition="int">0</parameter>
  DumpConfig==false Nothing (configurations, state) will be saved.
  Walker Samples are dumped every 1 steps.
</vmc>
  EstimatorManagerBase::add replace LocalEnergy estimator.
  EstimatorManagerBase::add replace LocalEnergy estimator.
<optimization-report>
<vmc stage="main" blocks="200">
  Cannot make clones again. Use existing 1 clones
  Initial partition of walkers 0 1 
  Using Particle by Particle moves
  Walker moves without drift
  Total Sample Size   =256000
  Walker distribution on root = 0 1 
  Using Locality Approximation
===== Memory Usage after the buffer registration =====
Available memory on node 0, free + buffers : 84041 MB
Memory footprint by rank 0 on node 0       : 83 MB
==================================================
====================================================
  SimpleFixedNodeBranch::finalize after a VMC block
    QMC counter        = 6
    time step          = 0.15
    reference energy   = -28.1895
    reference variance = 0.428895
====================================================
  Execution time = 2.7131e+00
</vmc>
<opt stage="setup">
  <log>
   Reading configurations from h5FileRoot K.log.s006
  QMCCostFunction is created with 1 threads.
  Using Nonlocal PP in Opt: NonLocalECP
   Number of samples loaded to each thread : 250 
  VMC Eavg = -2.8205e+01
  VMC Evar = 3.4546e-01
  Total weights = 2.5600e+05
  Execution time = 6.4937e-01
  </log>
</opt>
<opt stage="main" walkers="256000">
  <log>

*****************************************
Building overlap and Hamiltonian matrices
*****************************************

Among totally 30 optimized parameters, largest LM parameter change : 7.8868e-02 at parameter 25

******************************************************************************
Init Cost =   3.4546e-01    New Cost =   3.4790e-01  Delta Cost =   2.4430e-03
******************************************************************************

The new set of parameters is valid. Updating the trial wave function!

*****************************************************************************
Applying the update for shift_i =   1.0000e-02     and shift_s =   3.9062e-03
*****************************************************************************
  Execution time = 3.9710e+00
  </log>
  <optVariables href="K.log.s006.opt.xml">
uu_0 3.7095e-01 1 1  ON 0
uu_1 7.3829e-02 1 1  ON 1
uu_2 -4.0312e-02 1 1  ON 2
uu_3 -9.4054e-02 1 1  ON 3
uu_4 -9.4809e-02 1 1  ON 4
uu_5 -7.9913e-02 1 1  ON 5
uu_6 -3.9962e-02 1 1  ON 6
uu_7 -2.2845e-02 1 1  ON 7
uu_8 -1.9101e-02 1 1  ON 8
uu_9 -2.3251e-02 1 1  ON 9
ud_0 4.5865e-01 1 1  ON 10
ud_1 7.5405e-02 1 1  ON 11
ud_2 -4.5104e-02 1 1  ON 12
ud_3 -1.1262e-01 1 1  ON 13
ud_4 -1.0573e-01 1 1  ON 14
ud_5 -9.4224e-02 1 1  ON 15
ud_6 -4.8315e-02 1 1  ON 16
ud_7 -3.7681e-02 1 1  ON 17
ud_8 -2.3827e-02 1 1  ON 18
ud_9 -3.2675e-02 1 1  ON 19
eK_0 -1.6817e+00 1 1  ON 20
eK_1 -6.0541e-01 1 1  ON 21
eK_2 2.1295e-01 1 1  ON 22
eK_3 6.2493e-01 1 1  ON 23
eK_4 6.7876e-01 1 1  ON 24
eK_5 5.2166e-01 1 1  ON 25
eK_6 2.2068e-01 1 1  ON 26
eK_7 4.1744e-02 1 1  ON 27
eK_8 -1.7036e-03 1 1  ON 28
eK_9 -5.8160e-03 1 1  ON 29
  </optVariables>
   Restore the number of walkers to 1, removing 0 walkers.
</opt>
</optimization-report>
  QMC Execution time = 4.0247e+00 secs
  Reusing QMCFixedSampleLinearOptimize
 Using QMCCostFunction::QMCCostFunction

=========================================================
  Start QMCFixedSampleLinearOptimize
  File Root K.log.s007 append = no 
=========================================================
  Skip QMCDriver::putQMCInfo 
  Resetting Properties of the walkers 1 x 13

=========================================================
  Start VMC
  File Root K.log.s007 append = no 
=========================================================
Using existing walkers 
  Resetting Properties of the walkers 1 x 13

<vmc function="put">
  qmc_counter=1  my_counter=6
  time step      = 1.5000e-01
  blocks         = 200
  steps          = 2
  substeps       = 5
  current        = 0
  target samples = 2.5600e+05
  walkers/mpi    = 1

  stepsbetweensamples = 1
<parameter name="blocks" condition="int">200</parameter>
<parameter name="blocks_between_recompute" condition="int">0</parameter>
<parameter name="check_properties" condition="int">100</parameter>
<parameter name="checkproperties" condition="int">100</parameter>
<parameter name="current" condition="int">0</parameter>
<parameter name="dmcwalkersperthread" condition="real">2.5000e+02</parameter>
<parameter name="maxcpusecs" condition="real">3.6000e+05</parameter>
<parameter name="record_configs" condition="int">0</parameter>
<parameter name="record_walkers" condition="int">1</parameter>
<parameter name="recordconfigs" condition="int">0</parameter>
<parameter name="recordwalkers" condition="int">1</parameter>
<parameter name="rewind" condition="int">0</parameter>
<parameter name="samples" condition="real">2.5600e+05</parameter>
<parameter name="samplesperthread" condition="real">2.5000e+02</parameter>
<parameter name="steps" condition="int">2</parameter>
<parameter name="stepsbetweensamples" condition="int">1</parameter>
<parameter name="store_configs" condition="int">0</parameter>
<parameter name="storeconfigs" condition="int">0</parameter>
<parameter name="sub_steps" condition="int">5</parameter>
<parameter name="substeps" condition="int">5</parameter>
<parameter name="tau" condition="au">1.5000e-01</parameter>
<parameter name="time_step" condition="au">1.5000e-01</parameter>
<parameter name="timestep" condition="au">1.5000e-01</parameter>
<parameter name="use_drift" condition="string">no</parameter>
<parameter name="usedrift" condition="string">no</parameter>
<parameter name="walkers" condition="int">1</parameter>
<parameter name="warmup_steps" condition="int">0</parameter>
<parameter name="warmupsteps" condition="int">0</parameter>
  DumpConfig==false Nothing (configurations, state) will be saved.
  Walker Samples are dumped every 1 steps.
</vmc>
  EstimatorManagerBase::add replace LocalEnergy estimator.
  EstimatorManagerBase::add replace LocalEnergy estimator.
<optimization-report>
<vmc stage="main" blocks="200">
  Cannot make clones again. Use existing 1 clones
  Initial partition of walkers 0 1 
  Using Particle by Particle moves
  Walker moves without drift
  Total Sample Size   =256000
  Walker distribution on root = 0 1 
  Using Locality Approximation
===== Memory Usage after the buffer registration =====
Available memory on node 0, free + buffers : 84040 MB
Memory footprint by rank 0 on node 0       : 85 MB
==================================================
====================================================
  SimpleFixedNodeBranch::finalize after a VMC block
    QMC counter        = 7
    time step          = 0.15
    reference energy   = -28.2136
    reference variance = 0.353524
====================================================
  Execution time = 2.9184e+00
</vmc>
<opt stage="setup">
  <log>
   Reading configurations from h5FileRoot K.log.s007
  QMCCostFunction is created with 1 threads.
  Using Nonlocal PP in Opt: NonLocalECP
   Number of samples loaded to each thread : 250 
  VMC Eavg = -2.8208e+01
  VMC Evar = 3.4088e-01
  Total weights = 2.5600e+05
  Execution time = 6.0768e-01
  </log>
</opt>
<opt stage="main" walkers="256000">
  <log>

*****************************************
Building overlap and Hamiltonian matrices
*****************************************

Among totally 30 optimized parameters, largest LM parameter change : 5.8957e-02 at parameter 20

******************************************************************************
Init Cost =   3.4088e-01    New Cost =   3.4252e-01  Delta Cost =   1.6389e-03
******************************************************************************

The new set of parameters is valid. Updating the trial wave function!

*****************************************************************************
Applying the update for shift_i =   1.0000e-02     and shift_s =   3.9062e-03
*****************************************************************************
  Execution time = 4.0721e+00
  </log>
  <optVariables href="K.log.s007.opt.xml">
uu_0 3.8090e-01 1 1  ON 0
uu_1 8.0710e-02 1 1  ON 1
uu_2 -3.3844e-02 1 1  ON 2
uu_3 -9.2491e-02 1 1  ON 3
uu_4 -1.0023e-01 1 1  ON 4
uu_5 -8.8513e-02 1 1  ON 5
uu_6 -4.5730e-02 1 1  ON 6
uu_7 -2.6070e-02 1 1  ON 7
uu_8 -2.1923e-02 1 1  ON 8
uu_9 -1.8900e-02 1 1  ON 9
ud_0 4.6393e-01 1 1  ON 10
ud_1 8.0292e-02 1 1  ON 11
ud_2 -4.2890e-02 1 1  ON 12
ud_3 -1.1309e-01 1 1  ON 13
ud_4 -1.1322e-01 1 1  ON 14
ud_5 -1.0010e-01 1 1  ON 15
ud_6 -5.4786e-02 1 1  ON 16
ud_7 -3.1948e-02 1 1  ON 17
ud_8 -2.1702e-02 1 1  ON 18
ud_9 -3.4390e-02 1 1  ON 19
eK_0 -1.7407e+00 1 1  ON 20
eK_1 -6.5771e-01 1 1  ON 21
eK_2 1.7584e-01 1 1  ON 22
eK_3 6.1893e-01 1 1  ON 23
eK_4 7.1475e-01 1 1  ON 24
eK_5 5.7947e-01 1 1  ON 25
eK_6 2.6884e-01 1 1  ON 26
eK_7 5.3714e-02 1 1  ON 27
eK_8 -1.0377e-03 1 1  ON 28
eK_9 -5.7007e-03 1 1  ON 29
  </optVariables>
   Restore the number of walkers to 1, removing 0 walkers.
</opt>
</optimization-report>
  QMC Execution time = 4.1251e+00 secs
  Reusing QMCFixedSampleLinearOptimize
 Using QMCCostFunction::QMCCostFunction

=========================================================
  Start QMCFixedSampleLinearOptimize
  File Root K.log.s008 append = no 
=========================================================
  Skip QMCDriver::putQMCInfo 
  Resetting Properties of the walkers 1 x 13

=========================================================
  Start VMC
  File Root K.log.s008 append = no 
=========================================================
Using existing walkers 
  Resetting Properties of the walkers 1 x 13

<vmc function="put">
  qmc_counter=2  my_counter=7
  time step      = 1.5000e-01
  blocks         = 200
  steps          = 2
  substeps       = 5
  current        = 0
  target samples = 2.5600e+05
  walkers/mpi    = 1

  stepsbetweensamples = 1
<parameter name="blocks" condition="int">200</parameter>
<parameter name="blocks_between_recompute" condition="int">0</parameter>
<parameter name="check_properties" condition="int">100</parameter>
<parameter name="checkproperties" condition="int">100</parameter>
<parameter name="current" condition="int">0</parameter>
<parameter name="dmcwalkersperthread" condition="real">2.5000e+02</parameter>
<parameter name="maxcpusecs" condition="real">3.6000e+05</parameter>
<parameter name="record_configs" condition="int">0</parameter>
<parameter name="record_walkers" condition="int">1</parameter>
<parameter name="recordconfigs" condition="int">0</parameter>
<parameter name="recordwalkers" condition="int">1</parameter>
<parameter name="rewind" condition="int">0</parameter>
<parameter name="samples" condition="real">2.5600e+05</parameter>
<parameter name="samplesperthread" condition="real">2.5000e+02</parameter>
<parameter name="steps" condition="int">2</parameter>
<parameter name="stepsbetweensamples" condition="int">1</parameter>
<parameter name="store_configs" condition="int">0</parameter>
<parameter name="storeconfigs" condition="int">0</parameter>
<parameter name="sub_steps" condition="int">5</parameter>
<parameter name="substeps" condition="int">5</parameter>
<parameter name="tau" condition="au">1.5000e-01</parameter>
<parameter name="time_step" condition="au">1.5000e-01</parameter>
<parameter name="timestep" condition="au">1.5000e-01</parameter>
<parameter name="use_drift" condition="string">no</parameter>
<parameter name="usedrift" condition="string">no</parameter>
<parameter name="walkers" condition="int">1</parameter>
<parameter name="warmup_steps" condition="int">0</parameter>
<parameter name="warmupsteps" condition="int">0</parameter>
  DumpConfig==false Nothing (configurations, state) will be saved.
  Walker Samples are dumped every 1 steps.
</vmc>
  EstimatorManagerBase::add replace LocalEnergy estimator.
  EstimatorManagerBase::add replace LocalEnergy estimator.
<optimization-report>
<vmc stage="main" blocks="200">
  Cannot make clones again. Use existing 1 clones
  Initial partition of walkers 0 1 
  Using Particle by Particle moves
  Walker moves without drift
  Total Sample Size   =256000
  Walker distribution on root = 0 1 
  Using Locality Approximation
===== Memory Usage after the buffer registration =====
Available memory on node 0, free + buffers : 84038 MB
Memory footprint by rank 0 on node 0       : 86 MB
==================================================
====================================================
  SimpleFixedNodeBranch::finalize after a VMC block
    QMC counter        = 8
    time step          = 0.15
    reference energy   = -28.2095
    reference variance = 0.42214
====================================================
  Execution time = 2.3254e+00
</vmc>
<opt stage="setup">
  <log>
   Reading configurations from h5FileRoot K.log.s008
  QMCCostFunction is created with 1 threads.
  Using Nonlocal PP in Opt: NonLocalECP
   Number of samples loaded to each thread : 250 
  VMC Eavg = -2.8206e+01
  VMC Evar = 3.4482e-01
  Total weights = 2.5600e+05
  Execution time = 5.6667e-01
  </log>
</opt>
<opt stage="main" walkers="256000">
  <log>

*****************************************
Building overlap and Hamiltonian matrices
*****************************************

Among totally 30 optimized parameters, largest LM parameter change : 5.2797e-02 at parameter 25

******************************************************************************
Init Cost =   3.4482e-01    New Cost =   3.4515e-01  Delta Cost =   3.3127e-04
******************************************************************************

The new set of parameters is valid. Updating the trial wave function!

*****************************************************************************
Applying the update for shift_i =   1.0000e-02     and shift_s =   3.9062e-03
*****************************************************************************
  Execution time = 3.3862e+00
  </log>
  <optVariables href="K.log.s008.opt.xml">
uu_0 3.8008e-01 1 1  ON 0
uu_1 7.9268e-02 1 1  ON 1
uu_2 -3.5060e-02 1 1  ON 2
uu_3 -9.4931e-02 1 1  ON 3
uu_4 -1.0641e-01 1 1  ON 4
uu_5 -9.0822e-02 1 1  ON 5
uu_6 -5.1362e-02 1 1  ON 6
uu_7 -2.3317e-02 1 1  ON 7
uu_8 -1.3924e-02 1 1  ON 8
uu_9 -1.9963e-02 1 1  ON 9
ud_0 4.6601e-01 1 1  ON 10
ud_1 8.2245e-02 1 1  ON 11
ud_2 -4.1745e-02 1 1  ON 12
ud_3 -1.1463e-01 1 1  ON 13
ud_4 -1.1857e-01 1 1  ON 14
ud_5 -1.1075e-01 1 1  ON 15
ud_6 -5.7978e-02 1 1  ON 16
ud_7 -3.0544e-02 1 1  ON 17
ud_8 -1.7336e-02 1 1  ON 18
ud_9 -3.2921e-02 1 1  ON 19
eK_0 -1.7894e+00 1 1  ON 20
eK_1 -7.0707e-01 1 1  ON 21
eK_2 1.3721e-01 1 1  ON 22
eK_3 6.0233e-01 1 1  ON 23
eK_4 7.4464e-01 1 1  ON 24
eK_5 6.3226e-01 1 1  ON 25
eK_6 3.1642e-01 1 1  ON 26
eK_7 7.1418e-02 1 1  ON 27
eK_8 1.9308e-03 1 1  ON 28
eK_9 -5.9331e-03 1 1  ON 29
  </optVariables>
   Restore the number of walkers to 1, removing 0 walkers.
</opt>
</optimization-report>
  QMC Execution time = 3.4476e+00 secs
  Reusing QMCFixedSampleLinearOptimize
 Using QMCCostFunction::QMCCostFunction

=========================================================
  Start QMCFixedSampleLinearOptimize
  File Root K.log.s009 append = no 
=========================================================
  Skip QMCDriver::putQMCInfo 
  Resetting Properties of the walkers 1 x 13

=========================================================
  Start VMC
  File Root K.log.s009 append = no 
=========================================================
Using existing walkers 
  Resetting Properties of the walkers 1 x 13

<vmc function="put">
  qmc_counter=3  my_counter=8
  time step      = 1.5000e-01
  blocks         = 200
  steps          = 2
  substeps       = 5
  current        = 0
  target samples = 2.5600e+05
  walkers/mpi    = 1

  stepsbetweensamples = 1
<parameter name="blocks" condition="int">200</parameter>
<parameter name="blocks_between_recompute" condition="int">0</parameter>
<parameter name="check_properties" condition="int">100</parameter>
<parameter name="checkproperties" condition="int">100</parameter>
<parameter name="current" condition="int">0</parameter>
<parameter name="dmcwalkersperthread" condition="real">2.5000e+02</parameter>
<parameter name="maxcpusecs" condition="real">3.6000e+05</parameter>
<parameter name="record_configs" condition="int">0</parameter>
<parameter name="record_walkers" condition="int">1</parameter>
<parameter name="recordconfigs" condition="int">0</parameter>
<parameter name="recordwalkers" condition="int">1</parameter>
<parameter name="rewind" condition="int">0</parameter>
<parameter name="samples" condition="real">2.5600e+05</parameter>
<parameter name="samplesperthread" condition="real">2.5000e+02</parameter>
<parameter name="steps" condition="int">2</parameter>
<parameter name="stepsbetweensamples" condition="int">1</parameter>
<parameter name="store_configs" condition="int">0</parameter>
<parameter name="storeconfigs" condition="int">0</parameter>
<parameter name="sub_steps" condition="int">5</parameter>
<parameter name="substeps" condition="int">5</parameter>
<parameter name="tau" condition="au">1.5000e-01</parameter>
<parameter name="time_step" condition="au">1.5000e-01</parameter>
<parameter name="timestep" condition="au">1.5000e-01</parameter>
<parameter name="use_drift" condition="string">no</parameter>
<parameter name="usedrift" condition="string">no</parameter>
<parameter name="walkers" condition="int">1</parameter>
<parameter name="warmup_steps" condition="int">0</parameter>
<parameter name="warmupsteps" condition="int">0</parameter>
  DumpConfig==false Nothing (configurations, state) will be saved.
  Walker Samples are dumped every 1 steps.
</vmc>
  EstimatorManagerBase::add replace LocalEnergy estimator.
  EstimatorManagerBase::add replace LocalEnergy estimator.
<optimization-report>
<vmc stage="main" blocks="200">
  Cannot make clones again. Use existing 1 clones
  Initial partition of walkers 0 1 
  Using Particle by Particle moves
  Walker moves without drift
  Total Sample Size   =256000
  Walker distribution on root = 0 1 
  Using Locality Approximation
===== Memory Usage after the buffer registration =====
Available memory on node 0, free + buffers : 84034 MB
Memory footprint by rank 0 on node 0       : 88 MB
==================================================
====================================================
  SimpleFixedNodeBranch::finalize after a VMC block
    QMC counter        = 9
    time step          = 0.15
    reference energy   = -28.1922
    reference variance = 0.321947
====================================================
  Execution time = 2.3288e+00
</vmc>
<opt stage="setup">
  <log>
   Reading configurations from h5FileRoot K.log.s009
  QMCCostFunction is created with 1 threads.
  Using Nonlocal PP in Opt: NonLocalECP
   Number of samples loaded to each thread : 250 
  VMC Eavg = -2.8209e+01
  VMC Evar = 3.4271e-01
  Total weights = 2.5600e+05
  Execution time = 5.0916e-01
  </log>
</opt>
<opt stage="main" walkers="256000">
  <log>

*****************************************
Building overlap and Hamiltonian matrices
*****************************************

Among totally 30 optimized parameters, largest LM parameter change : 4.5003e-02 at parameter 25

******************************************************************************
Init Cost =   3.4271e-01    New Cost =   3.4377e-01  Delta Cost =   1.0675e-03
******************************************************************************

The new set of parameters is valid. Updating the trial wave function!

*****************************************************************************
Applying the update for shift_i =   1.0000e-02     and shift_s =   3.9062e-03
*****************************************************************************
  Execution time = 3.3047e+00
  </log>
  <optVariables href="K.log.s009.opt.xml">
uu_0 3.8660e-01 1 1  ON 0
uu_1 8.6065e-02 1 1  ON 1
uu_2 -2.9470e-02 1 1  ON 2
uu_3 -9.1927e-02 1 1  ON 3
uu_4 -1.0911e-01 1 1  ON 4
uu_5 -1.0151e-01 1 1  ON 5
uu_6 -5.7443e-02 1 1  ON 6
uu_7 -2.8298e-02 1 1  ON 7
uu_8 -1.7562e-02 1 1  ON 8
uu_9 -1.4605e-02 1 1  ON 9
ud_0 4.6946e-01 1 1  ON 10
ud_1 8.4545e-02 1 1  ON 11
ud_2 -4.0248e-02 1 1  ON 12
ud_3 -1.1380e-01 1 1  ON 13
ud_4 -1.2169e-01 1 1  ON 14
ud_5 -1.1396e-01 1 1  ON 15
ud_6 -6.4686e-02 1 1  ON 16
ud_7 -3.7642e-02 1 1  ON 17
ud_8 -1.6729e-02 1 1  ON 18
ud_9 -2.2375e-02 1 1  ON 19
eK_0 -1.8334e+00 1 1  ON 20
eK_1 -7.4312e-01 1 1  ON 21
eK_2 1.0186e-01 1 1  ON 22
eK_3 5.9911e-01 1 1  ON 23
eK_4 7.6510e-01 1 1  ON 24
eK_5 6.7727e-01 1 1  ON 25
eK_6 3.5463e-01 1 1  ON 26
eK_7 7.9676e-02 1 1  ON 27
eK_8 5.0340e-03 1 1  ON 28
eK_9 -2.3203e-03 1 1  ON 29
  </optVariables>
   Restore the number of walkers to 1, removing 0 walkers.
</opt>
</optimization-report>
  QMC Execution time = 3.3140e+00 secs
  Reusing QMCFixedSampleLinearOptimize
 Using QMCCostFunction::QMCCostFunction

=========================================================
  Start QMCFixedSampleLinearOptimize
  File Root K.log.s010 append = no 
=========================================================
  Skip QMCDriver::putQMCInfo 
  Resetting Properties of the walkers 1 x 13

=========================================================
  Start VMC
  File Root K.log.s010 append = no 
=========================================================
Using existing walkers 
  Resetting Properties of the walkers 1 x 13

<vmc function="put">
  qmc_counter=4  my_counter=9
  time step      = 1.5000e-01
  blocks         = 200
  steps          = 2
  substeps       = 5
  current        = 0
  target samples = 2.5600e+05
  walkers/mpi    = 1

  stepsbetweensamples = 1
<parameter name="blocks" condition="int">200</parameter>
<parameter name="blocks_between_recompute" condition="int">0</parameter>
<parameter name="check_properties" condition="int">100</parameter>
<parameter name="checkproperties" condition="int">100</parameter>
<parameter name="current" condition="int">0</parameter>
<parameter name="dmcwalkersperthread" condition="real">2.5000e+02</parameter>
<parameter name="maxcpusecs" condition="real">3.6000e+05</parameter>
<parameter name="record_configs" condition="int">0</parameter>
<parameter name="record_walkers" condition="int">1</parameter>
<parameter name="recordconfigs" condition="int">0</parameter>
<parameter name="recordwalkers" condition="int">1</parameter>
<parameter name="rewind" condition="int">0</parameter>
<parameter name="samples" condition="real">2.5600e+05</parameter>
<parameter name="samplesperthread" condition="real">2.5000e+02</parameter>
<parameter name="steps" condition="int">2</parameter>
<parameter name="stepsbetweensamples" condition="int">1</parameter>
<parameter name="store_configs" condition="int">0</parameter>
<parameter name="storeconfigs" condition="int">0</parameter>
<parameter name="sub_steps" condition="int">5</parameter>
<parameter name="substeps" condition="int">5</parameter>
<parameter name="tau" condition="au">1.5000e-01</parameter>
<parameter name="time_step" condition="au">1.5000e-01</parameter>
<parameter name="timestep" condition="au">1.5000e-01</parameter>
<parameter name="use_drift" condition="string">no</parameter>
<parameter name="usedrift" condition="string">no</parameter>
<parameter name="walkers" condition="int">1</parameter>
<parameter name="warmup_steps" condition="int">0</parameter>
<parameter name="warmupsteps" condition="int">0</parameter>
  DumpConfig==false Nothing (configurations, state) will be saved.
  Walker Samples are dumped every 1 steps.
</vmc>
  EstimatorManagerBase::add replace LocalEnergy estimator.
  EstimatorManagerBase::add replace LocalEnergy estimator.
<optimization-report>
<vmc stage="main" blocks="200">
  Cannot make clones again. Use existing 1 clones
  Initial partition of walkers 0 1 
  Using Particle by Particle moves
  Walker moves without drift
  Total Sample Size   =256000
  Walker distribution on root = 0 1 
  Using Locality Approximation
===== Memory Usage after the buffer registration =====
Available memory on node 0, free + buffers : 84033 MB
Memory footprint by rank 0 on node 0       : 90 MB
==================================================
====================================================
  SimpleFixedNodeBranch::finalize after a VMC block
    QMC counter        = 10
    time step          = 0.15
    reference energy   = -28.2223
    reference variance = 0.362415
====================================================
  Execution time = 2.1628e+00
</vmc>
<opt stage="setup">
  <log>
   Reading configurations from h5FileRoot K.log.s010
  QMCCostFunction is created with 1 threads.
  Using Nonlocal PP in Opt: NonLocalECP
   Number of samples loaded to each thread : 250 
  VMC Eavg = -2.8207e+01
  VMC Evar = 3.5328e-01
  Total weights = 2.5600e+05
  Execution time = 4.6186e-01
  </log>
</opt>
<opt stage="main" walkers="256000">
  <log>

*****************************************
Building overlap and Hamiltonian matrices
*****************************************

Among totally 30 optimized parameters, largest LM parameter change : 4.5467e-02 at parameter 26

******************************************************************************
Init Cost =   3.5328e-01    New Cost =   3.5418e-01  Delta Cost =   9.0561e-04
******************************************************************************

The new set of parameters is valid. Updating the trial wave function!

*****************************************************************************
Applying the update for shift_i =   1.0000e-02     and shift_s =   3.9062e-03
*****************************************************************************
  Execution time = 3.0716e+00
  </log>
  <optVariables href="K.log.s010.opt.xml">
uu_0 3.9307e-01 1 1  ON 0
uu_1 9.0214e-02 1 1  ON 1
uu_2 -2.4881e-02 1 1  ON 2
uu_3 -8.7952e-02 1 1  ON 3
uu_4 -1.0500e-01 1 1  ON 4
uu_5 -1.0209e-01 1 1  ON 5
uu_6 -5.7756e-02 1 1  ON 6
uu_7 -2.7100e-02 1 1  ON 7
uu_8 -2.7131e-02 1 1  ON 8
uu_9 -3.2695e-02 1 1  ON 9
ud_0 4.7789e-01 1 1  ON 10
ud_1 9.2290e-02 1 1  ON 11
ud_2 -3.1812e-02 1 1  ON 12
ud_3 -1.1229e-01 1 1  ON 13
ud_4 -1.2017e-01 1 1  ON 14
ud_5 -1.1883e-01 1 1  ON 15
ud_6 -7.0534e-02 1 1  ON 16
ud_7 -3.7035e-02 1 1  ON 17
ud_8 -2.2485e-02 1 1  ON 18
ud_9 -3.5072e-02 1 1  ON 19
eK_0 -1.8657e+00 1 1  ON 20
eK_1 -7.7464e-01 1 1  ON 21
eK_2 7.7575e-02 1 1  ON 22
eK_3 5.8903e-01 1 1  ON 23
eK_4 7.6828e-01 1 1  ON 24
eK_5 7.1378e-01 1 1  ON 25
eK_6 4.0010e-01 1 1  ON 26
eK_7 9.8713e-02 1 1  ON 27
eK_8 1.8758e-03 1 1  ON 28
eK_9 -5.9796e-03 1 1  ON 29
  </optVariables>
   Restore the number of walkers to 1, removing 0 walkers.
</opt>
</optimization-report>
  QMC Execution time = 3.1188e+00 secs
Loop execution max-interations = 10
  Reusing QMCFixedSampleLinearOptimize
 Using QMCCostFunction::QMCCostFunction

=========================================================
  Start QMCFixedSampleLinearOptimize
  File Root K.log.s011 append = no 
=========================================================
  Skip QMCDriver::putQMCInfo 
  Resetting Properties of the walkers 1 x 13

=========================================================
  Start VMC
  File Root K.log.s011 append = no 
=========================================================
  Using the current 1 walkers.
  Total number of walkers: 1.0240e+03
  Total weight: 1.0240e+03
  Resetting Properties of the walkers 1 x 13

<vmc function="put">
  qmc_counter=0  my_counter=10
  time step      = 1.5000e-01
  blocks         = 200
  steps          = 3
  substeps       = 5
  current        = 0
  target samples = 5.1200e+05
  walkers/mpi    = 1

  stepsbetweensamples = 1
<parameter name="blocks" condition="int">200</parameter>
<parameter name="blocks_between_recompute" condition="int">0</parameter>
<parameter name="check_properties" condition="int">100</parameter>
<parameter name="checkproperties" condition="int">100</parameter>
<parameter name="current" condition="int">0</parameter>
<parameter name="dmcwalkersperthread" condition="real">5.0000e+02</parameter>
<parameter name="maxcpusecs" condition="real">3.6000e+05</parameter>
<parameter name="record_configs" condition="int">0</parameter>
<parameter name="record_walkers" condition="int">1</parameter>
<parameter name="recordconfigs" condition="int">0</parameter>
<parameter name="recordwalkers" condition="int">1</parameter>
<parameter name="rewind" condition="int">0</parameter>
<parameter name="samples" condition="real">5.1200e+05</parameter>
<parameter name="samplesperthread" condition="real">5.0000e+02</parameter>
<parameter name="steps" condition="int">3</parameter>
<parameter name="stepsbetweensamples" condition="int">1</parameter>
<parameter name="store_configs" condition="int">0</parameter>
<parameter name="storeconfigs" condition="int">0</parameter>
<parameter name="sub_steps" condition="int">5</parameter>
<parameter name="substeps" condition="int">5</parameter>
<parameter name="tau" condition="au">1.5000e-01</parameter>
<parameter name="time_step" condition="au">1.5000e-01</parameter>
<parameter name="timestep" condition="au">1.5000e-01</parameter>
<parameter name="use_drift" condition="string">no</parameter>
<parameter name="usedrift" condition="string">no</parameter>
<parameter name="walkers" condition="int">1</parameter>
<parameter name="warmup_steps" condition="int">0</parameter>
<parameter name="warmupsteps" condition="int">0</parameter>
  DumpConfig==false Nothing (configurations, state) will be saved.
  Walker Samples are dumped every 1 steps.
</vmc>
  EstimatorManagerBase::add replace LocalEnergy estimator.
  EstimatorManagerBase::add replace LocalEnergy estimator.
<optimization-report>
<vmc stage="main" blocks="200">
  Cannot make clones again. Use existing 1 clones
  Initial partition of walkers 0 1 
  Using Particle by Particle moves
  Walker moves without drift
  Total Sample Size   =512000
  Walker distribution on root = 0 1 
  Using Locality Approximation
===== Memory Usage after the buffer registration =====
Available memory on node 0, free + buffers : 84031 MB
Memory footprint by rank 0 on node 0       : 91 MB
==================================================
====================================================
  SimpleFixedNodeBranch::finalize after a VMC block
    QMC counter        = 11
    time step          = 0.15
    reference energy   = -28.217
    reference variance = 0.305702
====================================================
  Execution time = 2.8710e+00
</vmc>
<opt stage="setup">
  <log>
   Reading configurations from h5FileRoot K.log.s011
  QMCCostFunction is created with 1 threads.
  Using Nonlocal PP in Opt: NonLocalECP
   Number of samples loaded to each thread : 500 
  VMC Eavg = -2.8208e+01
  VMC Evar = 3.4968e-01
  Total weights = 5.1200e+05
  Execution time = 8.6540e-01
  </log>
</opt>
<opt stage="main" walkers="512000">
  <log>

*****************************************
Building overlap and Hamiltonian matrices
*****************************************

Among totally 30 optimized parameters, largest LM parameter change : 3.8795e-02 at parameter 26

******************************************************************************
Init Cost =  -2.6781e+01    New Cost =  -2.6781e+01  Delta Cost =  -2.3160e-04
******************************************************************************

The new set of parameters is valid. Updating the trial wave function!

*****************************************************************************
Applying the update for shift_i =   1.0000e-02     and shift_s =   3.9062e-03
*****************************************************************************
  Execution time = 4.5313e+00
  </log>
  <optVariables href="K.log.s011.opt.xml">
uu_0 3.9182e-01 1 1  ON 0
uu_1 9.1658e-02 1 1  ON 1
uu_2 -2.4650e-02 1 1  ON 2
uu_3 -8.9216e-02 1 1  ON 3
uu_4 -1.0843e-01 1 1  ON 4
uu_5 -1.0890e-01 1 1  ON 5
uu_6 -6.9004e-02 1 1  ON 6
uu_7 -2.6438e-02 1 1  ON 7
uu_8 -1.3147e-02 1 1  ON 8
uu_9 -2.4878e-02 1 1  ON 9
ud_0 4.7657e-01 1 1  ON 10
ud_1 9.1794e-02 1 1  ON 11
ud_2 -3.2841e-02 1 1  ON 12
ud_3 -1.1186e-01 1 1  ON 13
ud_4 -1.2385e-01 1 1  ON 14
ud_5 -1.2506e-01 1 1  ON 15
ud_6 -8.0701e-02 1 1  ON 16
ud_7 -3.1293e-02 1 1  ON 17
ud_8 -1.2007e-02 1 1  ON 18
ud_9 -2.6074e-02 1 1  ON 19
eK_0 -1.8996e+00 1 1  ON 20
eK_1 -8.1076e-01 1 1  ON 21
eK_2 4.6036e-02 1 1  ON 22
eK_3 5.7346e-01 1 1  ON 23
eK_4 7.8705e-01 1 1  ON 24
eK_5 7.4773e-01 1 1  ON 25
eK_6 4.3889e-01 1 1  ON 26
eK_7 1.1818e-01 1 1  ON 27
eK_8 7.0420e-03 1 1  ON 28
eK_9 -4.6652e-03 1 1  ON 29
  </optVariables>
   Restore the number of walkers to 1, removing 0 walkers.
</opt>
</optimization-report>
  QMC Execution time = 4.6001e+00 secs
  Reusing QMCFixedSampleLinearOptimize
 Using QMCCostFunction::QMCCostFunction

=========================================================
  Start QMCFixedSampleLinearOptimize
  File Root K.log.s012 append = no 
=========================================================
  Skip QMCDriver::putQMCInfo 
  Resetting Properties of the walkers 1 x 13

=========================================================
  Start VMC
  File Root K.log.s012 append = no 
=========================================================
Using existing walkers 
  Resetting Properties of the walkers 1 x 13

<vmc function="put">
  qmc_counter=1  my_counter=11
  time step      = 1.5000e-01
  blocks         = 200
  steps          = 3
  substeps       = 5
  current        = 0
  target samples = 5.1200e+05
  walkers/mpi    = 1

  stepsbetweensamples = 1
<parameter name="blocks" condition="int">200</parameter>
<parameter name="blocks_between_recompute" condition="int">0</parameter>
<parameter name="check_properties" condition="int">100</parameter>
<parameter name="checkproperties" condition="int">100</parameter>
<parameter name="current" condition="int">0</parameter>
<parameter name="dmcwalkersperthread" condition="real">5.0000e+02</parameter>
<parameter name="maxcpusecs" condition="real">3.6000e+05</parameter>
<parameter name="record_configs" condition="int">0</parameter>
<parameter name="record_walkers" condition="int">1</parameter>
<parameter name="recordconfigs" condition="int">0</parameter>
<parameter name="recordwalkers" condition="int">1</parameter>
<parameter name="rewind" condition="int">0</parameter>
<parameter name="samples" condition="real">5.1200e+05</parameter>
<parameter name="samplesperthread" condition="real">5.0000e+02</parameter>
<parameter name="steps" condition="int">3</parameter>
<parameter name="stepsbetweensamples" condition="int">1</parameter>
<parameter name="store_configs" condition="int">0</parameter>
<parameter name="storeconfigs" condition="int">0</parameter>
<parameter name="sub_steps" condition="int">5</parameter>
<parameter name="substeps" condition="int">5</parameter>
<parameter name="tau" condition="au">1.5000e-01</parameter>
<parameter name="time_step" condition="au">1.5000e-01</parameter>
<parameter name="timestep" condition="au">1.5000e-01</parameter>
<parameter name="use_drift" condition="string">no</parameter>
<parameter name="usedrift" condition="string">no</parameter>
<parameter name="walkers" condition="int">1</parameter>
<parameter name="warmup_steps" condition="int">0</parameter>
[...]
  Execution time = 2.6689e+00
</vmc>
<opt stage="setup">
  <log>
   Reading configurations from h5FileRoot K.log.s017
  QMCCostFunction is created with 1 threads.
  Using Nonlocal PP in Opt: NonLocalECP
   Number of samples loaded to each thread : 500 
  VMC Eavg = -2.8210e+01
  VMC Evar = 3.4251e-01
  Total weights = 5.1200e+05
  Execution time = 5.8332e-01
  </log>
</opt>
<opt stage="main" walkers="512000">
  <log>

*****************************************
Building overlap and Hamiltonian matrices
*****************************************

Among totally 30 optimized parameters, largest LM parameter change : 2.4908e-02 at parameter 26

******************************************************************************
Init Cost =  -2.6782e+01    New Cost =  -2.6782e+01  Delta Cost =  -6.1462e-05
******************************************************************************

The new set of parameters is valid. Updating the trial wave function!

*****************************************************************************
Applying the update for shift_i =   1.0000e-02     and shift_s =   3.9062e-03
*****************************************************************************
  Execution time = 3.8174e+00
  </log>
  <optVariables href="K.log.s017.opt.xml">
uu_0 4.0833e-01 1 1  ON 0
uu_1 1.0717e-01 1 1  ON 1
uu_2 -1.1001e-02 1 1  ON 2
uu_3 -8.0058e-02 1 1  ON 3
uu_4 -1.0874e-01 1 1  ON 4
uu_5 -1.1838e-01 1 1  ON 5
uu_6 -9.1430e-02 1 1  ON 6
uu_7 -4.1635e-02 1 1  ON 7
uu_8 -1.2626e-02 1 1  ON 8
uu_9 -2.1160e-02 1 1  ON 9
ud_0 4.9753e-01 1 1  ON 10
ud_1 1.1223e-01 1 1  ON 11
ud_2 -1.4318e-02 1 1  ON 12
ud_3 -9.8294e-02 1 1  ON 13
ud_4 -1.2045e-01 1 1  ON 14
ud_5 -1.3470e-01 1 1  ON 15
ud_6 -1.0121e-01 1 1  ON 16
ud_7 -4.8754e-02 1 1  ON 17
ud_8 -2.5083e-02 1 1  ON 18
ud_9 -3.5067e-02 1 1  ON 19
eK_0 -2.0313e+00 1 1  ON 20
eK_1 -9.3383e-01 1 1  ON 21
eK_2 -5.7146e-02 1 1  ON 22
eK_3 5.0749e-01 1 1  ON 23
eK_4 7.8518e-01 1 1  ON 24
eK_5 8.6125e-01 1 1  ON 25
eK_6 6.2816e-01 1 1  ON 26
eK_7 2.2613e-01 1 1  ON 27
eK_8 2.5220e-02 1 1  ON 28
eK_9 -5.4270e-03 1 1  ON 29
  </optVariables>
   Restore the number of walkers to 1, removing 0 walkers.
</opt>
</optimization-report>
  QMC Execution time = 3.8636e+00 secs
  Reusing QMCFixedSampleLinearOptimize
 Using QMCCostFunction::QMCCostFunction

=========================================================
  Start QMCFixedSampleLinearOptimize
  File Root K.log.s018 append = no 
=========================================================
  Skip QMCDriver::putQMCInfo 
  Resetting Properties of the walkers 1 x 13

=========================================================
  Start VMC
  File Root K.log.s018 append = no 
=========================================================
Using existing walkers 
  Resetting Properties of the walkers 1 x 13

<vmc function="put">
  qmc_counter=7  my_counter=17
  time step      = 1.5000e-01
  blocks         = 200
  steps          = 3
  substeps       = 5
  current        = 0
  target samples = 5.1200e+05
  walkers/mpi    = 1

  stepsbetweensamples = 1
<parameter name="blocks" condition="int">200</parameter>
<parameter name="blocks_between_recompute" condition="int">0</parameter>
<parameter name="check_properties" condition="int">100</parameter>
<parameter name="checkproperties" condition="int">100</parameter>
<parameter name="current" condition="int">0</parameter>
<parameter name="dmcwalkersperthread" condition="real">5.0000e+02</parameter>
<parameter name="maxcpusecs" condition="real">3.6000e+05</parameter>
<parameter name="record_configs" condition="int">0</parameter>
<parameter name="record_walkers" condition="int">1</parameter>
<parameter name="recordconfigs" condition="int">0</parameter>
<parameter name="recordwalkers" condition="int">1</parameter>
<parameter name="rewind" condition="int">0</parameter>
<parameter name="samples" condition="real">5.1200e+05</parameter>
<parameter name="samplesperthread" condition="real">5.0000e+02</parameter>
<parameter name="steps" condition="int">3</parameter>
<parameter name="stepsbetweensamples" condition="int">1</parameter>
<parameter name="store_configs" condition="int">0</parameter>
<parameter name="storeconfigs" condition="int">0</parameter>
<parameter name="sub_steps" condition="int">5</parameter>
<parameter name="substeps" condition="int">5</parameter>
<parameter name="tau" condition="au">1.5000e-01</parameter>
<parameter name="time_step" condition="au">1.5000e-01</parameter>
<parameter name="timestep" condition="au">1.5000e-01</parameter>
<parameter name="use_drift" condition="string">no</parameter>
<parameter name="usedrift" condition="string">no</parameter>
<parameter name="walkers" condition="int">1</parameter>
<parameter name="warmup_steps" condition="int">0</parameter>
<parameter name="warmupsteps" condition="int">0</parameter>
  DumpConfig==false Nothing (configurations, state) will be saved.
  Walker Samples are dumped every 1 steps.
</vmc>
  EstimatorManagerBase::add replace LocalEnergy estimator.
  EstimatorManagerBase::add replace LocalEnergy estimator.
<optimization-report>
<vmc stage="main" blocks="200">
  Cannot make clones again. Use existing 1 clones
  Initial partition of walkers 0 1 
  Using Particle by Particle moves
  Walker moves without drift
  Total Sample Size   =512000
  Walker distribution on root = 0 1 
  Using Locality Approximation
===== Memory Usage after the buffer registration =====
Available memory on node 0, free + buffers : 83980 MB
Memory footprint by rank 0 on node 0       : 104 MB
==================================================
====================================================
  SimpleFixedNodeBranch::finalize after a VMC block
    QMC counter        = 18
    time step          = 0.15
    reference energy   = -28.2275
    reference variance = 0.341109
====================================================
  Execution time = 2.6820e+00
</vmc>
<opt stage="setup">
  <log>
   Reading configurations from h5FileRoot K.log.s018
  QMCCostFunction is created with 1 threads.
  Using Nonlocal PP in Opt: NonLocalECP
   Number of samples loaded to each thread : 500 
  VMC Eavg = -2.8209e+01
  VMC Evar = 3.4565e-01
  Total weights = 5.1200e+05
  Execution time = 5.5949e-01
  </log>
</opt>
<opt stage="main" walkers="512000">
  <log>

*****************************************
Building overlap and Hamiltonian matrices
*****************************************

Among totally 30 optimized parameters, largest LM parameter change : 2.1094e-02 at parameter 27

******************************************************************************
Init Cost =  -2.6781e+01    New Cost =  -2.6781e+01  Delta Cost =  -6.8890e-05
******************************************************************************

The new set of parameters is valid. Updating the trial wave function!

*****************************************************************************
Applying the update for shift_i =   1.0000e-02     and shift_s =   3.9062e-03
*****************************************************************************
  Execution time = 3.7870e+00
  </log>
  <optVariables href="K.log.s018.opt.xml">
uu_0 4.0599e-01 1 1  ON 0
uu_1 1.0441e-01 1 1  ON 1
uu_2 -1.3427e-02 1 1  ON 2
uu_3 -8.0483e-02 1 1  ON 3
uu_4 -1.1378e-01 1 1  ON 4
uu_5 -1.2537e-01 1 1  ON 5
uu_6 -9.7159e-02 1 1  ON 6
uu_7 -3.3801e-02 1 1  ON 7
uu_8 2.4062e-03 1 1  ON 8
uu_9 -1.4419e-02 1 1  ON 9
ud_0 4.9589e-01 1 1  ON 10
ud_1 1.1043e-01 1 1  ON 11
ud_2 -1.7035e-02 1 1  ON 12
ud_3 -1.0237e-01 1 1  ON 13
ud_4 -1.2282e-01 1 1  ON 14
ud_5 -1.3881e-01 1 1  ON 15
ud_6 -1.0541e-01 1 1  ON 16
ud_7 -4.5122e-02 1 1  ON 17
ud_8 -1.3168e-02 1 1  ON 18
ud_9 -2.8797e-02 1 1  ON 19
eK_0 -2.0479e+00 1 1  ON 20
eK_1 -9.4990e-01 1 1  ON 21
eK_2 -7.2343e-02 1 1  ON 22
eK_3 4.9904e-01 1 1  ON 23
eK_4 7.8832e-01 1 1  ON 24
eK_5 8.6505e-01 1 1  ON 25
eK_6 6.4896e-01 1 1  ON 26
eK_7 2.4723e-01 1 1  ON 27
eK_8 3.3180e-02 1 1  ON 28
eK_9 -5.3511e-03 1 1  ON 29
  </optVariables>
   Restore the number of walkers to 1, removing 0 walkers.
</opt>
</optimization-report>
  QMC Execution time = 3.8169e+00 secs
  Reusing QMCFixedSampleLinearOptimize
 Using QMCCostFunction::QMCCostFunction

=========================================================
  Start QMCFixedSampleLinearOptimize
  File Root K.log.s019 append = no 
=========================================================
  Skip QMCDriver::putQMCInfo 
  Resetting Properties of the walkers 1 x 13

=========================================================
  Start VMC
  File Root K.log.s019 append = no 
=========================================================
Using existing walkers 
  Resetting Properties of the walkers 1 x 13

<vmc function="put">
  qmc_counter=8  my_counter=18
  time step      = 1.5000e-01
  blocks         = 200
  steps          = 3
  substeps       = 5
  current        = 0
  target samples = 5.1200e+05
  walkers/mpi    = 1

  stepsbetweensamples = 1
<parameter name="blocks" condition="int">200</parameter>
<parameter name="blocks_between_recompute" condition="int">0</parameter>
<parameter name="check_properties" condition="int">100</parameter>
<parameter name="checkproperties" condition="int">100</parameter>
<parameter name="current" condition="int">0</parameter>
<parameter name="dmcwalkersperthread" condition="real">5.0000e+02</parameter>
<parameter name="maxcpusecs" condition="real">3.6000e+05</parameter>
<parameter name="record_configs" condition="int">0</parameter>
<parameter name="record_walkers" condition="int">1</parameter>
<parameter name="recordconfigs" condition="int">0</parameter>
<parameter name="recordwalkers" condition="int">1</parameter>
<parameter name="rewind" condition="int">0</parameter>
<parameter name="samples" condition="real">5.1200e+05</parameter>
<parameter name="samplesperthread" condition="real">5.0000e+02</parameter>
<parameter name="steps" condition="int">3</parameter>
<parameter name="stepsbetweensamples" condition="int">1</parameter>
<parameter name="store_configs" condition="int">0</parameter>
<parameter name="storeconfigs" condition="int">0</parameter>
<parameter name="sub_steps" condition="int">5</parameter>
<parameter name="substeps" condition="int">5</parameter>
<parameter name="tau" condition="au">1.5000e-01</parameter>
<parameter name="time_step" condition="au">1.5000e-01</parameter>
<parameter name="timestep" condition="au">1.5000e-01</parameter>
<parameter name="use_drift" condition="string">no</parameter>
<parameter name="usedrift" condition="string">no</parameter>
<parameter name="walkers" condition="int">1</parameter>
<parameter name="warmup_steps" condition="int">0</parameter>
<parameter name="warmupsteps" condition="int">0</parameter>
  DumpConfig==false Nothing (configurations, state) will be saved.
  Walker Samples are dumped every 1 steps.
</vmc>
  EstimatorManagerBase::add replace LocalEnergy estimator.
  EstimatorManagerBase::add replace LocalEnergy estimator.
<optimization-report>
<vmc stage="main" blocks="200">
  Cannot make clones again. Use existing 1 clones
  Initial partition of walkers 0 1 
  Using Particle by Particle moves
  Walker moves without drift
  Total Sample Size   =512000
  Walker distribution on root = 0 1 
  Using Locality Approximation
===== Memory Usage after the buffer registration =====
Available memory on node 0, free + buffers : 83977 MB
Memory footprint by rank 0 on node 0       : 106 MB
==================================================
====================================================
  SimpleFixedNodeBranch::finalize after a VMC block
    QMC counter        = 19
    time step          = 0.15
    reference energy   = -28.1943
    reference variance = 0.316833
====================================================
  Execution time = 2.6220e+00
</vmc>
<opt stage="setup">
  <log>
   Reading configurations from h5FileRoot K.log.s019
  QMCCostFunction is created with 1 threads.
  Using Nonlocal PP in Opt: NonLocalECP
   Number of samples loaded to each thread : 500 
  VMC Eavg = -2.8209e+01
  VMC Evar = 3.4427e-01
  Total weights = 5.1200e+05
  Execution time = 5.4346e-01
  </log>
</opt>
<opt stage="main" walkers="512000">
  <log>

*****************************************
Building overlap and Hamiltonian matrices
*****************************************

Among totally 30 optimized parameters, largest LM parameter change : 2.0968e-02 at parameter 26

******************************************************************************
Init Cost =  -2.6782e+01    New Cost =  -2.6782e+01  Delta Cost =  -8.4489e-05
******************************************************************************

The new set of parameters is valid. Updating the trial wave function!

*****************************************************************************
Applying the update for shift_i =   1.0000e-02     and shift_s =   3.9062e-03
*****************************************************************************
  Execution time = 3.6898e+00
  </log>
  <optVariables href="K.log.s019.opt.xml">
uu_0 4.1259e-01 1 1  ON 0
uu_1 1.1120e-01 1 1  ON 1
uu_2 -7.1597e-03 1 1  ON 2
uu_3 -7.5680e-02 1 1  ON 3
uu_4 -1.0778e-01 1 1  ON 4
uu_5 -1.2124e-01 1 1  ON 5
uu_6 -9.6423e-02 1 1  ON 6
uu_7 -5.1451e-02 1 1  ON 7
uu_8 -1.2754e-02 1 1  ON 8
uu_9 -1.6148e-02 1 1  ON 9
ud_0 5.0346e-01 1 1  ON 10
ud_1 1.1728e-01 1 1  ON 11
ud_2 -9.8440e-03 1 1  ON 12
ud_3 -9.5125e-02 1 1  ON 13
ud_4 -1.1599e-01 1 1  ON 14
ud_5 -1.3321e-01 1 1  ON 15
ud_6 -1.1004e-01 1 1  ON 16
ud_7 -6.1084e-02 1 1  ON 17
ud_8 -3.0770e-02 1 1  ON 18
ud_9 -3.1394e-02 1 1  ON 19
eK_0 -2.0624e+00 1 1  ON 20
eK_1 -9.6385e-01 1 1  ON 21
eK_2 -8.2724e-02 1 1  ON 22
eK_3 4.9302e-01 1 1  ON 23
eK_4 7.8311e-01 1 1  ON 24
eK_5 8.8104e-01 1 1  ON 25
eK_6 6.6993e-01 1 1  ON 26
eK_7 2.5938e-01 1 1  ON 27
eK_8 3.4423e-02 1 1  ON 28
eK_9 -5.3459e-03 1 1  ON 29
  </optVariables>
   Restore the number of walkers to 1, removing 0 walkers.
</opt>
</optimization-report>
  QMC Execution time = 3.7163e+00 secs
  Reusing QMCFixedSampleLinearOptimize
 Using QMCCostFunction::QMCCostFunction

=========================================================
  Start QMCFixedSampleLinearOptimize
  File Root K.log.s020 append = no 
=========================================================
  Skip QMCDriver::putQMCInfo 
  Resetting Properties of the walkers 1 x 13

=========================================================
  Start VMC
  File Root K.log.s020 append = no 
=========================================================
Using existing walkers 
  Resetting Properties of the walkers 1 x 13

<vmc function="put">
  qmc_counter=9  my_counter=19
  time step      = 1.5000e-01
  blocks         = 200
  steps          = 3
  substeps       = 5
  current        = 0
  target samples = 5.1200e+05
  walkers/mpi    = 1

  stepsbetweensamples = 1
<parameter name="blocks" condition="int">200</parameter>
<parameter name="blocks_between_recompute" condition="int">0</parameter>
<parameter name="check_properties" condition="int">100</parameter>
<parameter name="checkproperties" condition="int">100</parameter>
<parameter name="current" condition="int">0</parameter>
<parameter name="dmcwalkersperthread" condition="real">5.0000e+02</parameter>
<parameter name="maxcpusecs" condition="real">3.6000e+05</parameter>
<parameter name="record_configs" condition="int">0</parameter>
<parameter name="record_walkers" condition="int">1</parameter>
<parameter name="recordconfigs" condition="int">0</parameter>
<parameter name="recordwalkers" condition="int">1</parameter>
<parameter name="rewind" condition="int">0</parameter>
<parameter name="samples" condition="real">5.1200e+05</parameter>
<parameter name="samplesperthread" condition="real">5.0000e+02</parameter>
<parameter name="steps" condition="int">3</parameter>
<parameter name="stepsbetweensamples" condition="int">1</parameter>
<parameter name="store_configs" condition="int">0</parameter>
<parameter name="storeconfigs" condition="int">0</parameter>
<parameter name="sub_steps" condition="int">5</parameter>
<parameter name="substeps" condition="int">5</parameter>
<parameter name="tau" condition="au">1.5000e-01</parameter>
<parameter name="time_step" condition="au">1.5000e-01</parameter>
<parameter name="timestep" condition="au">1.5000e-01</parameter>
<parameter name="use_drift" condition="string">no</parameter>
<parameter name="usedrift" condition="string">no</parameter>
<parameter name="walkers" condition="int">1</parameter>
<parameter name="warmup_steps" condition="int">0</parameter>
<parameter name="warmupsteps" condition="int">0</parameter>
  DumpConfig==false Nothing (configurations, state) will be saved.
  Walker Samples are dumped every 1 steps.
</vmc>
  EstimatorManagerBase::add replace LocalEnergy estimator.
  EstimatorManagerBase::add replace LocalEnergy estimator.
<optimization-report>
<vmc stage="main" blocks="200">
  Cannot make clones again. Use existing 1 clones
  Initial partition of walkers 0 1 
  Using Particle by Particle moves
  Walker moves without drift
  Total Sample Size   =512000
  Walker distribution on root = 0 1 
  Using Locality Approximation
===== Memory Usage after the buffer registration =====
Available memory on node 0, free + buffers : 83975 MB
Memory footprint by rank 0 on node 0       : 108 MB
==================================================
====================================================
  SimpleFixedNodeBranch::finalize after a VMC block
    QMC counter        = 20
    time step          = 0.15
    reference energy   = -28.2424
    reference variance = 0.311205
====================================================
  Execution time = 2.5704e+00
</vmc>
<opt stage="setup">
  <log>
   Reading configurations from h5FileRoot K.log.s020
  QMCCostFunction is created with 1 threads.
  Using Nonlocal PP in Opt: NonLocalECP
   Number of samples loaded to each thread : 500 
  VMC Eavg = -2.8209e+01
  VMC Evar = 3.4500e-01
  Total weights = 5.1200e+05
  Execution time = 5.5505e-01
  </log>
</opt>
<opt stage="main" walkers="512000">
  <log>

*****************************************
Building overlap and Hamiltonian matrices
*****************************************

Among totally 30 optimized parameters, largest LM parameter change : 2.0833e-02 at parameter 27

******************************************************************************
Init Cost =  -2.6782e+01    New Cost =  -2.6782e+01  Delta Cost =  -6.1837e-05
******************************************************************************

The new set of parameters is valid. Updating the trial wave function!

*****************************************************************************
Applying the update for shift_i =   1.0000e-02     and shift_s =   3.9062e-03
*****************************************************************************
  Execution time = 3.6245e+00
  </log>
  <optVariables href="K.log.s020.opt.xml">
uu_0 4.1151e-01 1 1  ON 0
uu_1 1.1131e-01 1 1  ON 1
uu_2 -7.8049e-03 1 1  ON 2
uu_3 -7.7090e-02 1 1  ON 3
uu_4 -1.0922e-01 1 1  ON 4
uu_5 -1.2383e-01 1 1  ON 5
uu_6 -1.0112e-01 1 1  ON 6
uu_7 -4.5898e-02 1 1  ON 7
uu_8 -8.5516e-03 1 1  ON 8
uu_9 -1.3151e-02 1 1  ON 9
ud_0 5.0117e-01 1 1  ON 10
ud_1 1.1637e-01 1 1  ON 11
ud_2 -1.0555e-02 1 1  ON 12
ud_3 -9.5264e-02 1 1  ON 13
ud_4 -1.1750e-01 1 1  ON 14
ud_5 -1.3467e-01 1 1  ON 15
ud_6 -1.0652e-01 1 1  ON 16
ud_7 -5.9703e-02 1 1  ON 17
ud_8 -2.8235e-02 1 1  ON 18
ud_9 -2.9242e-02 1 1  ON 19
eK_0 -2.0749e+00 1 1  ON 20
eK_1 -9.7573e-01 1 1  ON 21
eK_2 -9.4865e-02 1 1  ON 22
eK_3 4.7998e-01 1 1  ON 23
eK_4 7.8304e-01 1 1  ON 24
eK_5 8.8602e-01 1 1  ON 25
eK_6 6.9007e-01 1 1  ON 26
eK_7 2.8021e-01 1 1  ON 27
eK_8 3.7605e-02 1 1  ON 28
eK_9 -5.0413e-03 1 1  ON 29
  </optVariables>
   Restore the number of walkers to 1, removing 0 walkers.
</opt>
</optimization-report>
  QMC Execution time = 3.6508e+00 secs
  Total Execution time = 8.0377e+01 secs

=========================================================
  A new xml input file : K.log.s020.cont.xml
TACC:  Shutdown complete. Exiting. 
