TACC:  Starting up job 3912548 
TACC:  Starting parallel tasks... 
  Input file(s): Se.log.qmc.in-wfj.xml 

=====================================================
                    QMCPACK 3.7.9

       (c) Copyright 2003-  QMCPACK developers

                    Please cite:
 J. Kim et al. J. Phys. Cond. Mat. 30 195901 (2018)
      https://doi.org/10.1088/1361-648X/aab9c3

  Git branch: develop
  Last git commit: 9a049a3fb3e0d7110d61a924a52203fd8296522a
  Last git commit date: Mon Jul 1 13:42:43 2019 -0500
  Last git commit subject: Merge pull request #1686 from ye-luo/rename-to-LCAOHDFParser
=====================================================
  Global options 

  Total number of MPI ranks = 1024
  Number of MPI groups      = 1
  MPI group ID              = 0
  Number of ranks in group  = 1024
  MPI ranks per node        = 64
  OMP 1st level threads     = 1
  OMP nested threading disabled or only 1 thread on the 2nd level

  Precision used in this calculation, see definitions in the manual:
  Base precision      = double
  Full precision      = double

  Structure-of-arrays (SoA) optimization enabled

  Input XML = Se.log.qmc.in-wfj.xml

  Project = Se.log
  date    = 2019-07-01 20:08:08 CDT
  host    = c409-043.stampede2.tacc.utexas.edu

 Random Number
 -------------
  Offset for the random number seeds based on time: 632

  Range of prime numbers to use as seeds over processors and threads = 4691-14057


 Particle Set 
 ------------
  Name: ion0
  All the species have the same mass 1
  Particle set size: 1

 Particle Set 
 ------------
  Name: e
  All the species have the same mass 1
  Particle set size: 6

 Wavefunction setup: 
 ------------------- 
  Name: psi0
  LCAO: SoaAtomicBasisSet<MultiQuintic,1>
Reading BasisSet from HDF5 file:Se.log.h5
<input node="atomicBasisSet" name="gaussian" expandYlm="pyscf" angular="spherical" elementType="Se" normalized="no" type="Numerical" expM="0" />
  AO BasisSet for Se
   Spherical Harmonics contain (-1)^m factor
   Angular momentum m expanded as -l, ... ,l, with the exception of L=1 (1,-1,0)
   Grid is created by the input paremters in h5
    Using log grid ri = 1e-06 rf = 100 npts = 1001
   R(n,l,m,s) 0 0 0 0
   R(n,l,m,s) 1 0 0 0
   R(n,l,m,s) 2 0 0 0
   R(n,l,m,s) 3 0 0 0
   R(n,l,m,s) 4 1 0 0
   R(n,l,m,s) 5 1 0 0
   R(n,l,m,s) 6 1 0 0
   R(n,l,m,s) 7 1 0 0
   R(n,l,m,s) 8 2 0 0
   R(n,l,m,s) 9 2 0 0
   R(n,l,m,s) 10 2 0 0
   R(n,l,m,s) 11 3 0 0
   R(n,l,m,s) 12 3 0 0
   R(n,l,m,s) 13 4 0 0
Expanding Ylm as L=1 as (1,-1,0) and L>1 as -l,-l+1,...,l-1,l
   Adding 1 spherical orbitals
   Adding 1 spherical orbitals
   Adding 1 spherical orbitals
   Adding 1 spherical orbitals
   Adding 3 spherical orbitals
   Adding 3 spherical orbitals
   Adding 3 spherical orbitals
   Adding 3 spherical orbitals
   Adding 5 spherical orbitals
   Adding 5 spherical orbitals
   Adding 5 spherical orbitals
   Adding 7 spherical orbitals
   Adding 7 spherical orbitals
   Adding 9 spherical orbitals
  Setting cutoff radius 12.7057

   Maximum Angular Momentum  = 4
   Number of Radial functors = 14
   Basis size                = 54

  Created SPOSet builder named 'LCAOBSet' of type molecularorbital
Reuse SPOSetBuilder "LCAOBSet" type MolecularOrbital
  Building SPOSet '' with '' basis set.
Reuse SPOSetBuilder "LCAOBSet" type MolecularOrbital
  Building SPOSet '' with '' basis set.
  Creating a determinant updet group=0 sposet=updet
  Reusing a SPO set updet
Using DiracDeterminant with DelayedUpdate engine
Using rank-1 Sherman-Morrison Fahy update

  Creating a determinant downdet group=1 sposet=downdet
  Reusing a SPO set downdet
Using DiracDeterminant with DelayedUpdate engine
Using rank-1 Sherman-Morrison Fahy update

  FermionWF = SlaterDet

   Jastrow
   -------
    Name: J2   Type: Two-Body   Function: Bspline

    Radial function for species: u - u
     Number of parameters: 10
     Cusp: -0.25
     Cutoff radius: 10

     Name                        Value Type Recompute Use Index
     ---- ---------------------------- ---- --------- --- -----
     uu_0                 4.738488e-01    1         1  ON     0
     uu_1                 2.787504e-01    1         1  ON     1
     uu_2                 1.406778e-01    1         1  ON     2
     uu_3                 3.819973e-02    1         1  ON     3
     uu_4                -3.835393e-02    1         1  ON     4
     uu_5                -9.349706e-02    1         1  ON     5
     uu_6                -1.299741e-01    1         1  ON     6
     uu_7                -1.542190e-01    1         1  ON     7
     uu_8                -1.557347e-01    1         1  ON     8
     uu_9                -1.347732e-01    1         1  ON     9

    Radial function for species: u - d
     Number of parameters: 10
     Cusp: -0.5
     Cutoff radius: 10

     Name                        Value Type Recompute Use Index
     ---- ---------------------------- ---- --------- --- -----
     ud_0                 7.680448e-01    1         1  ON     0
     ud_1                 4.267023e-01    1         1  ON     1
     ud_2                 2.158913e-01    1         1  ON     2
     ud_3                 8.717818e-02    1         1  ON     3
     ud_4                -2.895318e-03    1         1  ON     4
     ud_5                -6.929889e-02    1         1  ON     5
     ud_6                -1.163782e-01    1         1  ON     6
     ud_7                -1.479566e-01    1         1  ON     7
     ud_8                -1.562040e-01    1         1  ON     8
     ud_9                -1.521303e-01    1         1  ON     9


   Jastrow
   -------
    Name: J1   Type: One-Body   Function: Bspline

    Radial function for element: Se
     Number of parameters: 10
     Cusp: 0
     Cutoff radius: 10

      Name                        Value Type Recompute Use Index
     ----- ---------------------------- ---- --------- --- -----
     eSe_0                -1.002682e+00    1         1  ON     0
     eSe_1                -8.192870e-01    1         1  ON     1
     eSe_2                -5.357581e-01    1         1  ON     2
     eSe_3                -1.807026e-01    1         1  ON     3
     eSe_4                 1.188114e-01    1         1  ON     4
     eSe_5                 3.708827e-01    1         1  ON     5
     eSe_6                 5.576871e-01    1         1  ON     6
     eSe_7                 6.548619e-01    1         1  ON     7
     eSe_8                 5.858284e-01    1         1  ON     8
     eSe_9                 2.380798e-01    1         1  ON     9


   Jastrow
   -------
    Name: J3   Type: eeI   Function: polynomial

     Ion: Se   electron-electron: u - u
      Number of parameters for e-e: 3, for e-I: 3
      Cutoff radius: 10

Expected 26 parameters, but found 0 in PolynomialFunctor3D.
         Name                        Value Type Recompute Use Index
      ------- ---------------------------- ---- --------- --- -----
       uuSe_0                 0.000000e+00    1         1  ON     0
       uuSe_1                 0.000000e+00    1         1  ON     1
       uuSe_2                 0.000000e+00    1         1  ON     2
       uuSe_3                 0.000000e+00    1         1  ON     3
       uuSe_4                 0.000000e+00    1         1  ON     4
       uuSe_5                 0.000000e+00    1         1  ON     5
       uuSe_6                 0.000000e+00    1         1  ON     6
       uuSe_7                 0.000000e+00    1         1  ON     7
       uuSe_8                 0.000000e+00    1         1  ON     8
       uuSe_9                 0.000000e+00    1         1  ON     9
      uuSe_10                 0.000000e+00    1         1  ON    10
      uuSe_11                 0.000000e+00    1         1  ON    11
      uuSe_12                 0.000000e+00    1         1  ON    12
      uuSe_13                 0.000000e+00    1         1  ON    13
      uuSe_14                 0.000000e+00    1         1  ON    14
      uuSe_15                 0.000000e+00    1         1  ON    15
      uuSe_16                 0.000000e+00    1         1  ON    16
      uuSe_17                 0.000000e+00    1         1  ON    17
      uuSe_18                 0.000000e+00    1         1  ON    18
      uuSe_19                 0.000000e+00    1         1  ON    19
      uuSe_20                 0.000000e+00    1         1  ON    20
      uuSe_21                 0.000000e+00    1         1  ON    21
      uuSe_22                 0.000000e+00    1         1  ON    22
      uuSe_23                 0.000000e+00    1         1  ON    23
      uuSe_24                 0.000000e+00    1         1  ON    24
      uuSe_25                 0.000000e+00    1         1  ON    25

     Ion: Se   electron-electron: u - d
      Number of parameters for e-e: 3, for e-I: 3
      Cutoff radius: 10

Expected 26 parameters, but found 0 in PolynomialFunctor3D.
         Name                        Value Type Recompute Use Index
      ------- ---------------------------- ---- --------- --- -----
       udSe_0                 0.000000e+00    1         1  ON     0
       udSe_1                 0.000000e+00    1         1  ON     1
       udSe_2                 0.000000e+00    1         1  ON     2
       udSe_3                 0.000000e+00    1         1  ON     3
       udSe_4                 0.000000e+00    1         1  ON     4
       udSe_5                 0.000000e+00    1         1  ON     5
       udSe_6                 0.000000e+00    1         1  ON     6
       udSe_7                 0.000000e+00    1         1  ON     7
       udSe_8                 0.000000e+00    1         1  ON     8
       udSe_9                 0.000000e+00    1         1  ON     9
      udSe_10                 0.000000e+00    1         1  ON    10
      udSe_11                 0.000000e+00    1         1  ON    11
      udSe_12                 0.000000e+00    1         1  ON    12
      udSe_13                 0.000000e+00    1         1  ON    13
      udSe_14                 0.000000e+00    1         1  ON    14
      udSe_15                 0.000000e+00    1         1  ON    15
      udSe_16                 0.000000e+00    1         1  ON    16
      udSe_17                 0.000000e+00    1         1  ON    17
      udSe_18                 0.000000e+00    1         1  ON    18
      udSe_19                 0.000000e+00    1         1  ON    19
      udSe_20                 0.000000e+00    1         1  ON    20
      udSe_21                 0.000000e+00    1         1  ON    21
      udSe_22                 0.000000e+00    1         1  ON    22
      udSe_23                 0.000000e+00    1         1  ON    23
      udSe_24                 0.000000e+00    1         1  ON    24
      udSe_25                 0.000000e+00    1         1  ON    25

  QMCHamiltonian::addOperator Kinetic to H, physical Hamiltonian 
  QMCHamiltonian::addOperator ElecElec to H, physical Hamiltonian 
QMCHamiltonian::addOperatorType added type coulomb named ElecElec
  CoulombAA for ion0 is not created.  Number of particles == 1 and nonPeriodic

  ECPotential builder for pseudopotential 

  Adding pseudopotential for Se
   Linear grid  ri=0 rf=10 npts = 10001
    ECPComponentBuilder::buildSemiLocalAndLocal 
    Assuming Hartree unit
   Number of angular momentum channels 4
   Maximum angular momentum channel 3
   Creating a Linear Grid Rmax=3.085
  Using global grid with delta = 0.001
   Making L=3 a local potential with a radial cutoff of 9.999
    Non-local pseudopotential parameters
    Maximum angular mementum = 2
    Number of non-local channels = 3
       l(0)=0
       l(1)=1
       l(2)=2
    Cutoff radius = 3.085
    Spherical grids and weights: 
                        1                 0                 0       0.08333333333
                       -1   1.224646799e-16                 0       0.08333333333
             0.4472135955       0.894427191                 0       0.08333333333
            -0.4472135955      0.7236067977      0.5257311121       0.08333333333
             0.4472135955      0.2763932023      0.8506508084       0.08333333333
            -0.4472135955     -0.2763932023      0.8506508084       0.08333333333
             0.4472135955     -0.7236067977      0.5257311121       0.08333333333
            -0.4472135955      -0.894427191   1.095357397e-16       0.08333333333
             0.4472135955     -0.7236067977     -0.5257311121       0.08333333333
            -0.4472135955     -0.2763932023     -0.8506508084       0.08333333333
             0.4472135955      0.2763932023     -0.8506508084       0.08333333333
            -0.4472135955      0.7236067977     -0.5257311121       0.08333333333
    Maximum cutoff radius 3.085
  QMCHamiltonian::addOperator LocalECP to H, physical Hamiltonian 

  Using NonLocalECP potential 
    Maximum grid on a sphere for NonLocalECPotential: 12
  QMCHamiltonian::addOperator NonLocalECP to H, physical Hamiltonian 
QMCHamiltonian::addOperatorType added type pseudo named PseudoPot

  QMCHamiltonian::add2WalkerProperty added
    4 to P::PropertyList 
    0 to P::Collectables 
    starting Index of the observables in P::PropertyList = 9
ParticleSetPool::randomize 
<init source="ion0" target="e">
</init>
  Initialization Execution time = 0.3815 secs
=========================================================
 Summary of QMC systems 
=========================================================
ParticleSetPool has: 

  ParticleSet 'e' contains 6 particles :  u(4) d(2)

    u  2.7751089916e+00 -3.7077341036e-01 -6.9926477547e-01
    u  3.0663960074e-01 -6.1973465959e-01  3.2773049083e-01
    u -1.2400586587e+00 -1.2974919479e+00 -2.9909007796e-01
    u -1.0605802920e+00  9.4715273378e-01 -9.1660129387e-01
    d  2.8552975426e-01  1.1778036540e+00  7.7300562259e-02
    d -4.2516559266e-01 -5.6511068416e-01 -1.8476210406e-01

  Distance table for dissimilar particles (A-B):
    source: ion0  target: e
    Using structure-of-arrays (SoA) data layout
    Distance computations use open boundary conditions in 3D.

  Distance table for similar particles (A-A):
    source/target: e
    Using structure-of-arrays (SoA) data layout
    Distance computations use open boundary conditions in 3D.


  ParticleSet 'ion0' contains 1 particles :  Se(1)

    Se  0.0000000000e+00  0.0000000000e+00  0.0000000000e+00


  Hamiltonian h0
  Kinetic         Kinetic energy
  ElecElec        CoulombAB source=e

  LocalECP        LocalECPotential: ion0
  NonLocalECP     NonLocalECPotential: ion0


=========================================================
  Start VMC
  File Root Se.log.s000 append = no 
=========================================================
  Adding 1 walkers to 0 existing sets
  Total number of walkers: 1.0240000000e+03
  Total weight: 1.0240000000e+03
  Resetting Properties of the walkers 1 x 13

<vmc function="put">
  qmc_counter=0  my_counter=0
  time step      = 1.5000000000e-01
  blocks         = 200
  steps          = 1
  substeps       = 5
  current        = 0
  target samples = 1.0240000000e+03
  walkers/mpi    = 1

  stepsbetweensamples = 200
<parameter name="blocks" condition="int">200</parameter>
<parameter name="blocks_between_recompute" condition="int">0</parameter>
<parameter name="check_properties" condition="int">100</parameter>
<parameter name="checkproperties" condition="int">100</parameter>
<parameter name="current" condition="int">0</parameter>
<parameter name="dmcwalkersperthread" condition="real">1.0000000000e+00</parameter>
<parameter name="maxcpusecs" condition="real">3.6000000000e+05</parameter>
<parameter name="record_configs" condition="int">0</parameter>
<parameter name="record_walkers" condition="int">200</parameter>
<parameter name="recordconfigs" condition="int">0</parameter>
<parameter name="recordwalkers" condition="int">200</parameter>
<parameter name="rewind" condition="int">0</parameter>
<parameter name="samples" condition="real">1.0240000000e+03</parameter>
<parameter name="samplesperthread" condition="real">1.0000000000e+00</parameter>
<parameter name="steps" condition="int">1</parameter>
<parameter name="stepsbetweensamples" condition="int">200</parameter>
<parameter name="store_configs" condition="int">0</parameter>
<parameter name="storeconfigs" condition="int">0</parameter>
<parameter name="sub_steps" condition="int">5</parameter>
<parameter name="substeps" condition="int">5</parameter>
<parameter name="tau" condition="au">1.5000000000e-01</parameter>
<parameter name="time_step" condition="au">1.5000000000e-01</parameter>
<parameter name="timestep" condition="au">1.5000000000e-01</parameter>
<parameter name="use_drift" condition="string">no</parameter>
<parameter name="usedrift" condition="string">no</parameter>
<parameter name="walkers" condition="int">1</parameter>
<parameter name="warmup_steps" condition="int">100</parameter>
<parameter name="warmupsteps" condition="int">100</parameter>
  DumpConfig==false Nothing (configurations, state) will be saved.
  Walker Samples are dumped every 200 steps.
</vmc>
  Set drift_modifier UNR parameter a = 1.0000000000e+00
  Initial partition of walkers 0 1 

  Using Particle by Particle moves
  Walker moves without drift
  Total Sample Size   =1024
  Walker distribution on root = 0 1 
  Using Locality Approximation
===== Memory Usage after the buffer registration =====
Available memory on node 0, free + buffers : 53092 MB
Memory footprint by rank 0 on node 0       : 576 MB
==================================================
  Anonymous Buffer size per walker : 2336 Bytes.
MEMORY increase 0 MB VMC::resetRun
====================================================
  SimpleFixedNodeBranch::finalize after a VMC block
    QMC counter        = 0
    time step          = 0.15
    reference energy   = -9.29349
    reference variance = 0.0546741
====================================================
  QMC Execution time = 2.1467e+00 secs
Loop execution max-interations = 20

=========================================================
  Start QMCFixedSampleLinearOptimize
  File Root Se.log.s001 append = no 
=========================================================
  Skip QMCDriver::putQMCInfo 
  Resetting Properties of the walkers 1 x 13

=========================================================
  Start VMC
  File Root Se.log.s001 append = no 
=========================================================
  Using the current 1 walkers.
  Total number of walkers: 1.0240e+03
  Total weight: 1.0240e+03
  Resetting Properties of the walkers 1 x 13

<vmc function="put">
  qmc_counter=0  my_counter=0
  time step      = 1.5000e-01
  blocks         = 500
  steps          = 1
  substeps       = 5
  current        = 0
  target samples = 5.1200e+05
  walkers/mpi    = 1

  stepsbetweensamples = 1
<parameter name="blocks" condition="int">500</parameter>
<parameter name="blocks_between_recompute" condition="int">0</parameter>
<parameter name="check_properties" condition="int">100</parameter>
<parameter name="checkproperties" condition="int">100</parameter>
<parameter name="current" condition="int">0</parameter>
<parameter name="dmcwalkersperthread" condition="real">5.0000e+02</parameter>
<parameter name="maxcpusecs" condition="real">3.6000e+05</parameter>
<parameter name="record_configs" condition="int">0</parameter>
<parameter name="record_walkers" condition="int">1</parameter>
<parameter name="recordconfigs" condition="int">0</parameter>
<parameter name="recordwalkers" condition="int">1</parameter>
<parameter name="rewind" condition="int">0</parameter>
<parameter name="samples" condition="real">5.1200e+05</parameter>
<parameter name="samplesperthread" condition="real">5.0000e+02</parameter>
<parameter name="steps" condition="int">1</parameter>
<parameter name="stepsbetweensamples" condition="int">1</parameter>
<parameter name="store_configs" condition="int">0</parameter>
<parameter name="storeconfigs" condition="int">0</parameter>
<parameter name="sub_steps" condition="int">5</parameter>
<parameter name="substeps" condition="int">5</parameter>
<parameter name="tau" condition="au">1.5000e-01</parameter>
<parameter name="time_step" condition="au">1.5000e-01</parameter>
<parameter name="timestep" condition="au">1.5000e-01</parameter>
<parameter name="use_drift" condition="string">no</parameter>
<parameter name="usedrift" condition="string">no</parameter>
<parameter name="walkers" condition="int">1</parameter>
<parameter name="warmup_steps" condition="int">0</parameter>
<parameter name="warmupsteps" condition="int">0</parameter>
  DumpConfig==false Nothing (configurations, state) will be saved.
  Walker Samples are dumped every 1 steps.
</vmc>
    Restarting, cummulative properties:
      energy     = -9.2935e+00
      variance   = 0.0000e+00
      r2accepted = 1.0000e-10
      r2proposed = 1.0000e-10
  Set drift_modifier UNR parameter a = 1.0000e+00
 Using QMCCostFunction::QMCCostFunction
  Set drift_modifier UNR parameter a = 1.0000e+00
  EstimatorManagerBase::add replace LocalEnergy estimator.
<optimization-report>
<vmc stage="main" blocks="500">
  Cannot make clones again. Use existing 1 clones
  Initial partition of walkers 0 1 

  Using Particle by Particle moves
  Walker moves without drift
  Total Sample Size   =512000
  Walker distribution on root = 0 1 
  Using Locality Approximation
===== Memory Usage after the buffer registration =====
Available memory on node 0, free + buffers : 53077 MB
Memory footprint by rank 0 on node 0       : 576 MB
==================================================
  Anonymous Buffer size per walker : 2336 Bytes.
MEMORY increase 0 MB VMC::resetRun
====================================================
  SimpleFixedNodeBranch::finalize after a VMC block
    QMC counter        = 1
    time step          = 0.15
    reference energy   = -9.2976
    reference variance = 0.0595173
====================================================
  Execution time = 3.9105e+00
</vmc>
<opt stage="setup">
  <log>
   Reading configurations from h5FileRoot Se.log.s001
  QMCCostFunction is created with 1 threads.
  Using Nonlocal PP in Opt: NonLocalECP
   Number of samples loaded to each thread : 500 
  VMC Eavg = -9.2833e+00
  VMC Evar = 3.0891e-01
  Total weights = 5.1200e+05
  Execution time = 1.3222e+00
  </log>
</opt>
<opt stage="main" walkers="512000">
  <log>

*****************************************
Building overlap and Hamiltonian matrices
*****************************************

Among totally 82 optimized parameters, largest LM parameter change : 4.0379e-02 at parameter 22

******************************************************************************
Init Cost =  -8.8037e+00    New Cost =  -8.8080e+00  Delta Cost =  -4.3517e-03
******************************************************************************

The new set of parameters is valid. Updating the trial wave function!

*****************************************************************************
Applying the update for shift_i =   1.0000e-02     and shift_s =   2.5000e-01
*****************************************************************************
  Execution time = 6.4929e+00
  </log>
  <optVariables href="Se.log.s001.opt.xml">
   uu_0                 4.591177e-01 1 1  ON 0
   uu_1                 2.600324e-01 1 1  ON 1
   uu_2                 1.271870e-01 1 1  ON 2
   uu_3                 3.155834e-02 1 1  ON 3
   uu_4                -3.410444e-02 1 1  ON 4
   uu_5                -8.386121e-02 1 1  ON 5
   uu_6                -1.169113e-01 1 1  ON 6
   uu_7                -1.388306e-01 1 1  ON 7
   uu_8                -1.431985e-01 1 1  ON 8
   uu_9                -1.248954e-01 1 1  ON 9
   ud_0                 7.977539e-01 1 1  ON 10
   ud_1                 4.434167e-01 1 1  ON 11
   ud_2                 2.223990e-01 1 1  ON 12
   ud_3                 7.850081e-02 1 1  ON 13
   ud_4                -7.742271e-03 1 1  ON 14
   ud_5                -7.081367e-02 1 1  ON 15
   ud_6                -1.170262e-01 1 1  ON 16
   ud_7                -1.517744e-01 1 1  ON 17
   ud_8                -1.675764e-01 1 1  ON 18
   ud_9                -1.531900e-01 1 1  ON 19
  eSe_0                -1.008996e+00 1 1  ON 20
  eSe_1                -8.094915e-01 1 1  ON 21
  eSe_2                -5.761370e-01 1 1  ON 22
  eSe_3                -1.986940e-01 1 1  ON 23
  eSe_4                 1.590449e-01 1 1  ON 24
  eSe_5                 3.568278e-01 1 1  ON 25
  eSe_6                 5.477766e-01 1 1  ON 26
  eSe_7                 6.543051e-01 1 1  ON 27
  eSe_8                 6.010308e-01 1 1  ON 28
  eSe_9                 2.538106e-01 1 1  ON 29
 uuSe_0                -3.719405e-05 1 1  ON 30
 uuSe_1                 2.444780e-05 1 1  ON 31
 uuSe_2                 5.365422e-05 1 1  ON 32
 uuSe_3                 3.026337e-05 1 1  ON 33
 uuSe_4                -6.955063e-06 1 1  ON 34
 uuSe_5                -2.848948e-07 1 1  ON 35
 uuSe_6                 1.116718e-04 1 1  ON 36
 uuSe_7                 6.011874e-06 1 1  ON 37
 uuSe_8                 1.918249e-05 1 1  ON 38
 uuSe_9                -5.690996e-05 1 1  ON 39
uuSe_10                 1.004235e-05 1 1  ON 40
uuSe_11                -2.439236e-05 1 1  ON 41
uuSe_12                -4.020586e-06 1 1  ON 42
uuSe_13                -2.801913e-05 1 1  ON 43
uuSe_14                -8.817117e-07 1 1  ON 44
uuSe_15                 4.836116e-07 1 1  ON 45
uuSe_16                 8.057787e-05 1 1  ON 46
uuSe_17                -4.529911e-05 1 1  ON 47
uuSe_18                 1.693658e-05 1 1  ON 48
uuSe_19                 1.419297e-06 1 1  ON 49
uuSe_20                -4.124408e-06 1 1  ON 50
uuSe_21                -6.954174e-07 1 1  ON 51
uuSe_22                -2.833613e-07 1 1  ON 52
uuSe_23                 2.327544e-06 1 1  ON 53
uuSe_24                -1.072343e-07 1 1  ON 54
uuSe_25                 6.251526e-08 1 1  ON 55
 udSe_0                -4.802879e-05 1 1  ON 56
 udSe_1                 4.510560e-05 1 1  ON 57
 udSe_2                 5.207110e-05 1 1  ON 58
 udSe_3                 6.545229e-05 1 1  ON 59
 udSe_4                 4.439881e-06 1 1  ON 60
 udSe_5                -5.866738e-06 1 1  ON 61
 udSe_6                 1.844390e-04 1 1  ON 62
 udSe_7                -1.681024e-05 1 1  ON 63
 udSe_8                -2.993548e-05 1 1  ON 64
 udSe_9                -1.021865e-04 1 1  ON 65
udSe_10                 3.091939e-05 1 1  ON 66
udSe_11                -4.949214e-07 1 1  ON 67
udSe_12                 1.354079e-05 1 1  ON 68
udSe_13                -7.110492e-05 1 1  ON 69
udSe_14                -1.862321e-05 1 1  ON 70
udSe_15                 4.268678e-07 1 1  ON 71
udSe_16                 1.610124e-04 1 1  ON 72
udSe_17                -1.046473e-04 1 1  ON 73
udSe_18                 7.405538e-06 1 1  ON 74
udSe_19                -4.740656e-06 1 1  ON 75
udSe_20                -5.921176e-07 1 1  ON 76
udSe_21                 5.040620e-06 1 1  ON 77
udSe_22                -3.401039e-07 1 1  ON 78
udSe_23                 2.094492e-07 1 1  ON 79
udSe_24                -1.037174e-06 1 1  ON 80
udSe_25                 1.548143e-07 1 1  ON 81
  </optVariables>
   Restore the number of walkers to 1, removing 0 walkers.
</opt>
</optimization-report>
  QMC Execution time = 6.506 secs
  Reusing QMCFixedSampleLinearOptimize
 Using QMCCostFunction::QMCCostFunction

=========================================================
  Start QMCFixedSampleLinearOptimize
  File Root Se.log.s002 append = no 
=========================================================
  Skip QMCDriver::putQMCInfo 
  Resetting Properties of the walkers 1 x 13

=========================================================
  Start VMC
  File Root Se.log.s002 append = no 
=========================================================
Using existing walkers 
  Resetting Properties of the walkers 1 x 13

<vmc function="put">
  qmc_counter=1  my_counter=1
  time step      = 1.5000e-01
  blocks         = 500
  steps          = 1
  substeps       = 5
  current        = 0
  target samples = 5.1200e+05
  walkers/mpi    = 1

  stepsbetweensamples = 1
<parameter name="blocks" condition="int">500</parameter>
<parameter name="blocks_between_recompute" condition="int">0</parameter>
<parameter name="check_properties" condition="int">100</parameter>
<parameter name="checkproperties" condition="int">100</parameter>
<parameter name="current" condition="int">0</parameter>
<parameter name="dmcwalkersperthread" condition="real">5.0000e+02</parameter>
<parameter name="maxcpusecs" condition="real">3.6000e+05</parameter>
<parameter name="record_configs" condition="int">0</parameter>
<parameter name="record_walkers" condition="int">1</parameter>
<parameter name="recordconfigs" condition="int">0</parameter>
<parameter name="recordwalkers" condition="int">1</parameter>
<parameter name="rewind" condition="int">0</parameter>
<parameter name="samples" condition="real">5.1200e+05</parameter>
<parameter name="samplesperthread" condition="real">5.0000e+02</parameter>
<parameter name="steps" condition="int">1</parameter>
<parameter name="stepsbetweensamples" condition="int">1</parameter>
<parameter name="store_configs" condition="int">0</parameter>
<parameter name="storeconfigs" condition="int">0</parameter>
<parameter name="sub_steps" condition="int">5</parameter>
<parameter name="substeps" condition="int">5</parameter>
<parameter name="tau" condition="au">1.5000e-01</parameter>
<parameter name="time_step" condition="au">1.5000e-01</parameter>
<parameter name="timestep" condition="au">1.5000e-01</parameter>
<parameter name="use_drift" condition="string">no</parameter>
<parameter name="usedrift" condition="string">no</parameter>
<parameter name="walkers" condition="int">1</parameter>
<parameter name="warmup_steps" condition="int">0</parameter>
<parameter name="warmupsteps" condition="int">0</parameter>
  DumpConfig==false Nothing (configurations, state) will be saved.
  Walker Samples are dumped every 1 steps.
</vmc>
  Set drift_modifier UNR parameter a = 1.0000e+00
  EstimatorManagerBase::add replace LocalEnergy estimator.
  Set drift_modifier UNR parameter a = 1.0000e+00
  EstimatorManagerBase::add replace LocalEnergy estimator.
<optimization-report>
<vmc stage="main" blocks="500">
  Cannot make clones again. Use existing 1 clones
  Initial partition of walkers 0 1 
  Using Particle by Particle moves
  Walker moves without drift
  Total Sample Size   =512000
  Walker distribution on root = 0 1 
  Using Locality Approximation
===== Memory Usage after the buffer registration =====
Available memory on node 0, free + buffers : 52365 MB
Memory footprint by rank 0 on node 0       : 592 MB
==================================================
====================================================
  SimpleFixedNodeBranch::finalize after a VMC block
    QMC counter        = 2
    time step          = 0.15
    reference energy   = -9.29257
    reference variance = 0.0267437
====================================================
  Execution time = 3.8922e+00
</vmc>
<opt stage="setup">
  <log>
   Reading configurations from h5FileRoot Se.log.s002
  QMCCostFunction is created with 1 threads.
  Using Nonlocal PP in Opt: NonLocalECP
   Number of samples loaded to each thread : 500 
  VMC Eavg = -9.2877e+00
  VMC Evar = 3.3319e-01
  Total weights = 5.1200e+05
  Execution time = 1.2874e+00
  </log>
</opt>
<opt stage="main" walkers="512000">
  <log>

*****************************************
Building overlap and Hamiltonian matrices
*****************************************

Among totally 82 optimized parameters, largest LM parameter change : 2.7590e-02 at parameter 22

******************************************************************************
Init Cost =  -8.8066e+00    New Cost =  -8.8069e+00  Delta Cost =  -2.3065e-04
******************************************************************************

The new set of parameters is valid. Updating the trial wave function!

*****************************************************************************
Applying the update for shift_i =   1.0000e-02     and shift_s =   6.2500e-02
*****************************************************************************
  Execution time = 6.3967e+00
  </log>
  <optVariables href="Se.log.s002.opt.xml">
   uu_0                 4.460591e-01 1 1  ON 0
   uu_1                 2.444309e-01 1 1  ON 1
   uu_2                 1.161559e-01 1 1  ON 2
   uu_3                 2.733243e-02 1 1  ON 3
   uu_4                -3.165913e-02 1 1  ON 4
   uu_5                -7.904189e-02 1 1  ON 5
   uu_6                -1.110793e-01 1 1  ON 6
   uu_7                -1.315396e-01 1 1  ON 7
   uu_8                -1.371856e-01 1 1  ON 8
   uu_9                -1.175427e-01 1 1  ON 9
   ud_0                 8.140355e-01 1 1  ON 10
   ud_1                 4.539303e-01 1 1  ON 11
   ud_2                 2.268770e-01 1 1  ON 12
   ud_3                 7.928806e-02 1 1  ON 13
   ud_4                -6.274940e-03 1 1  ON 14
   ud_5                -7.037115e-02 1 1  ON 15
   ud_6                -1.166645e-01 1 1  ON 16
   ud_7                -1.506135e-01 1 1  ON 17
   ud_8                -1.680803e-01 1 1  ON 18
   ud_9                -1.473913e-01 1 1  ON 19
  eSe_0                -1.010951e+00 1 1  ON 20
  eSe_1                -8.141823e-01 1 1  ON 21
  eSe_2                -6.037268e-01 1 1  ON 22
  eSe_3                -2.095774e-01 1 1  ON 23
  eSe_4                 1.833370e-01 1 1  ON 24
  eSe_5                 3.535893e-01 1 1  ON 25
  eSe_6                 5.464702e-01 1 1  ON 26
  eSe_7                 6.461262e-01 1 1  ON 27
  eSe_8                 6.108195e-01 1 1  ON 28
  eSe_9                 2.708448e-01 1 1  ON 29
 uuSe_0                -4.260176e-05 1 1  ON 30
 uuSe_1                 3.373852e-05 1 1  ON 31
 uuSe_2                 6.949524e-05 1 1  ON 32
 uuSe_3                 3.320981e-05 1 1  ON 33
 uuSe_4                -1.019513e-05 1 1  ON 34
 uuSe_5                 4.662215e-07 1 1  ON 35
 uuSe_6                 1.395910e-04 1 1  ON 36
 uuSe_7                 1.217795e-05 1 1  ON 37
 uuSe_8                 3.218975e-05 1 1  ON 38
 uuSe_9                -7.699121e-05 1 1  ON 39
uuSe_10                 1.067664e-05 1 1  ON 40
uuSe_11                -3.932424e-05 1 1  ON 41
uuSe_12                -7.030827e-06 1 1  ON 42
uuSe_13                -2.759391e-05 1 1  ON 43
uuSe_14                 1.400738e-06 1 1  ON 44
uuSe_15                 5.484810e-07 1 1  ON 45
uuSe_16                 1.069973e-04 1 1  ON 46
uuSe_17                -5.431934e-05 1 1  ON 47
uuSe_18                 2.868693e-05 1 1  ON 48
uuSe_19                 1.710266e-06 1 1  ON 49
uuSe_20                -8.913717e-06 1 1  ON 50
uuSe_21                -2.456724e-06 1 1  ON 51
uuSe_22                -1.649964e-07 1 1  ON 52
uuSe_23                 3.921850e-06 1 1  ON 53
uuSe_24                 1.296504e-07 1 1  ON 54
uuSe_25                 2.441092e-08 1 1  ON 55
 udSe_0                -5.890952e-05 1 1  ON 56
 udSe_1                 7.534618e-05 1 1  ON 57
 udSe_2                 7.072199e-05 1 1  ON 58
 udSe_3                 7.412661e-05 1 1  ON 59
 udSe_4                 2.364950e-06 1 1  ON 60
 udSe_5                -8.650414e-06 1 1  ON 61
 udSe_6                 2.610599e-04 1 1  ON 62
 udSe_7                -2.639291e-05 1 1  ON 63
 udSe_8                -3.127706e-05 1 1  ON 64
 udSe_9                -1.488987e-04 1 1  ON 65
udSe_10                 3.146863e-05 1 1  ON 66
udSe_11                -2.678294e-06 1 1  ON 67
udSe_12                 1.492382e-05 1 1  ON 68
udSe_13                -8.318146e-05 1 1  ON 69
udSe_14                -2.210671e-05 1 1  ON 70
udSe_15                 5.635853e-07 1 1  ON 71
udSe_16                 2.261626e-04 1 1  ON 72
udSe_17                -1.324077e-04 1 1  ON 73
udSe_18                 1.303557e-05 1 1  ON 74
udSe_19                -5.722204e-06 1 1  ON 75
udSe_20                -5.384473e-06 1 1  ON 76
udSe_21                 5.460683e-06 1 1  ON 77
udSe_22                -3.123746e-07 1 1  ON 78
udSe_23                 9.751326e-07 1 1  ON 79
udSe_24                -1.102886e-06 1 1  ON 80
udSe_25                 1.463701e-07 1 1  ON 81
  </optVariables>
   Restore the number of walkers to 1, removing 0 walkers.
</opt>
</optimization-report>
  QMC Execution time = 6.409 secs
  Reusing QMCFixedSampleLinearOptimize
 Using QMCCostFunction::QMCCostFunction

=========================================================
  Start QMCFixedSampleLinearOptimize
  File Root Se.log.s003 append = no 
=========================================================
  Skip QMCDriver::putQMCInfo 
  Resetting Properties of the walkers 1 x 13

=========================================================
  Start VMC
  File Root Se.log.s003 append = no 
=========================================================
Using existing walkers 
  Resetting Properties of the walkers 1 x 13

<vmc function="put">
  qmc_counter=2  my_counter=2
  time step      = 1.5000e-01
  blocks         = 500
  steps          = 1
  substeps       = 5
  current        = 0
  target samples = 5.1200e+05
  walkers/mpi    = 1

  stepsbetweensamples = 1
<parameter name="blocks" condition="int">500</parameter>
<parameter name="blocks_between_recompute" condition="int">0</parameter>
<parameter name="check_properties" condition="int">100</parameter>
<parameter name="checkproperties" condition="int">100</parameter>
<parameter name="current" condition="int">0</parameter>
<parameter name="dmcwalkersperthread" condition="real">5.0000e+02</parameter>
<parameter name="maxcpusecs" condition="real">3.6000e+05</parameter>
<parameter name="record_configs" condition="int">0</parameter>
<parameter name="record_walkers" condition="int">1</parameter>
<parameter name="recordconfigs" condition="int">0</parameter>
<parameter name="recordwalkers" condition="int">1</parameter>
<parameter name="rewind" condition="int">0</parameter>
<parameter name="samples" condition="real">5.1200e+05</parameter>
<parameter name="samplesperthread" condition="real">5.0000e+02</parameter>
<parameter name="steps" condition="int">1</parameter>
<parameter name="stepsbetweensamples" condition="int">1</parameter>
<parameter name="store_configs" condition="int">0</parameter>
<parameter name="storeconfigs" condition="int">0</parameter>
<parameter name="sub_steps" condition="int">5</parameter>
<parameter name="substeps" condition="int">5</parameter>
<parameter name="tau" condition="au">1.5000e-01</parameter>
<parameter name="time_step" condition="au">1.5000e-01</parameter>
<parameter name="timestep" condition="au">1.5000e-01</parameter>
<parameter name="use_drift" condition="string">no</parameter>
<parameter name="usedrift" condition="string">no</parameter>
<parameter name="walkers" condition="int">1</parameter>
<parameter name="warmup_steps" condition="int">0</parameter>
<parameter name="warmupsteps" condition="int">0</parameter>
  DumpConfig==false Nothing (configurations, state) will be saved.
  Walker Samples are dumped every 1 steps.
</vmc>
  Set drift_modifier UNR parameter a = 1.0000e+00
  EstimatorManagerBase::add replace LocalEnergy estimator.
  Set drift_modifier UNR parameter a = 1.0000e+00
  EstimatorManagerBase::add replace LocalEnergy estimator.
<optimization-report>
<vmc stage="main" blocks="500">
  Cannot make clones again. Use existing 1 clones
  Initial partition of walkers 0 1 
  Using Particle by Particle moves
  Walker moves without drift
  Total Sample Size   =512000
  Walker distribution on root = 0 1 
  Using Locality Approximation
===== Memory Usage after the buffer registration =====
Available memory on node 0, free + buffers : 52361 MB
Memory footprint by rank 0 on node 0       : 596 MB
==================================================
====================================================
  SimpleFixedNodeBranch::finalize after a VMC block
    QMC counter        = 3
    time step          = 0.15
    reference energy   = -9.29259
    reference variance = 0.0262466
====================================================
  Execution time = 3.8773e+00
</vmc>
<opt stage="setup">
  <log>
   Reading configurations from h5FileRoot Se.log.s003
  QMCCostFunction is created with 1 threads.
  Using Nonlocal PP in Opt: NonLocalECP
   Number of samples loaded to each thread : 500 
  VMC Eavg = -9.2876e+00
  VMC Evar = 2.6115e-01
  Total weights = 5.1200e+05
  Execution time = 1.2763e+00
  </log>
</opt>
<opt stage="main" walkers="512000">
  <log>

*****************************************
Building overlap and Hamiltonian matrices
*****************************************

Among totally 82 optimized parameters, largest LM parameter change : 1.7555e-02 at parameter 22

******************************************************************************
Init Cost =  -8.8102e+00    New Cost =  -8.8102e+00  Delta Cost =  -2.1387e-05
******************************************************************************

The new set of parameters is valid. Updating the trial wave function!

*****************************************************************************
Applying the update for shift_i =   1.0000e-02     and shift_s =   1.5625e-02
*****************************************************************************
  Execution time = 6.3604e+00
  </log>
  <optVariables href="Se.log.s003.opt.xml">
   uu_0                 4.329541e-01 1 1  ON 0
   uu_1                 2.354006e-01 1 1  ON 1
   uu_2                 1.127355e-01 1 1  ON 2
   uu_3                 2.875274e-02 1 1  ON 3
   uu_4                -2.841328e-02 1 1  ON 4
   uu_5                -7.480329e-02 1 1  ON 5
   uu_6                -1.081711e-01 1 1  ON 6
   uu_7                -1.262155e-01 1 1  ON 7
   uu_8                -1.303671e-01 1 1  ON 8
   uu_9                -1.080632e-01 1 1  ON 9
   ud_0                 8.212454e-01 1 1  ON 10
   ud_1                 4.585623e-01 1 1  ON 11
   ud_2                 2.304628e-01 1 1  ON 12
   ud_3                 8.293968e-02 1 1  ON 13
   ud_4                -4.636942e-04 1 1  ON 14
   ud_5                -6.366677e-02 1 1  ON 15
   ud_6                -1.122189e-01 1 1  ON 16
   ud_7                -1.501827e-01 1 1  ON 17
   ud_8                -1.683957e-01 1 1  ON 18
   ud_9                -1.509647e-01 1 1  ON 19
  eSe_0                -1.012707e+00 1 1  ON 20
  eSe_1                -8.207951e-01 1 1  ON 21
  eSe_2                -6.212815e-01 1 1  ON 22
  eSe_3                -2.223372e-01 1 1  ON 23
  eSe_4                 1.935395e-01 1 1  ON 24
  eSe_5                 3.503415e-01 1 1  ON 25
  eSe_6                 5.397657e-01 1 1  ON 26
  eSe_7                 6.469355e-01 1 1  ON 27
  eSe_8                 6.252424e-01 1 1  ON 28
  eSe_9                 2.874729e-01 1 1  ON 29
 uuSe_0                -3.749138e-05 1 1  ON 30
 uuSe_1                 2.445203e-05 1 1  ON 31
 uuSe_2                 6.464108e-05 1 1  ON 32
 uuSe_3                 3.869257e-05 1 1  ON 33
 uuSe_4                -8.556902e-06 1 1  ON 34
 uuSe_5                 1.982688e-06 1 1  ON 35
 uuSe_6                 1.214556e-04 1 1  ON 36
 uuSe_7                 2.722974e-05 1 1  ON 37
 uuSe_8                 3.097379e-05 1 1  ON 38
 uuSe_9                -7.429444e-05 1 1  ON 39
uuSe_10                 1.581853e-05 1 1  ON 40
uuSe_11                -4.962793e-05 1 1  ON 41
uuSe_12                -5.669859e-06 1 1  ON 42
uuSe_13                -3.203475e-05 1 1  ON 43
uuSe_14                 2.013555e-06 1 1  ON 44
uuSe_15                 3.432517e-07 1 1  ON 45
uuSe_16                 1.122611e-04 1 1  ON 46
uuSe_17                -6.243439e-05 1 1  ON 47
uuSe_18                 3.865224e-05 1 1  ON 48
uuSe_19                 2.682693e-08 1 1  ON 49
uuSe_20                -9.140816e-06 1 1  ON 50
uuSe_21                -3.979240e-06 1 1  ON 51
uuSe_22                 1.765574e-07 1 1  ON 52
uuSe_23                 4.277874e-06 1 1  ON 53
uuSe_24                 4.130711e-07 1 1  ON 54
uuSe_25                -5.097813e-08 1 1  ON 55
 udSe_0                -6.140459e-05 1 1  ON 56
 udSe_1                 4.662060e-05 1 1  ON 57
 udSe_2                 6.469754e-05 1 1  ON 58
 udSe_3                 9.405202e-05 1 1  ON 59
 udSe_4                 6.838367e-06 1 1  ON 60
 udSe_5                -6.226592e-06 1 1  ON 61
 udSe_6                 2.260505e-04 1 1  ON 62
 udSe_7                -3.112813e-06 1 1  ON 63
 udSe_8                -4.340776e-05 1 1  ON 64
 udSe_9                -1.290089e-04 1 1  ON 65
udSe_10                 4.555069e-05 1 1  ON 66
udSe_11                -1.121861e-05 1 1  ON 67
udSe_12                 1.977006e-05 1 1  ON 68
udSe_13                -1.072270e-04 1 1  ON 69
udSe_14                -2.519250e-05 1 1  ON 70
udSe_15                 4.272297e-07 1 1  ON 71
udSe_16                 2.193277e-04 1 1  ON 72
udSe_17                -1.565282e-04 1 1  ON 73
udSe_18                 2.250344e-05 1 1  ON 74
udSe_19                -8.237262e-06 1 1  ON 75
udSe_20                 3.991737e-06 1 1  ON 76
udSe_21                 4.982573e-06 1 1  ON 77
udSe_22                -1.070737e-07 1 1  ON 78
udSe_23                -1.420234e-06 1 1  ON 79
udSe_24                -9.661617e-07 1 1  ON 80
udSe_25                 1.215336e-07 1 1  ON 81
  </optVariables>
   Restore the number of walkers to 1, removing 0 walkers.
</opt>
</optimization-report>
  QMC Execution time = 6.373 secs
  Reusing QMCFixedSampleLinearOptimize
 Using QMCCostFunction::QMCCostFunction

=========================================================
  Start QMCFixedSampleLinearOptimize
  File Root Se.log.s004 append = no 
=========================================================
  Skip QMCDriver::putQMCInfo 
  Resetting Properties of the walkers 1 x 13

=========================================================
  Start VMC
  File Root Se.log.s004 append = no 
=========================================================
Using existing walkers 
  Resetting Properties of the walkers 1 x 13

<vmc function="put">
  qmc_counter=3  my_counter=3
  time step      = 1.5000e-01
  blocks         = 500
  steps          = 1
  substeps       = 5
  current        = 0
  target samples = 5.1200e+05
  walkers/mpi    = 1

  stepsbetweensamples = 1
<parameter name="blocks" condition="int">500</parameter>
<parameter name="blocks_between_recompute" condition="int">0</parameter>
<parameter name="check_properties" condition="int">100</parameter>
<parameter name="checkproperties" condition="int">100</parameter>
<parameter name="current" condition="int">0</parameter>
<parameter name="dmcwalkersperthread" condition="real">5.0000e+02</parameter>
<parameter name="maxcpusecs" condition="real">3.6000e+05</parameter>
<parameter name="record_configs" condition="int">0</parameter>
<parameter name="record_walkers" condition="int">1</parameter>
<parameter name="recordconfigs" condition="int">0</parameter>
<parameter name="recordwalkers" condition="int">1</parameter>
<parameter name="rewind" condition="int">0</parameter>
<parameter name="samples" condition="real">5.1200e+05</parameter>
<parameter name="samplesperthread" condition="real">5.0000e+02</parameter>
<parameter name="steps" condition="int">1</parameter>
<parameter name="stepsbetweensamples" condition="int">1</parameter>
<parameter name="store_configs" condition="int">0</parameter>
<parameter name="storeconfigs" condition="int">0</parameter>
<parameter name="sub_steps" condition="int">5</parameter>
<parameter name="substeps" condition="int">5</parameter>
<parameter name="tau" condition="au">1.5000e-01</parameter>
<parameter name="time_step" condition="au">1.5000e-01</parameter>
<parameter name="timestep" condition="au">1.5000e-01</parameter>
<parameter name="use_drift" condition="string">no</parameter>
<parameter name="usedrift" condition="string">no</parameter>
<parameter name="walkers" condition="int">1</parameter>
<parameter name="warmup_steps" condition="int">0</parameter>
<parameter name="warmupsteps" condition="int">0</parameter>
  DumpConfig==false Nothing (configurations, state) will be saved.
  Walker Samples are dumped every 1 steps.
</vmc>
  Set drift_modifier UNR parameter a = 1.0000e+00
  EstimatorManagerBase::add replace LocalEnergy estimator.
  Set drift_modifier UNR parameter a = 1.0000e+00
  EstimatorManagerBase::add replace LocalEnergy estimator.
<optimization-report>
<vmc stage="main" blocks="500">
  Cannot make clones again. Use existing 1 clones
  Initial partition of walkers 0 1 
  Using Particle by Particle moves
  Walker moves without drift
  Total Sample Size   =512000
  Walker distribution on root = 0 1 
  Using Locality Approximation
===== Memory Usage after the buffer registration =====
Available memory on node 0, free + buffers : 52357 MB
Memory footprint by rank 0 on node 0       : 599 MB
==================================================
====================================================
  SimpleFixedNodeBranch::finalize after a VMC block
    QMC counter        = 4
    time step          = 0.15
    reference energy   = -9.28943
    reference variance = 0.0410679
====================================================
  Execution time = 3.8683e+00
</vmc>
<opt stage="setup">
  <log>
   Reading configurations from h5FileRoot Se.log.s004
  QMCCostFunction is created with 1 threads.
  Using Nonlocal PP in Opt: NonLocalECP
   Number of samples loaded to each thread : 500 
  VMC Eavg = -9.2887e+00
  VMC Evar = 3.8415e-01
  Total weights = 5.1200e+05
  Execution time = 1.2703e+00
  </log>
</opt>
<opt stage="main" walkers="512000">
  <log>

*****************************************
Building overlap and Hamiltonian matrices
*****************************************

Among totally 82 optimized parameters, largest LM parameter change : 1.4908e-02 at parameter 29

******************************************************************************
Init Cost =  -8.8051e+00    New Cost =  -8.8054e+00  Delta Cost =  -2.7906e-04
******************************************************************************

The new set of parameters is valid. Updating the trial wave function!

*****************************************************************************
Applying the update for shift_i =   1.0000e-02     and shift_s =   3.9062e-03
*****************************************************************************
  Execution time = 6.3513e+00
  </log>
  <optVariables href="Se.log.s004.opt.xml">
   uu_0                 4.201810e-01 1 1  ON 0
   uu_1                 2.284181e-01 1 1  ON 1
   uu_2                 1.093726e-01 1 1  ON 2
   uu_3                 2.949540e-02 1 1  ON 3
   uu_4                -2.293281e-02 1 1  ON 4
   uu_5                -6.796157e-02 1 1  ON 5
   uu_6                -1.020682e-01 1 1  ON 6
   uu_7                -1.228950e-01 1 1  ON 7
   uu_8                -1.290729e-01 1 1  ON 8
   uu_9                -1.076512e-01 1 1  ON 9
   ud_0                 8.248142e-01 1 1  ON 10
   ud_1                 4.617387e-01 1 1  ON 11
   ud_2                 2.315713e-01 1 1  ON 12
   ud_3                 8.233695e-02 1 1  ON 13
   ud_4                -2.329166e-04 1 1  ON 14
   ud_5                -5.931026e-02 1 1  ON 15
   ud_6                -1.042407e-01 1 1  ON 16
   ud_7                -1.384068e-01 1 1  ON 17
   ud_8                -1.605767e-01 1 1  ON 18
   ud_9                -1.524039e-01 1 1  ON 19
  eSe_0                -1.010731e+00 1 1  ON 20
  eSe_1                -8.341256e-01 1 1  ON 21
  eSe_2                -6.360885e-01 1 1  ON 22
  eSe_3                -2.268426e-01 1 1  ON 23
  eSe_4                 1.979148e-01 1 1  ON 24
  eSe_5                 3.508384e-01 1 1  ON 25
  eSe_6                 5.378031e-01 1 1  ON 26
  eSe_7                 6.493240e-01 1 1  ON 27
  eSe_8                 6.278858e-01 1 1  ON 28
  eSe_9                 3.023806e-01 1 1  ON 29
 uuSe_0                -4.820359e-05 1 1  ON 30
 uuSe_1                 5.045494e-05 1 1  ON 31
 uuSe_2                 7.892678e-05 1 1  ON 32
 uuSe_3                 2.684532e-05 1 1  ON 33
 uuSe_4                -1.465960e-05 1 1  ON 34
 uuSe_5                 7.506216e-08 1 1  ON 35
 uuSe_6                 1.665288e-04 1 1  ON 36
 uuSe_7                 1.440466e-05 1 1  ON 37
 uuSe_8                 4.300449e-05 1 1  ON 38
 uuSe_9                -8.914223e-05 1 1  ON 39
uuSe_10                 2.708964e-06 1 1  ON 40
uuSe_11                -4.278761e-05 1 1  ON 41
uuSe_12                -1.075497e-05 1 1  ON 42
uuSe_13                -2.315613e-05 1 1  ON 43
uuSe_14                 4.039533e-06 1 1  ON 44
uuSe_15                 6.137530e-07 1 1  ON 45
uuSe_16                 1.176494e-04 1 1  ON 46
uuSe_17                -4.977820e-05 1 1  ON 47
uuSe_18                 2.873683e-05 1 1  ON 48
uuSe_19                 3.201347e-06 1 1  ON 49
uuSe_20                -1.075496e-05 1 1  ON 50
uuSe_21                -2.892161e-06 1 1  ON 51
uuSe_22                -2.252681e-07 1 1  ON 52
uuSe_23                 4.366983e-06 1 1  ON 53
uuSe_24                 1.496694e-07 1 1  ON 54
uuSe_25                 2.206550e-08 1 1  ON 55
 udSe_0                -6.512589e-05 1 1  ON 56
 udSe_1                 5.002065e-05 1 1  ON 57
 udSe_2                 7.462818e-05 1 1  ON 58
 udSe_3                 9.620266e-05 1 1  ON 59
 udSe_4                 5.283717e-06 1 1  ON 60
 udSe_5                -6.660229e-06 1 1  ON 61
 udSe_6                 2.349906e-04 1 1  ON 62
 udSe_7                 6.337641e-06 1 1  ON 63
 udSe_8                -3.408861e-05 1 1  ON 64
 udSe_9                -1.345540e-04 1 1  ON 65
udSe_10                 4.805610e-05 1 1  ON 66
udSe_11                -2.488328e-05 1 1  ON 67
udSe_12                 1.782100e-05 1 1  ON 68
udSe_13                -1.099335e-04 1 1  ON 69
udSe_14                -2.318152e-05 1 1  ON 70
udSe_15                 4.192108e-07 1 1  ON 71
udSe_16                 2.303932e-04 1 1  ON 72
udSe_17                -1.643610e-04 1 1  ON 73
udSe_18                 3.296106e-05 1 1  ON 74
udSe_19                -8.279599e-06 1 1  ON 75
udSe_20                 2.618462e-06 1 1  ON 76
udSe_21                 3.436097e-06 1 1  ON 77
udSe_22                 2.250254e-08 1 1  ON 78
udSe_23                -9.376312e-07 1 1  ON 79
udSe_24                -7.404481e-07 1 1  ON 80
udSe_25                 8.599093e-08 1 1  ON 81
  </optVariables>
   Restore the number of walkers to 1, removing 0 walkers.
</opt>
</optimization-report>
  QMC Execution time = 6.364 secs
  Reusing QMCFixedSampleLinearOptimize
 Using QMCCostFunction::QMCCostFunction

=========================================================
  Start QMCFixedSampleLinearOptimize
  File Root Se.log.s005 append = no 
=========================================================
  Skip QMCDriver::putQMCInfo 
  Resetting Properties of the walkers 1 x 13

=========================================================
  Start VMC
  File Root Se.log.s005 append = no 
=========================================================
Using existing walkers 
  Resetting Properties of the walkers 1 x 13

<vmc function="put">
  qmc_counter=4  my_counter=4
  time step      = 1.5000e-01
  blocks         = 500
  steps          = 1
  substeps       = 5
  current        = 0
  target samples = 5.1200e+05
  walkers/mpi    = 1

  stepsbetweensamples = 1
<parameter name="blocks" condition="int">500</parameter>
<parameter name="blocks_between_recompute" condition="int">0</parameter>
<parameter name="check_properties" condition="int">100</parameter>
<parameter name="checkproperties" condition="int">100</parameter>
<parameter name="current" condition="int">0</parameter>
<parameter name="dmcwalkersperthread" condition="real">5.0000e+02</parameter>
<parameter name="maxcpusecs" condition="real">3.6000e+05</parameter>
<parameter name="record_configs" condition="int">0</parameter>
<parameter name="record_walkers" condition="int">1</parameter>
<parameter name="recordconfigs" condition="int">0</parameter>
<parameter name="recordwalkers" condition="int">1</parameter>
<parameter name="rewind" condition="int">0</parameter>
<parameter name="samples" condition="real">5.1200e+05</parameter>
<parameter name="samplesperthread" condition="real">5.0000e+02</parameter>
<parameter name="steps" condition="int">1</parameter>
<parameter name="stepsbetweensamples" condition="int">1</parameter>
<parameter name="store_configs" condition="int">0</parameter>
<parameter name="storeconfigs" condition="int">0</parameter>
<parameter name="sub_steps" condition="int">5</parameter>
<parameter name="substeps" condition="int">5</parameter>
<parameter name="tau" condition="au">1.5000e-01</parameter>
<parameter name="time_step" condition="au">1.5000e-01</parameter>
<parameter name="timestep" condition="au">1.5000e-01</parameter>
<parameter name="use_drift" condition="string">no</parameter>
<parameter name="usedrift" condition="string">no</parameter>
<parameter name="walkers" condition="int">1</parameter>
<parameter name="warmup_steps" condition="int">0</parameter>
<parameter name="warmupsteps" condition="int">0</parameter>
  DumpConfig==false Nothing (configurations, state) will be saved.
  Walker Samples are dumped every 1 steps.
</vmc>
  Set drift_modifier UNR parameter a = 1.0000e+00
  EstimatorManagerBase::add replace LocalEnergy estimator.
  Set drift_modifier UNR parameter a = 1.0000e+00
  EstimatorManagerBase::add replace LocalEnergy estimator.
<optimization-report>
<vmc stage="main" blocks="500">
  Cannot make clones again. Use existing 1 clones
  Initial partition of walkers 0 1 
  Using Particle by Particle moves
  Walker moves without drift
  Total Sample Size   =512000
  Walker distribution on root = 0 1 
  Using Locality Approximation
===== Memory Usage after the buffer registration =====
Available memory on node 0, free + buffers : 52354 MB
Memory footprint by rank 0 on node 0       : 602 MB
==================================================
====================================================
  SimpleFixedNodeBranch::finalize after a VMC block
    QMC counter        = 5
    time step          = 0.15
    reference energy   = -9.29301
    reference variance = 0.040693
====================================================
  Execution time = 3.8832e+00
</vmc>
<opt stage="setup">
  <log>
   Reading configurations from h5FileRoot Se.log.s005
  QMCCostFunction is created with 1 threads.
  Using Nonlocal PP in Opt: NonLocalECP
   Number of samples loaded to each thread : 500 
  VMC Eavg = -9.2890e+00
  VMC Evar = 2.7316e-01
  Total weights = 5.1200e+05
  Execution time = 1.2701e+00
  </log>
</opt>
<opt stage="main" walkers="512000">
  <log>

*****************************************
Building overlap and Hamiltonian matrices
*****************************************

Among totally 82 optimized parameters, largest LM parameter change : 1.1420e-02 at parameter 7

******************************************************************************
Init Cost =  -8.8109e+00    New Cost =  -8.8107e+00  Delta Cost =   1.5623e-04
******************************************************************************

The new set of parameters is valid. Updating the trial wave function!

*****************************************************************************
Applying the update for shift_i =   1.0000e-02     and shift_s =   3.9062e-03
*****************************************************************************
  Execution time = 6.3775e+00
  </log>
  <optVariables href="Se.log.s005.opt.xml">
   uu_0                 4.105968e-01 1 1  ON 0
   uu_1                 2.225582e-01 1 1  ON 1
   uu_2                 1.073597e-01 1 1  ON 2
   uu_3                 3.134388e-02 1 1  ON 3
   uu_4                -1.923154e-02 1 1  ON 4
   uu_5                -6.213451e-02 1 1  ON 5
   uu_6                -9.314427e-02 1 1  ON 6
   uu_7                -1.114749e-01 1 1  ON 7
   uu_8                -1.202334e-01 1 1  ON 8
   uu_9                -1.050236e-01 1 1  ON 9
   ud_0                 8.326288e-01 1 1  ON 10
   ud_1                 4.686051e-01 1 1  ON 11
   ud_2                 2.383703e-01 1 1  ON 12
   ud_3                 8.768954e-02 1 1  ON 13
   ud_4                 4.315333e-03 1 1  ON 14
   ud_5                -5.560596e-02 1 1  ON 15
   ud_6                -1.002538e-01 1 1  ON 16
   ud_7                -1.374854e-01 1 1  ON 17
   ud_8                -1.569224e-01 1 1  ON 18
   ud_9                -1.470644e-01 1 1  ON 19
  eSe_0                -1.021475e+00 1 1  ON 20
  eSe_1                -8.431916e-01 1 1  ON 21
  eSe_2                -6.433961e-01 1 1  ON 22
  eSe_3                -2.283615e-01 1 1  ON 23
  eSe_4                 2.055238e-01 1 1  ON 24
  eSe_5                 3.597140e-01 1 1  ON 25
  eSe_6                 5.380429e-01 1 1  ON 26
  eSe_7                 6.512648e-01 1 1  ON 27
  eSe_8                 6.276869e-01 1 1  ON 28
  eSe_9                 3.099652e-01 1 1  ON 29
 uuSe_0                -3.953601e-05 1 1  ON 30
 uuSe_1                 5.597698e-05 1 1  ON 31
 uuSe_2                 6.913597e-05 1 1  ON 32
 uuSe_3                 2.081451e-05 1 1  ON 33
 uuSe_4                -1.413661e-05 1 1  ON 34
 uuSe_5                 4.401195e-07 1 1  ON 35
 uuSe_6                 1.652164e-04 1 1  ON 36
 uuSe_7                 4.541137e-06 1 1  ON 37
 uuSe_8                 3.781325e-05 1 1  ON 38
 uuSe_9                -9.503812e-05 1 1  ON 39
uuSe_10                -2.222814e-06 1 1  ON 40
uuSe_11                -3.193099e-05 1 1  ON 41
uuSe_12                -1.037211e-05 1 1  ON 42
uuSe_13                -1.357256e-05 1 1  ON 43
uuSe_14                 3.888862e-06 1 1  ON 44
uuSe_15                 5.834940e-07 1 1  ON 45
uuSe_16                 1.202395e-04 1 1  ON 46
uuSe_17                -3.791690e-05 1 1  ON 47
uuSe_18                 1.955561e-05 1 1  ON 48
uuSe_19                 3.891793e-06 1 1  ON 49
uuSe_20                -1.507882e-05 1 1  ON 50
uuSe_21                -1.844147e-06 1 1  ON 51
uuSe_22                -3.515068e-07 1 1  ON 52
uuSe_23                 5.750698e-06 1 1  ON 53
uuSe_24                -6.137917e-08 1 1  ON 54
uuSe_25                 5.123735e-08 1 1  ON 55
 udSe_0                -6.639634e-05 1 1  ON 56
 udSe_1                 5.382811e-05 1 1  ON 57
 udSe_2                 7.845237e-05 1 1  ON 58
 udSe_3                 9.636814e-05 1 1  ON 59
 udSe_4                 5.559688e-06 1 1  ON 60
 udSe_5                -6.888839e-06 1 1  ON 61
 udSe_6                 2.458609e-04 1 1  ON 62
 udSe_7                 7.573191e-08 1 1  ON 63
 udSe_8                -3.170410e-05 1 1  ON 64
 udSe_9                -1.403377e-04 1 1  ON 65
udSe_10                 4.914835e-05 1 1  ON 66
udSe_11                -2.693154e-05 1 1  ON 67
udSe_12                 1.777583e-05 1 1  ON 68
udSe_13                -1.082968e-04 1 1  ON 69
udSe_14                -2.329257e-05 1 1  ON 70
udSe_15                 4.224476e-07 1 1  ON 71
udSe_16                 2.367819e-04 1 1  ON 72
udSe_17                -1.664873e-04 1 1  ON 73
udSe_18                 3.644989e-05 1 1  ON 74
udSe_19                -8.880949e-06 1 1  ON 75
udSe_20                 7.347535e-07 1 1  ON 76
udSe_21                 2.922253e-06 1 1  ON 77
udSe_22                 1.563424e-07 1 1  ON 78
udSe_23                -3.875257e-07 1 1  ON 79
udSe_24                -6.368151e-07 1 1  ON 80
udSe_25                 5.289893e-08 1 1  ON 81
  </optVariables>
   Restore the number of walkers to 1, removing 0 walkers.
</opt>
</optimization-report>
  QMC Execution time = 6.39 secs
  Reusing QMCFixedSampleLinearOptimize
 Using QMCCostFunction::QMCCostFunction

=========================================================
  Start QMCFixedSampleLinearOptimize
  File Root Se.log.s006 append = no 
=========================================================
  Skip QMCDriver::putQMCInfo 
  Resetting Properties of the walkers 1 x 13

=========================================================
  Start VMC
  File Root Se.log.s006 append = no 
=========================================================
Using existing walkers 
  Resetting Properties of the walkers 1 x 13

<vmc function="put">
  qmc_counter=5  my_counter=5
  time step      = 1.5000e-01
  blocks         = 500
  steps          = 1
  substeps       = 5
  current        = 0
  target samples = 5.1200e+05
  walkers/mpi    = 1

  stepsbetweensamples = 1
<parameter name="blocks" condition="int">500</parameter>
<parameter name="blocks_between_recompute" condition="int">0</parameter>
<parameter name="check_properties" condition="int">100</parameter>
<parameter name="checkproperties" condition="int">100</parameter>
<parameter name="current" condition="int">0</parameter>
<parameter name="dmcwalkersperthread" condition="real">5.0000e+02</parameter>
<parameter name="maxcpusecs" condition="real">3.6000e+05</parameter>
<parameter name="record_configs" condition="int">0</parameter>
<parameter name="record_walkers" condition="int">1</parameter>
<parameter name="recordconfigs" condition="int">0</parameter>
<parameter name="recordwalkers" condition="int">1</parameter>
<parameter name="rewind" condition="int">0</parameter>
<parameter name="samples" condition="real">5.1200e+05</parameter>
<parameter name="samplesperthread" condition="real">5.0000e+02</parameter>
<parameter name="steps" condition="int">1</parameter>
<parameter name="stepsbetweensamples" condition="int">1</parameter>
<parameter name="store_configs" condition="int">0</parameter>
<parameter name="storeconfigs" condition="int">0</parameter>
<parameter name="sub_steps" condition="int">5</parameter>
<parameter name="substeps" condition="int">5</parameter>
<parameter name="tau" condition="au">1.5000e-01</parameter>
<parameter name="time_step" condition="au">1.5000e-01</parameter>
<parameter name="timestep" condition="au">1.5000e-01</parameter>
<parameter name="use_drift" condition="string">no</parameter>
<parameter name="usedrift" condition="string">no</parameter>
<parameter name="walkers" condition="int">1</parameter>
<parameter name="warmup_steps" condition="int">0</parameter>
<parameter name="warmupsteps" condition="int">0</parameter>
  DumpConfig==false Nothing (configurations, state) will be saved.
  Walker Samples are dumped every 1 steps.
</vmc>
  Set drift_modifier UNR parameter a = 1.0000e+00
  EstimatorManagerBase::add replace LocalEnergy estimator.
  Set drift_modifier UNR parameter a = 1.0000e+00
  EstimatorManagerBase::add replace LocalEnergy estimator.
<optimization-report>
<vmc stage="main" blocks="500">
  Cannot make clones again. Use existing 1 clones
  Initial partition of walkers 0 1 
  Using Particle by Particle moves
  Walker moves without drift
  Total Sample Size   =512000
  Walker distribution on root = 0 1 
  Using Locality Approximation
===== Memory Usage after the buffer registration =====
Available memory on node 0, free + buffers : 52350 MB
Memory footprint by rank 0 on node 0       : 605 MB
==================================================
====================================================
  SimpleFixedNodeBranch::finalize after a VMC block
    QMC counter        = 6
    time step          = 0.15
    reference energy   = -9.29302
    reference variance = 0.0449123
====================================================
  Execution time = 3.8785e+00
</vmc>
<opt stage="setup">
  <log>
   Reading configurations from h5FileRoot Se.log.s006
  QMCCostFunction is created with 1 threads.
  Using Nonlocal PP in Opt: NonLocalECP
   Number of samples loaded to each thread : 500 
  VMC Eavg = -9.2872e+00
  VMC Evar = 3.9178e-01
  Total weights = 5.1200e+05
  Execution time = 1.2706e+00
  </log>
</opt>
<opt stage="main" walkers="512000">
  <log>

*****************************************
Building overlap and Hamiltonian matrices
*****************************************

Among totally 82 optimized parameters, largest LM parameter change : 1.6560e-02 at parameter 29

******************************************************************************
Init Cost =  -8.8032e+00    New Cost =  -8.8040e+00  Delta Cost =  -7.7217e-04
******************************************************************************

The new set of parameters is valid. Updating the trial wave function!

*****************************************************************************
Applying the update for shift_i =   1.0000e-02     and shift_s =   3.9062e-03
*****************************************************************************
  Execution time = 6.3745e+00
  </log>
  <optVariables href="Se.log.s006.opt.xml">
   uu_0                 4.052265e-01 1 1  ON 0
   uu_1                 2.195741e-01 1 1  ON 1
   uu_2                 1.079519e-01 1 1  ON 2
   uu_3                 3.447682e-02 1 1  ON 3
   uu_4                -1.563447e-02 1 1  ON 4
   uu_5                -5.697229e-02 1 1  ON 5
   uu_6                -8.852620e-02 1 1  ON 6
   uu_7                -1.115567e-01 1 1  ON 7
   uu_8                -1.208532e-01 1 1  ON 8
   uu_9                -1.060794e-01 1 1  ON 9
   ud_0                 8.390681e-01 1 1  ON 10
   ud_1                 4.727903e-01 1 1  ON 11
   ud_2                 2.401113e-01 1 1  ON 12
   ud_3                 8.818018e-02 1 1  ON 13
   ud_4                 2.742395e-03 1 1  ON 14
   ud_5                -5.742617e-02 1 1  ON 15
   ud_6                -1.002976e-01 1 1  ON 16
   ud_7                -1.360306e-01 1 1  ON 17
   ud_8                -1.517424e-01 1 1  ON 18
   ud_9                -1.457334e-01 1 1  ON 19
  eSe_0                -1.022061e+00 1 1  ON 20
  eSe_1                -8.496876e-01 1 1  ON 21
  eSe_2                -6.512438e-01 1 1  ON 22
  eSe_3                -2.360252e-01 1 1  ON 23
  eSe_4                 2.011656e-01 1 1  ON 24
  eSe_5                 3.516915e-01 1 1  ON 25
  eSe_6                 5.354592e-01 1 1  ON 26
  eSe_7                 6.553532e-01 1 1  ON 27
  eSe_8                 6.357180e-01 1 1  ON 28
  eSe_9                 3.265256e-01 1 1  ON 29
 uuSe_0                -3.956448e-05 1 1  ON 30
 uuSe_1                 4.059247e-05 1 1  ON 31
 uuSe_2                 6.440154e-05 1 1  ON 32
 uuSe_3                 2.666751e-05 1 1  ON 33
 uuSe_4                -1.207547e-05 1 1  ON 34
 uuSe_5                 1.306530e-06 1 1  ON 35
 uuSe_6                 1.389333e-04 1 1  ON 36
 uuSe_7                 1.215982e-05 1 1  ON 37
 uuSe_8                 3.543180e-05 1 1  ON 38
 uuSe_9                -7.623913e-05 1 1  ON 39
uuSe_10                 3.593486e-06 1 1  ON 40
uuSe_11                -3.654508e-05 1 1  ON 41
uuSe_12                -9.461989e-06 1 1  ON 42
uuSe_13                -2.076181e-05 1 1  ON 43
uuSe_14                 3.971337e-06 1 1  ON 44
uuSe_15                 5.099124e-07 1 1  ON 45
uuSe_16                 1.027543e-04 1 1  ON 46
uuSe_17                -4.274859e-05 1 1  ON 47
uuSe_18                 2.544361e-05 1 1  ON 48
uuSe_19                 3.065148e-06 1 1  ON 49
uuSe_20                -9.974326e-06 1 1  ON 50
uuSe_21                -2.967814e-06 1 1  ON 51
uuSe_22                -1.822160e-07 1 1  ON 52
uuSe_23                 4.408294e-06 1 1  ON 53
uuSe_24                 2.359579e-07 1 1  ON 54
uuSe_25                 6.461037e-09 1 1  ON 55
 udSe_0                -6.008659e-05 1 1  ON 56
 udSe_1                 5.420260e-05 1 1  ON 57
 udSe_2                 6.253133e-05 1 1  ON 58
 udSe_3                 9.330057e-05 1 1  ON 59
 udSe_4                 7.827422e-06 1 1  ON 60
 udSe_5                -7.458777e-06 1 1  ON 61
 udSe_6                 2.336248e-04 1 1  ON 62
 udSe_7                -1.096849e-05 1 1  ON 63
 udSe_8                -4.931434e-05 1 1  ON 64
 udSe_9                -1.329041e-04 1 1  ON 65
udSe_10                 4.571503e-05 1 1  ON 66
udSe_11                -5.345001e-06 1 1  ON 67
udSe_12                 2.110761e-05 1 1  ON 68
udSe_13                -1.088546e-04 1 1  ON 69
udSe_14                -2.688615e-05 1 1  ON 70
udSe_15                 4.657556e-07 1 1  ON 71
udSe_16                 2.245152e-04 1 1  ON 72
udSe_17                -1.599247e-04 1 1  ON 73
udSe_18                 1.994994e-05 1 1  ON 74
udSe_19                -8.265472e-06 1 1  ON 75
udSe_20                 3.904295e-06 1 1  ON 76
udSe_21                 5.550523e-06 1 1  ON 77
udSe_22                -1.960383e-07 1 1  ON 78
udSe_23                -1.473996e-06 1 1  ON 79
udSe_24                -1.033881e-06 1 1  ON 80
udSe_25                 1.425593e-07 1 1  ON 81
  </optVariables>
   Restore the number of walkers to 1, removing 0 walkers.
</opt>
</optimization-report>
  QMC Execution time = 6.387 secs
  Reusing QMCFixedSampleLinearOptimize
 Using QMCCostFunction::QMCCostFunction

=========================================================
  Start QMCFixedSampleLinearOptimize
  File Root Se.log.s007 append = no 
=========================================================
  Skip QMCDriver::putQMCInfo 
  Resetting Properties of the walkers 1 x 13

=========================================================
  Start VMC
  File Root Se.log.s007 append = no 
=========================================================
Using existing walkers 
  Resetting Properties of the walkers 1 x 13

<vmc function="put">
  qmc_counter=6  my_counter=6
  time step      = 1.5000e-01
  blocks         = 500
  steps          = 1
  substeps       = 5
  current        = 0
  target samples = 5.1200e+05
  walkers/mpi    = 1

  stepsbetweensamples = 1
<parameter name="blocks" condition="int">500</parameter>
<parameter name="blocks_between_recompute" condition="int">0</parameter>
<parameter name="check_properties" condition="int">100</parameter>
<parameter name="checkproperties" condition="int">100</parameter>
<parameter name="current" condition="int">0</parameter>
<parameter name="dmcwalkersperthread" condition="real">5.0000e+02</parameter>
<parameter name="maxcpusecs" condition="real">3.6000e+05</parameter>
<parameter name="record_configs" condition="int">0</parameter>
<parameter name="record_walkers" condition="int">1</parameter>
<parameter name="recordconfigs" condition="int">0</parameter>
<parameter name="recordwalkers" condition="int">1</parameter>
<parameter name="rewind" condition="int">0</parameter>
<parameter name="samples" condition="real">5.1200e+05</parameter>
<parameter name="samplesperthread" condition="real">5.0000e+02</parameter>
<parameter name="steps" condition="int">1</parameter>
<parameter name="stepsbetweensamples" condition="int">1</parameter>
<parameter name="store_configs" condition="int">0</parameter>
<parameter name="storeconfigs" condition="int">0</parameter>
<parameter name="sub_steps" condition="int">5</parameter>
<parameter name="substeps" condition="int">5</parameter>
<parameter name="tau" condition="au">1.5000e-01</parameter>
<parameter name="time_step" condition="au">1.5000e-01</parameter>
<parameter name="timestep" condition="au">1.5000e-01</parameter>
<parameter name="use_drift" condition="string">no</parameter>
<parameter name="usedrift" condition="string">no</parameter>
<parameter name="walkers" condition="int">1</parameter>
<parameter name="warmup_steps" condition="int">0</parameter>
<parameter name="warmupsteps" condition="int">0</parameter>
  DumpConfig==false Nothing (configurations, state) will be saved.
  Walker Samples are dumped every 1 steps.
</vmc>
  Set drift_modifier UNR parameter a = 1.0000e+00
  EstimatorManagerBase::add replace LocalEnergy estimator.
  Set drift_modifier UNR parameter a = 1.0000e+00
  EstimatorManagerBase::add replace LocalEnergy estimator.
<optimization-report>
<vmc stage="main" blocks="500">
  Cannot make clones again. Use existing 1 clones
  Initial partition of walkers 0 1 
  Using Particle by Particle moves
  Walker moves without drift
  Total Sample Size   =512000
  Walker distribution on root = 0 1 
  Using Locality Approximation
===== Memory Usage after the buffer registration =====
Available memory on node 0, free + buffers : 52347 MB
Memory footprint by rank 0 on node 0       : 608 MB
==================================================
====================================================
  SimpleFixedNodeBranch::finalize after a VMC block
    QMC counter        = 7
    time step          = 0.15
    reference energy   = -9.29537
    reference variance = 0.0350959
====================================================
  Execution time = 3.8893e+00
</vmc>
<opt stage="setup">
  <log>
   Reading configurations from h5FileRoot Se.log.s007
  QMCCostFunction is created with 1 threads.
  Using Nonlocal PP in Opt: NonLocalECP
   Number of samples loaded to each thread : 500 
  VMC Eavg = -9.2899e+00
  VMC Evar = 3.0240e-01
  Total weights = 5.1200e+05
  Execution time = 1.2802e+00
  </log>
</opt>
<opt stage="main" walkers="512000">
  <log>

*****************************************
Building overlap and Hamiltonian matrices
*****************************************

Among totally 82 optimized parameters, largest LM parameter change : 1.3473e-02 at parameter 20

******************************************************************************
Init Cost =  -8.8103e+00    New Cost =  -8.8097e+00  Delta Cost =   6.0170e-04
******************************************************************************

The new set of parameters is valid. Updating the trial wave function!

*****************************************************************************
Applying the update for shift_i =   1.0000e-02     and shift_s =   3.9062e-03
*****************************************************************************
  Execution time = 6.3833e+00
  </log>
  <optVariables href="Se.log.s007.opt.xml">
   uu_0                 4.010575e-01 1 1  ON 0
   uu_1                 2.161150e-01 1 1  ON 1
   uu_2                 1.064983e-01 1 1  ON 2
   uu_3                 3.493397e-02 1 1  ON 3
   uu_4                -1.322347e-02 1 1  ON 4
   uu_5                -5.584391e-02 1 1  ON 5
   uu_6                -8.764231e-02 1 1  ON 6
   uu_7                -1.081943e-01 1 1  ON 7
   uu_8                -1.162469e-01 1 1  ON 8
   uu_9                -1.053515e-01 1 1  ON 9
   ud_0                 8.473196e-01 1 1  ON 10
   ud_1                 4.841499e-01 1 1  ON 11
   ud_2                 2.520546e-01 1 1  ON 12
   ud_3                 9.908010e-02 1 1  ON 13
   ud_4                 1.222592e-02 1 1  ON 14
   ud_5                -5.079149e-02 1 1  ON 15
   ud_6                -9.723383e-02 1 1  ON 16
   ud_7                -1.328142e-01 1 1  ON 17
   ud_8                -1.544496e-01 1 1  ON 18
   ud_9                -1.538604e-01 1 1  ON 19
  eSe_0                -1.035534e+00 1 1  ON 20
  eSe_1                -8.617909e-01 1 1  ON 21
  eSe_2                -6.559375e-01 1 1  ON 22
  eSe_3                -2.337745e-01 1 1  ON 23
  eSe_4                 2.079135e-01 1 1  ON 24
  eSe_5                 3.613240e-01 1 1  ON 25
  eSe_6                 5.399835e-01 1 1  ON 26
  eSe_7                 6.533800e-01 1 1  ON 27
  eSe_8                 6.361179e-01 1 1  ON 28
  eSe_9                 3.319027e-01 1 1  ON 29
 uuSe_0                -4.340366e-05 1 1  ON 30
 uuSe_1                 5.744774e-05 1 1  ON 31
 uuSe_2                 7.616663e-05 1 1  ON 32
 uuSe_3                 2.181811e-05 1 1  ON 33
 uuSe_4                -1.587039e-05 1 1  ON 34
 uuSe_5                 9.783647e-07 1 1  ON 35
 uuSe_6                 1.740116e-04 1 1  ON 36
 uuSe_7                 1.323688e-05 1 1  ON 37
 uuSe_8                 4.572872e-05 1 1  ON 38
 uuSe_9                -1.005936e-04 1 1  ON 39
uuSe_10                -2.825726e-06 1 1  ON 40
uuSe_11                -4.135783e-05 1 1  ON 41
uuSe_12                -1.197314e-05 1 1  ON 42
uuSe_13                -1.403979e-05 1 1  ON 43
uuSe_14                 5.565359e-06 1 1  ON 44
uuSe_15                 5.546749e-07 1 1  ON 45
uuSe_16                 1.325673e-04 1 1  ON 46
uuSe_17                -4.105444e-05 1 1  ON 47
uuSe_18                 2.554896e-05 1 1  ON 48
uuSe_19                 3.840277e-06 1 1  ON 49
uuSe_20                -1.774423e-05 1 1  ON 50
uuSe_21                -2.653702e-06 1 1  ON 51
[...]
   uu_2                 1.178583e-01 1 1  ON 2
   uu_3                 4.848361e-02 1 1  ON 3
   uu_4                -5.470097e-04 1 1  ON 4
   uu_5                -4.481003e-02 1 1  ON 5
   uu_6                -7.973050e-02 1 1  ON 6
   uu_7                -1.026737e-01 1 1  ON 7
   uu_8                -1.124665e-01 1 1  ON 8
   uu_9                -9.370369e-02 1 1  ON 9
   ud_0                 8.891825e-01 1 1  ON 10
   ud_1                 5.254540e-01 1 1  ON 11
   ud_2                 2.950287e-01 1 1  ON 12
   ud_3                 1.444501e-01 1 1  ON 13
   ud_4                 5.901777e-02 1 1  ON 14
   ud_5                -4.270989e-03 1 1  ON 15
   ud_6                -5.235137e-02 1 1  ON 16
   ud_7                -9.293841e-02 1 1  ON 17
   ud_8                -1.190884e-01 1 1  ON 18
   ud_9                -1.221383e-01 1 1  ON 19
  eSe_0                -1.092533e+00 1 1  ON 20
  eSe_1                -9.352891e-01 1 1  ON 21
  eSe_2                -7.328219e-01 1 1  ON 22
  eSe_3                -2.914734e-01 1 1  ON 23
  eSe_4                 1.725058e-01 1 1  ON 24
  eSe_5                 3.546318e-01 1 1  ON 25
  eSe_6                 5.486670e-01 1 1  ON 26
  eSe_7                 6.667104e-01 1 1  ON 27
  eSe_8                 6.811920e-01 1 1  ON 28
  eSe_9                 4.741788e-01 1 1  ON 29
 uuSe_0                -4.391496e-05 1 1  ON 30
 uuSe_1                 6.206546e-05 1 1  ON 31
 uuSe_2                 8.333876e-05 1 1  ON 32
 uuSe_3                 2.221408e-05 1 1  ON 33
 uuSe_4                -1.656223e-05 1 1  ON 34
 uuSe_5                 1.262803e-06 1 1  ON 35
 uuSe_6                 1.872806e-04 1 1  ON 36
 uuSe_7                 5.101636e-06 1 1  ON 37
 uuSe_8                 5.174216e-05 1 1  ON 38
 uuSe_9                -1.106468e-04 1 1  ON 39
uuSe_10                -1.431142e-06 1 1  ON 40
uuSe_11                -4.439867e-05 1 1  ON 41
uuSe_12                -1.342001e-05 1 1  ON 42
uuSe_13                -9.350917e-06 1 1  ON 43
uuSe_14                 6.303744e-06 1 1  ON 44
uuSe_15                 6.344293e-07 1 1  ON 45
uuSe_16                 1.412018e-04 1 1  ON 46
uuSe_17                -3.991470e-05 1 1  ON 47
uuSe_18                 2.658242e-05 1 1  ON 48
uuSe_19                 4.363746e-06 1 1  ON 49
uuSe_20                -2.093152e-05 1 1  ON 50
uuSe_21                -2.634727e-06 1 1  ON 51
uuSe_22                -3.149290e-07 1 1  ON 52
uuSe_23                 7.573149e-06 1 1  ON 53
uuSe_24                -1.061995e-07 1 1  ON 54
uuSe_25                 4.918169e-08 1 1  ON 55
 udSe_0                -6.147471e-05 1 1  ON 56
 udSe_1                 4.740861e-05 1 1  ON 57
 udSe_2                 6.662852e-05 1 1  ON 58
 udSe_3                 9.448603e-05 1 1  ON 59
 udSe_4                 7.096733e-06 1 1  ON 60
 udSe_5                -6.815390e-06 1 1  ON 61
 udSe_6                 2.159339e-04 1 1  ON 62
 udSe_7                 1.224597e-05 1 1  ON 63
 udSe_8                -3.668781e-05 1 1  ON 64
 udSe_9                -1.213121e-04 1 1  ON 65
udSe_10                 4.906246e-05 1 1  ON 66
udSe_11                -2.606632e-05 1 1  ON 67
udSe_12                 1.879578e-05 1 1  ON 68
udSe_13                -1.108905e-04 1 1  ON 69
udSe_14                -2.263805e-05 1 1  ON 70
udSe_15                 2.662780e-07 1 1  ON 71
udSe_16                 2.126748e-04 1 1  ON 72
udSe_17                -1.618406e-04 1 1  ON 73
udSe_18                 3.635233e-05 1 1  ON 74
udSe_19                -9.286137e-06 1 1  ON 75
udSe_20                 6.283869e-06 1 1  ON 76
udSe_21                 2.207892e-06 1 1  ON 77
udSe_22                 2.914952e-07 1 1  ON 78
udSe_23                -1.981675e-06 1 1  ON 79
udSe_24                -3.666928e-07 1 1  ON 80
udSe_25                 9.262121e-09 1 1  ON 81
  </optVariables>
   Restore the number of walkers to 1, removing 0 walkers.
</opt>
</optimization-report>
  QMC Execution time = 6.523 secs

=========================================================
  Start VMC
  File Root Se.log.s021 append = no 
=========================================================
  Using the current 1 walkers.
  Total number of walkers: 1024
  Total weight: 1024
  Resetting Properties of the walkers 1 x 13

<vmc function="put">
  qmc_counter=0  my_counter=0
  time step      = 0.15
  blocks         = 200
  steps          = 1
  substeps       = 30
  current        = 0
  target samples = 4096
  walkers/mpi    = 1

  stepsbetweensamples = 50
<parameter name="blocks" condition="int">200</parameter>
<parameter name="blocks_between_recompute" condition="int">0</parameter>
<parameter name="check_properties" condition="int">100</parameter>
<parameter name="checkproperties" condition="int">100</parameter>
<parameter name="current" condition="int">0</parameter>
<parameter name="dmcwalkersperthread" condition="real">4</parameter>
<parameter name="maxcpusecs" condition="real">3.6e+05</parameter>
<parameter name="record_configs" condition="int">0</parameter>
<parameter name="record_walkers" condition="int">50</parameter>
<parameter name="recordconfigs" condition="int">0</parameter>
<parameter name="recordwalkers" condition="int">50</parameter>
<parameter name="rewind" condition="int">0</parameter>
<parameter name="samples" condition="real">4096</parameter>
<parameter name="samplesperthread" condition="real">4</parameter>
<parameter name="steps" condition="int">1</parameter>
<parameter name="stepsbetweensamples" condition="int">50</parameter>
<parameter name="store_configs" condition="int">0</parameter>
<parameter name="storeconfigs" condition="int">0</parameter>
<parameter name="sub_steps" condition="int">30</parameter>
<parameter name="substeps" condition="int">30</parameter>
<parameter name="tau" condition="au">0.15</parameter>
<parameter name="time_step" condition="au">0.15</parameter>
<parameter name="timestep" condition="au">0.15</parameter>
<parameter name="use_drift" condition="string">no</parameter>
<parameter name="usedrift" condition="string">no</parameter>
<parameter name="walkers" condition="int">1</parameter>
<parameter name="warmup_steps" condition="int">100</parameter>
<parameter name="warmupsteps" condition="int">100</parameter>
  DumpConfig==true Configurations are dumped to config.h5 with a period of 200 blocks
  Walker Samples are dumped every 50 steps.
</vmc>
  Set drift_modifier UNR parameter a = 1
  EstimatorManagerBase::add replace LocalEnergy estimator.
  Cannot make clones again. Use existing 1 clones
  Initial partition of walkers 0 1 

  Using Particle by Particle moves
  Walker moves without drift
  Total Sample Size   =4096
  Walker distribution on root = 0 1 
  Using Locality Approximation
===== Memory Usage after the buffer registration =====
Available memory on node 0, free + buffers : 52282 MB
Memory footprint by rank 0 on node 0       : 652 MB
==================================================
  Anonymous Buffer size per walker : 2336 Bytes.
MEMORY increase 0 MB VMC::resetRun
  samples are written to the config.h5
====================================================
  SimpleFixedNodeBranch::finalize after a VMC block
    QMC counter        = 21
    time step          = 0.15
    reference energy   = -9.29155
    reference variance = 0.0428669
====================================================
  QMC Execution time = 3.222 secs

=========================================================
  Start DMC
  File Root Se.log.s022 append = no 
=========================================================
Using existing walkers 
  Resetting Properties of the walkers 1 x 13
  Set drift_modifier UNR parameter a = 1
  EstimatorManagerBase::add replace LocalEnergy estimator.
  Cannot make clones again. Use existing 1 clones
  Total number of walkers: 4096
  Total weight: 4096
  Creating WalkerController: target  number of walkers = 4096
  Using WalkerControlMPI for dynamic population control.
  START ALL OVER 
  WalkerControlBase parameters 
    maxCopy = 2
    Max Walkers per MPI rank 9
    Min Walkers per MPI rank 1
    Using non-blocking send/recv
  QMC counter      = 22
  time step        = 0.02
  effective time step = 0.02
  trial energy     = -9.292
  reference energy = -9.292
  Feedback = 1
  reference variance = 0.04287
  target walkers = 4096
  branching cutoff scheme classic
  branch cutoff = 50 75
  Max and minimum walkers per node= 9 1
  QMC Status (BranchMode) = 0000001101
  Initial partition of walkers on a node: 0 4 
  Updates by particle-by-particle moves
  DMC moves are rejected when a node crossing is detected
  Using Non-local T-moves v1, M. Casula et al., JCP 132, 154113 (2010)
===== Memory Usage after the buffer registration =====
Available memory on node 0, free + buffers : 52213 MB
Memory footprint by rank 0 on node 0       : 665 MB
==================================================
SimpleFixedNodeBranch::checkParameters 
  Average Energy of a population  = -9.29236
  Energy Variance = 0.0422415

  Fluctuating population
  Persistent walkers are killed after 1 MC sweeps
  BranchInterval = 1
  Steps per block = 50
  Number of blocks = 150

  DMC Engine Initialization = 0.03752 secs

 Warmup is completed after 200

  TauEff     = 0.01987
 TauEff/Tau = 0.9937
  Etrial     = -9.297
 Running average of energy = -9.295
                  Variance = 0.03774
branch cutoff = 10 15
====================================================
  SimpleFixedNodeBranch::finalize after a DMC block
    QMC counter                   = 22
    time step                     = 0.02
    effective time step           = 0.0198758
    trial energy                  = -9.29349
    reference energy              = -9.29643
    reference variance            = 0.0377438
    target walkers                = 4096
    branch cutoff                 = 10 15
    Max and minimum walkers per node= 9 1
    Feedback                      = 1
    QMC Status (BranchMode)       = 0000001111
====================================================
  QMC Execution time = 240.1 secs
  Reusing DMC
BRANCH resetRun
 SimpleFixedNodeBranch::resetRun detected changes in <parameter>'s 
 BranchMode : 0000001111 0000001111
  WalkerControlBase parameters 
    maxCopy = 2
    Max Walkers per MPI rank 9
    Min Walkers per MPI rank 1
    Using non-blocking send/recv
 iParam (old):                  0                 1                22              4096                 9                 1                 1                 0
 iParam (new):                100                 1                22              4096                 9                 1                 1                 0
 vParam (old):               0.02     0.01987579634      -9.293491112      -9.296425099      -9.297566759                15                10               0.2     0.03774384502      -67873.20079              7301                 1                10                 1                 1                 1                 1
 vParam (new):               0.01     0.01987579634      -9.293491112      -9.296425099      -9.297566759                15                10               0.2     0.03774384502      -67873.20079              7301                 1                10                 1                 1                 1                 1

 Using branching cutoff scheme classic
SimpleFixedNodeBranch::checkParameters 
  Average Energy of a population  = -9.29831
  Energy Variance = 0.0343849

  Using Non-local T-moves v1, M. Casula et al., JCP 132, 154113 (2010)
===== Memory Usage after the buffer registration =====
Available memory on node 0, free + buffers : 52222 MB
Memory footprint by rank 0 on node 0       : 668 MB
==================================================

=========================================================
  Start DMC
  File Root Se.log.s023 append = no 
=========================================================
Using existing walkers 
  Resetting Properties of the walkers 1 x 13
  Set drift_modifier UNR parameter a = 1
  EstimatorManagerBase::add replace LocalEnergy estimator.
  Cannot make clones again. Use existing 1 clones
SimpleFixedNodeBranch::checkParameters 
  Average Energy of a population  = -9.29852
  Energy Variance = 0.0343091

  Fluctuating population
  Persistent walkers are killed after 1 MC sweeps
  BranchInterval = 1
  Steps per block = 100
  Number of blocks = 200

  DMC Engine Initialization = 0.001378059387 secs

 Warmup is completed after 100

  TauEff     = 0.009977070934
 TauEff/Tau = 0.9977070934
  Etrial     = -9.275159785
 Running average of energy = -9.298302827
                  Variance = 0.03742382513
branch cutoff = 10 15
====================================================
  SimpleFixedNodeBranch::finalize after a DMC block
    QMC counter                   = 23
    time step                     = 0.01
    effective time step           = 0.00997703
    trial energy                  = -9.29553
    reference energy              = -9.29626
    reference variance            = 0.0374238
    target walkers                = 4096
    branch cutoff                 = 10 15
    Max and minimum walkers per node= 9 1
    Feedback                      = 1
    QMC Status (BranchMode)       = 0000001111
====================================================
  QMC Execution time = 639 secs
  Reusing DMC
BRANCH resetRun
 SimpleFixedNodeBranch::resetRun detected changes in <parameter>'s 
 BranchMode : 0000001111 0000001111
  WalkerControlBase parameters 
    maxCopy = 2
    Max Walkers per MPI rank 9
    Min Walkers per MPI rank 1
    Using non-blocking send/recv
 iParam (old):                  0                 1                23              4096                 9                 1                 1                 0
 iParam (new):                200                 1                23              4096                 9                 1                 1                 0
 vParam (old):               0.01    0.009977027575      -9.295529707      -9.296262397      -9.296912699                15                10               0.2     0.03742382513      -185004.9186             19901                 1                10                 1                 1                 1                 1
 vParam (new):              0.005    0.009977027575      -9.295529707      -9.296262397      -9.296912699                15                10               0.2     0.03742382513      -185004.9186             19901                 1                10                 1                 1                 1                 1

 Using branching cutoff scheme classic
SimpleFixedNodeBranch::checkParameters 
  Average Energy of a population  = -9.29729
  Energy Variance = 0.0350757

  Using Non-local T-moves v1, M. Casula et al., JCP 132, 154113 (2010)
===== Memory Usage after the buffer registration =====
Available memory on node 0, free + buffers : 52196 MB
Memory footprint by rank 0 on node 0       : 672 MB
==================================================

=========================================================
  Start DMC
  File Root Se.log.s024 append = no 
=========================================================
Using existing walkers 
  Resetting Properties of the walkers 1 x 13
  Set drift_modifier UNR parameter a = 1
  EstimatorManagerBase::add replace LocalEnergy estimator.
  Cannot make clones again. Use existing 1 clones
SimpleFixedNodeBranch::checkParameters 
  Average Energy of a population  = -9.29588
  Energy Variance = 0.0362722

  Fluctuating population
  Persistent walkers are killed after 1 MC sweeps
  BranchInterval = 1
  Steps per block = 200
  Number of blocks = 250

  DMC Engine Initialization = 0.002665042877 secs

 Warmup is completed after 200

  TauEff     = 0.004995612299
 TauEff/Tau = 0.9991224598
  Etrial     = -9.296559717
 Running average of energy = -9.297234972
                  Variance = 0.04502199263
branch cutoff = 10 15
====================================================
  SimpleFixedNodeBranch::finalize after a DMC block
    QMC counter                   = 24
    time step                     = 0.005
    effective time step           = 0.00499581
    trial energy                  = -9.29247
    reference energy              = -9.29638
    reference variance            = 0.045022
    target walkers                = 4096
    branch cutoff                 = 10 15
    Max and minimum walkers per node= 9 1
    Feedback                      = 1
    QMC Status (BranchMode)       = 0000001111
====================================================
  QMC Execution time = 1596 secs
  Reusing DMC
BRANCH resetRun
 SimpleFixedNodeBranch::resetRun detected changes in <parameter>'s 
 BranchMode : 0000001111 0000001111
  WalkerControlBase parameters 
    maxCopy = 2
    Max Walkers per MPI rank 9
    Min Walkers per MPI rank 1
    Using non-blocking send/recv
 iParam (old):                  0                 1                24              4096                 9                 1                 1                 0
 iParam (new):                400                 1                24              4096                 9                 1                 1                 0
 vParam (old):              0.005    0.004995813505      -9.292466789      -9.296380688      -9.293158018                15                10               0.2     0.04502199263      -462969.0514             49801                 1                10                 1                 1                 1                 1
 vParam (new):             0.0025    0.004995813505      -9.292466789      -9.296380688      -9.293158018                15                10               0.2     0.04502199263      -462969.0514             49801                 1                10                 1                 1                 1                 1

 Using branching cutoff scheme classic
SimpleFixedNodeBranch::checkParameters 
  Average Energy of a population  = -9.29336
  Energy Variance = 0.0397556

  Using Non-local T-moves v1, M. Casula et al., JCP 132, 154113 (2010)
===== Memory Usage after the buffer registration =====
Available memory on node 0, free + buffers : 52164 MB
Memory footprint by rank 0 on node 0       : 675 MB
==================================================

=========================================================
  Start DMC
  File Root Se.log.s025 append = no 
=========================================================
Using existing walkers 
  Resetting Properties of the walkers 1 x 13
  Set drift_modifier UNR parameter a = 1
  EstimatorManagerBase::add replace LocalEnergy estimator.
  Cannot make clones again. Use existing 1 clones
SimpleFixedNodeBranch::checkParameters 
  Average Energy of a population  = -9.29321
  Energy Variance = 0.0409419

  Fluctuating population
  Persistent walkers are killed after 1 MC sweeps
  BranchInterval = 1
  Steps per block = 400
  Number of blocks = 300

  DMC Engine Initialization = 0.000372171402 secs

 Warmup is completed after 400

  TauEff     = 0.00249924586
 TauEff/Tau = 0.9996983439
  Etrial     = -9.393000761
 Running average of energy = -9.296570659
                  Variance = 0.03524759255
branch cutoff = 10 15
====================================================
  SimpleFixedNodeBranch::finalize after a DMC block
    QMC counter                   = 25
    time step                     = 0.0025
    effective time step           = 0.00249924
    trial energy                  = -9.29636
    reference energy              = -9.2966
    reference variance            = 0.0352476
    target walkers                = 4096
    branch cutoff                 = 10 15
    Max and minimum walkers per node= 9 1
    Feedback                      = 1
    QMC Status (BranchMode)       = 0000001111
====================================================
  QMC Execution time = 3823 secs
  Total Execution time = 6432 secs

=========================================================
  A new xml input file : Se.log.s025.cont.xml
TACC:  Shutdown complete. Exiting. 
