
 Primary working directories    : /global/cscratch1/sd/aannabe
 Secondary working directories  : /global/cscratch1/sd/aannabe
 Wavefunction directory         : /global/homes/a/aannabe/wfu/
 Main file repository           : /global/cscratch1/sd/aannabe/

 SHA1      : 2873118e99aab1bc19f5b6fc1784693c06d15c95
 NAME      : 2015.1.8
 ARCHNAME  : linux/x86_64
 FC        : /opt/cray/pe/craype/2.5.5/bin/ftn
 BLASLIB   : -Wl,-_start-group /opt/intel/compilers_and_libraries_2016.3.210/linux/mkl/lib/intel64/libmkl_intel_ilp64.a /opt/intel/compilers_and_libraries_2016.3.210/linux/mkl/lib/intel64/libmkl_intel_thread.a /opt/intel/compilers_and_libraries_2016.3.210/linux/mkl/lib/intel64/libmkl_core.a -Wl,-_end-group
 id        : lbl

 Nodes     nprocs
 nid00444     1

 Using customized tuning parameters: mindgm=8; mindgv=16; mindgc=4; mindgr=1; noblas=0; minvec=7
 default implementation of scratch files=df  

 ***,Ni
 memory,512,m
 gthresh,twoint=1.e-12
 
 gprint,basis,orbitals
 gexpec,ekin,pot
 
 angstrom
 geometry={
 1                                                                               ! Number of atoms
 Ni 0.0 0.0 0.0
 }
 
 basis={
 Including file /global/homes/a/aannabe/docs/accurate/ccECP_Kh/pps/Ni.pp
                                              !include,/global/homes/a/aannabe/docs/accurate/ccECP_Kh/basis/aug-cc-pVnZ/Ni_tz.basis
 Including file /global/homes/a/aannabe/docs/accurate/ccECP_Kh/basis/cc-pVnZ/Ni_tz.basis
 }
 
 {rhf
  start,atden
  print,orbitals=2
  wf,18,6,2
  occ,4,1,1,1,1,1,1,0
  open,1.4,1.7
  sym,1,1,1,3,2
  orbital,4202.2
 }
 pop
 {multi
  start,4202.2
  occ,4,1,1,1,1,1,1,0
  closed,2,1,1,0,1,0,0
  wf,18,1,2;state,1
  wf,18,4,2;state,3
  wf,18,6,2;state,3
  wf,18,7,2;state,3
  natorb,ci,print
  orbital,5202.2
 }
 {rhf,nitord=1,maxit=0
  start,5202.2
  wf,18,1,2
  occ,4,1,1,1,1,1,1,0
  open,3.1,4.1
 }
 
 scf(i)=energy
 
 _CC_NORM_MAX=2.0
 {rccsd(t)
 maxit,100
 core
 }
 posthf(i)=energy
 
 table,scf,posthf,ekin,pot
 save,3.csv,new
 
 

 Variables initialized (889), CPU time= 0.01 sec
 Commands  initialized (702), CPU time= 0.02 sec, 572 directives.
 Default parameters read. Elapsed time= 0.24 sec

 Checking input...
 Passed
1


                                         ***  PROGRAM SYSTEM MOLPRO  ***
                                       Copyright, TTI GmbH Stuttgart, 2015
                                    Version 2015.1 linked Sep  7 2016 23:09:38


 **********************************************************************************************************************************
 LABEL *   Ni                                                                            
  64 bit serial version                                                                  DATE: 13-Nov-18          TIME: 22:25:32  
 **********************************************************************************************************************************

 SHA1:             2873118e99aab1bc19f5b6fc1784693c06d15c95
 **********************************************************************************************************************************

 THRESHOLDS:

 ZERO    =  1.00D-12  ONEINT  =  1.00D-12  TWOINT  =  1.00D-12  PREFAC  =  1.00D-14  LOCALI  =  1.00D-09  EORDER  =  1.00D-04
 ENERGY  =  0.00D+00  ETEST   =  0.00D+00  EDENS   =  0.00D+00  THRDEDEF=  1.00D-06  GRADIENT=  1.00D-02  STEP    =  1.00D-03
 ORBITAL =  1.00D-05  CIVEC   =  1.00D-05  COEFF   =  1.00D-04  PRINTCI =  5.00D-02  PUNCHCI =  9.90D+01  OPTGRAD =  3.00D-04
 OPTENERG=  1.00D-06  OPTSTEP =  3.00D-04  THRGRAD =  1.00D-10  COMPRESS=  1.00D-11  VARMIN  =  1.00D-07  VARMAX  =  1.00D-03
 THRDOUB =  0.00D+00  THRDIV  =  1.00D-05  THRRED  =  1.00D-07  THRPSP  =  1.00D+00  THRDC   =  1.00D-10  THRCS   =  1.00D-10
 THRNRM  =  1.00D-08  THREQ   =  0.00D+00  THRDE   =  1.00D+00  THRREF  =  1.00D-05  SPARFAC =  1.00D+00  THRDLP  =  1.00D-07
 THRDIA  =  1.00D-10  THRDLS  =  1.00D-07  THRGPS  =  0.00D+00  THRKEX  =  0.00D+00  THRDIS  =  2.00D-01  THRVAR  =  1.00D-10
 THRLOC  =  1.00D-06  THRGAP  =  1.00D-06  THRLOCT = -1.00D+00  THRGAPT = -1.00D+00  THRORB  =  1.00D-06  THRMLTP =  0.00D+00
 THRCPQCI=  1.00D-10  KEXTA   =  0.00D+00  THRCOARS=  0.00D+00  SYMTOL  =  1.00D-06  GRADTOL =  1.00D-06  THROVL  =  1.00D-08
 THRORTH =  1.00D-08  GRID    =  1.00D-06  GRIDMAX =  1.00D-03  DTMAX   =  0.00D+00  THROCCDE=  1.00D-01  THROCCDE=  1.00D-01



 ZUNIT=ANG
 

Geometry recognized as XYZ


 Variable memory set to  512000000 words,  buffer space   230000 words

 SETTING BASIS          =    USERDEF


 Recomputing integrals since basis changed


 Using spherical harmonics



 PROGRAM * SEWARD (Integral evaluation for generally contracted gaussian basis sets)     Author: Roland Lindh, 1990

 Geometry written to block  1 of record 700

 Orientation using atomic masses  
 Molecule type: Atom
 Symmetry elements: X,Y,Z
 Rotational constants:       0.0000000      0.0000000      0.0000000 GHz  (calculated with average atomic masses)

 Point group  D2h 



 ATOMIC COORDINATES

 NR  ATOM    CHARGE       X              Y              Z

   1  NI     18.00    0.000000000    0.000000000    0.000000000


          NI  CORE POTENTIAL

          d POTENTIAL

 POWERS             1              3              2              2
 EXPONENTIALS   28.26300       26.93603       27.08601       12.21300    
 COEFFICIENTS   18.00000       508.7340      -220.1000      -2.134933    

          s - d POTENTIAL

 POWERS             2              2
 EXPONENTIALS   26.43202       11.74897    
 COEFFICIENTS   321.2400       60.34701    

          p - d POTENTIAL

 POWERS             2              2
 EXPONENTIALS   29.49300       11.55698    
 COEFFICIENTS   236.5400       44.39699    


 BASIS DATA

   Nr Sym  Nuc  Type         Exponents   Contraction coefficients

    1.1 Ag    1  1s          97.161835     0.000709   -0.000140    0.000121    0.000434    0.000000
    2.1 Ag                   51.187866    -0.012399    0.002756    0.003322    0.004848    0.000000
    3.1 Ag                   26.996725     0.107220   -0.025482   -0.045785   -0.087818    0.000000
    4.1 Ag                   15.523536    -0.124556    0.032182    0.053415    0.121852    0.000000
    5.1 Ag                    8.916168    -0.351023    0.086226    0.222270    0.454218    0.000000
                              4.795806    -0.025758    0.001104   -0.073065   -0.245765    0.000000
                              2.619926     0.498948   -0.135790   -0.293998   -0.997345    0.000000
                              1.330111     0.568986   -0.215724   -0.668938   -0.834586    0.000000
                              0.668901     0.191121   -0.158367    0.297504    2.285675    0.000000
                              0.230439     0.010278    0.143499    1.233748    0.251538    0.000000
                              0.121518    -0.003627    0.443672    0.129317   -1.988796    0.000000
                              0.057951     0.001295    0.472558   -0.603407    0.347602    0.000000
                              0.027201    -0.000307    0.110173   -0.533062    0.824150    1.000000
    6.1 Ag    1  1s           1.554348     1.000000
    7.1 Ag    1  1s           4.246101     1.000000
    8.1 Ag    1  3d0        177.900125     0.000049
                             57.372112     0.007519
                             29.881432     0.036455
                             13.971757     0.086901
                              6.841152     0.180568
                              3.379983     0.268187
                              1.651827     0.296756
                              0.799251     0.251558
                              0.388057     0.162319
                              0.191191     0.072119
                              0.093358     0.023689
    9.1 Ag    1  3d2+       177.900125     0.000049
                             57.372112     0.007519
                             29.881432     0.036455
                             13.971757     0.086901
                              6.841152     0.180568
                              3.379983     0.268187
                              1.651827     0.296756
                              0.799251     0.251558
                              0.388057     0.162319
                              0.191191     0.072119
                              0.093358     0.023689
   10.1 Ag    1  3d0        177.900125    -0.000053
                             57.372112    -0.008850
                             29.881432    -0.041916
                             13.971757    -0.104691
                              6.841152    -0.219464
                              3.379983    -0.283712
                              1.651827    -0.122127
                              0.799251     0.190123
                              0.388057     0.376598
                              0.191191     0.295122
                              0.093358     0.178252
   11.1 Ag    1  3d2+       177.900125    -0.000053
                             57.372112    -0.008850
                             29.881432    -0.041916
                             13.971757    -0.104691
                              6.841152    -0.219464
                              3.379983    -0.283712
                              1.651827    -0.122127
                              0.799251     0.190123
                              0.388057     0.376598
                              0.191191     0.295122
                              0.093358     0.178252
   12.1 Ag    1  3d0        177.900125     0.000079
                             57.372112     0.011442
                             29.881432     0.053972
                             13.971757     0.141068
                              6.841152     0.302294
                              3.379983     0.236558
                              1.651827    -0.291311
                              0.799251    -0.581758
                              0.388057    -0.024063
                              0.191191     0.389387
                              0.093358     0.430833
   13.1 Ag    1  3d2+       177.900125     0.000079
                             57.372112     0.011442
                             29.881432     0.053972
                             13.971757     0.141068
                              6.841152     0.302294
                              3.379983     0.236558
                              1.651827    -0.291311
                              0.799251    -0.581758
                              0.388057    -0.024063
                              0.191191     0.389387
                              0.093358     0.430833
   14.1 Ag    1  3d0        177.900125     0.000000
                             57.372112     0.000000
                             29.881432     0.000000
                             13.971757     0.000000
                              6.841152     0.000000
                              3.379983     0.000000
                              1.651827     0.000000
                              0.799251     0.000000
                              0.388057     0.000000
                              0.191191     0.000000
                              0.093358     1.000000
   15.1 Ag    1  3d2+       177.900125     0.000000
                             57.372112     0.000000
                             29.881432     0.000000
                             13.971757     0.000000
                              6.841152     0.000000
                              3.379983     0.000000
                              1.651827     0.000000
                              0.799251     0.000000
                              0.388057     0.000000
                              0.191191     0.000000
                              0.093358     1.000000
   16.1 Ag    1  3d0          2.566254     1.000000
   17.1 Ag    1  3d2+         2.566254     1.000000
   18.1 Ag    1  3d0          4.627077     1.000000
   19.1 Ag    1  3d2+         4.627077     1.000000
   20.1 Ag    1  5g0          2.896680     1.000000
   21.1 Ag    1  5g4+         2.896680     1.000000
   22.1 Ag    1  5g2+         2.896680     1.000000
   23.1 Ag    1  5g0          7.108284     1.000000
   24.1 Ag    1  5g4+         7.108284     1.000000
   25.1 Ag    1  5g2+         7.108284     1.000000
    1.2 B3u   1  2px        148.087630     0.000055    0.000027   -0.000237   -0.000260    0.000000
    2.2 B3u                  77.452187    -0.000548   -0.000088    0.001456    0.001071    0.000000
    3.2 B3u                  40.915636     0.006979   -0.000773   -0.009745    0.002322    0.000000
    4.2 B3u                  22.575667    -0.023658    0.003345    0.037799   -0.032140    0.000000
    5.2 B3u                  13.218268    -0.075682    0.019405    0.052521   -0.134136    0.000000
                              7.232093     0.027253   -0.014288   -0.035006    0.229062    0.000000
                              4.054870     0.284778   -0.054527   -0.455577    0.752239    0.000000
                              2.122089     0.427632   -0.116454   -0.368306    0.205535    0.000000
                              1.092769     0.309937   -0.060236    0.100392   -1.692910    0.000000
                              0.548240     0.088535   -0.023928    1.076652    0.436295    0.000000
                              0.238886     0.006427    0.347869   -0.045326    1.219514    0.000000
                              0.084667     0.000708    0.522626   -0.703186   -0.945516    0.000000
                              0.038921     0.000186    0.276471    0.004580   -0.062232    1.000000
    6.2 B3u   1  2px          1.939264     1.000000
    7.2 B3u   1  2px          7.600387     1.000000
    8.2 B3u   1  4f1+         1.144322     1.000000
    9.2 B3u   1  4f3+         1.144322     1.000000
   10.2 B3u   1  4f1+         4.588601     1.000000
   11.2 B3u   1  4f3+         4.588601     1.000000
   12.2 B3u   1  4f1+         9.190898     1.000000
   13.2 B3u   1  4f3+         9.190898     1.000000
    1.3 B2u   1  2py        148.087630     0.000055    0.000027   -0.000237   -0.000260    0.000000
    2.3 B2u                  77.452187    -0.000548   -0.000088    0.001456    0.001071    0.000000
    3.3 B2u                  40.915636     0.006979   -0.000773   -0.009745    0.002322    0.000000
    4.3 B2u                  22.575667    -0.023658    0.003345    0.037799   -0.032140    0.000000
    5.3 B2u                  13.218268    -0.075682    0.019405    0.052521   -0.134136    0.000000
                              7.232093     0.027253   -0.014288   -0.035006    0.229062    0.000000
                              4.054870     0.284778   -0.054527   -0.455577    0.752239    0.000000
                              2.122089     0.427632   -0.116454   -0.368306    0.205535    0.000000
                              1.092769     0.309937   -0.060236    0.100392   -1.692910    0.000000
                              0.548240     0.088535   -0.023928    1.076652    0.436295    0.000000
                              0.238886     0.006427    0.347869   -0.045326    1.219514    0.000000
                              0.084667     0.000708    0.522626   -0.703186   -0.945516    0.000000
                              0.038921     0.000186    0.276471    0.004580   -0.062232    1.000000
    6.3 B2u   1  2py          1.939264     1.000000
    7.3 B2u   1  2py          7.600387     1.000000
    8.3 B2u   1  4f1-         1.144322     1.000000
    9.3 B2u   1  4f3-         1.144322     1.000000
   10.3 B2u   1  4f1-         4.588601     1.000000
   11.3 B2u   1  4f3-         4.588601     1.000000
   12.3 B2u   1  4f1-         9.190898     1.000000
   13.3 B2u   1  4f3-         9.190898     1.000000
    1.4 B1g   1  3d2-       177.900125     0.000049   -0.000053    0.000079    0.000000
    2.4 B1g                  57.372112     0.007519   -0.008850    0.011442    0.000000
    3.4 B1g                  29.881432     0.036455   -0.041916    0.053972    0.000000
    4.4 B1g                  13.971757     0.086901   -0.104691    0.141068    0.000000
                              6.841152     0.180568   -0.219464    0.302294    0.000000
                              3.379983     0.268187   -0.283712    0.236558    0.000000
                              1.651827     0.296756   -0.122127   -0.291311    0.000000
                              0.799251     0.251558    0.190123   -0.581758    0.000000
                              0.388057     0.162319    0.376598   -0.024063    0.000000
                              0.191191     0.072119    0.295122    0.389387    0.000000
                              0.093358     0.023689    0.178252    0.430833    1.000000
    5.4 B1g   1  3d2-         2.566254     1.000000
    6.4 B1g   1  3d2-         4.627077     1.000000
    7.4 B1g   1  5g2-         2.896680     1.000000
    8.4 B1g   1  5g4-         2.896680     1.000000
    9.4 B1g   1  5g2-         7.108284     1.000000
   10.4 B1g   1  5g4-         7.108284     1.000000
    1.5 B1u   1  2pz        148.087630     0.000055    0.000027   -0.000237   -0.000260    0.000000
    2.5 B1u                  77.452187    -0.000548   -0.000088    0.001456    0.001071    0.000000
    3.5 B1u                  40.915636     0.006979   -0.000773   -0.009745    0.002322    0.000000
    4.5 B1u                  22.575667    -0.023658    0.003345    0.037799   -0.032140    0.000000
    5.5 B1u                  13.218268    -0.075682    0.019405    0.052521   -0.134136    0.000000
                              7.232093     0.027253   -0.014288   -0.035006    0.229062    0.000000
                              4.054870     0.284778   -0.054527   -0.455577    0.752239    0.000000
                              2.122089     0.427632   -0.116454   -0.368306    0.205535    0.000000
                              1.092769     0.309937   -0.060236    0.100392   -1.692910    0.000000
                              0.548240     0.088535   -0.023928    1.076652    0.436295    0.000000
                              0.238886     0.006427    0.347869   -0.045326    1.219514    0.000000
                              0.084667     0.000708    0.522626   -0.703186   -0.945516    0.000000
                              0.038921     0.000186    0.276471    0.004580   -0.062232    1.000000
    6.5 B1u   1  2pz          1.939264     1.000000
    7.5 B1u   1  2pz          7.600387     1.000000
    8.5 B1u   1  4f0          1.144322     1.000000
    9.5 B1u   1  4f2+         1.144322     1.000000
   10.5 B1u   1  4f0          4.588601     1.000000
   11.5 B1u   1  4f2+         4.588601     1.000000
   12.5 B1u   1  4f0          9.190898     1.000000
   13.5 B1u   1  4f2+         9.190898     1.000000
    1.6 B2g   1  3d1+       177.900125     0.000049   -0.000053    0.000079    0.000000
    2.6 B2g                  57.372112     0.007519   -0.008850    0.011442    0.000000
    3.6 B2g                  29.881432     0.036455   -0.041916    0.053972    0.000000
    4.6 B2g                  13.971757     0.086901   -0.104691    0.141068    0.000000
                              6.841152     0.180568   -0.219464    0.302294    0.000000
                              3.379983     0.268187   -0.283712    0.236558    0.000000
                              1.651827     0.296756   -0.122127   -0.291311    0.000000
                              0.799251     0.251558    0.190123   -0.581758    0.000000
                              0.388057     0.162319    0.376598   -0.024063    0.000000
                              0.191191     0.072119    0.295122    0.389387    0.000000
                              0.093358     0.023689    0.178252    0.430833    1.000000
    5.6 B2g   1  3d1+         2.566254     1.000000
    6.6 B2g   1  3d1+         4.627077     1.000000
    7.6 B2g   1  5g1+         2.896680     1.000000
    8.6 B2g   1  5g3+         2.896680     1.000000
    9.6 B2g   1  5g1+         7.108284     1.000000
   10.6 B2g   1  5g3+         7.108284     1.000000
    1.7 B3g   1  3d1-       177.900125     0.000049   -0.000053    0.000079    0.000000
    2.7 B3g                  57.372112     0.007519   -0.008850    0.011442    0.000000
    3.7 B3g                  29.881432     0.036455   -0.041916    0.053972    0.000000
    4.7 B3g                  13.971757     0.086901   -0.104691    0.141068    0.000000
                              6.841152     0.180568   -0.219464    0.302294    0.000000
                              3.379983     0.268187   -0.283712    0.236558    0.000000
                              1.651827     0.296756   -0.122127   -0.291311    0.000000
                              0.799251     0.251558    0.190123   -0.581758    0.000000
                              0.388057     0.162319    0.376598   -0.024063    0.000000
                              0.191191     0.072119    0.295122    0.389387    0.000000
                              0.093358     0.023689    0.178252    0.430833    1.000000
    5.7 B3g   1  3d1-         2.566254     1.000000
    6.7 B3g   1  3d1-         4.627077     1.000000
    7.7 B3g   1  5g1-         2.896680     1.000000
    8.7 B3g   1  5g3-         2.896680     1.000000
    9.7 B3g   1  5g1-         7.108284     1.000000
   10.7 B3g   1  5g3-         7.108284     1.000000
    1.8 Au    1  4f2-         1.144322     1.000000
    2.8 Au    1  4f2-         4.588601     1.000000
    3.8 Au    1  4f2-         9.190898     1.000000

 NUCLEAR CHARGE:                   18
 NUMBER OF PRIMITIVE AOS:         198
 NUMBER OF SYMMETRY AOS:          164
 NUMBER OF CONTRACTIONS:           97   (  25Ag  +  13B3u +  13B2u +  10B1g +  13B1u +  10B2g +  10B3g +   3Au  )
 NUMBER OF CORE ORBITALS:           4   (   1Ag  +   1B3u +   1B2u +   0B1g +   1B1u +   0B2g +   0B3g +   0Au  )
 NUMBER OF VALENCE ORBITALS:        6   (   3Ag  +   0B3u +   0B2u +   1B1g +   0B1u +   1B2g +   1B3g +   0Au  )


 NUCLEAR REPULSION ENERGY    0.00000000

 EXTRA SYMMETRY OF AOS IN SYMMETRY 1:   1 1 1 1 1 1 1 2 3 2   3 2 3 2 3 2 3 2 3 4   5 6 4 5 6
 EXTRA SYMMETRY OF AOS IN SYMMETRY 2:   1 1 1 1 1 1 1 2 3 2   3 2 3
 EXTRA SYMMETRY OF AOS IN SYMMETRY 3:   1 1 1 1 1 1 1 2 3 2   3 2 3
 EXTRA SYMMETRY OF AOS IN SYMMETRY 4:   1 1 1 1 1 1 2 3 2 3
 EXTRA SYMMETRY OF AOS IN SYMMETRY 5:   1 1 1 1 1 1 1 2 3 2   3 2 3
 EXTRA SYMMETRY OF AOS IN SYMMETRY 6:   1 1 1 1 1 1 2 3 2 3
 EXTRA SYMMETRY OF AOS IN SYMMETRY 7:   1 1 1 1 1 1 2 3 2 3

 Eigenvalues of metric

         1 0.328E-02 0.135E-01 0.249E-01 0.249E-01 0.417E-01 0.417E-01 0.142E+00 0.142E+00
         2 0.316E-02 0.807E-01 0.194E+00 0.194E+00 0.223E+00 0.744E+00 0.905E+00 0.905E+00
         3 0.316E-02 0.807E-01 0.194E+00 0.194E+00 0.223E+00 0.744E+00 0.905E+00 0.905E+00
         4 0.249E-01 0.417E-01 0.142E+00 0.415E+00 0.415E+00 0.108E+01 0.158E+01 0.158E+01
         5 0.316E-02 0.807E-01 0.194E+00 0.194E+00 0.223E+00 0.744E+00 0.905E+00 0.905E+00
         6 0.249E-01 0.417E-01 0.142E+00 0.415E+00 0.415E+00 0.108E+01 0.158E+01 0.158E+01
         7 0.249E-01 0.417E-01 0.142E+00 0.415E+00 0.415E+00 0.108E+01 0.158E+01 0.158E+01
         8 0.194E+00 0.905E+00 0.190E+01


 Contracted 2-electron integrals neglected if value below      1.0D-12
 AO integral compression algorithm  1   Integral accuracy      1.0D-12

     14.418 MB (compressed) written to integral file ( 65.6%)


 NUMBER OF SORTED TWO-ELECTRON INTEGRALS:    1497820.     BUFFER LENGTH:  32768
 NUMBER OF SEGMENTS:   1  SEGMENT LENGTH:    1497820      RECORD LENGTH: 524288

 Memory used in sort:       2.05 MW

 SORT1 READ     2746375. AND WROTE     1138997. INTEGRALS IN      4 RECORDS. CPU TIME:     0.07 SEC, REAL TIME:     0.12 SEC
 SORT2 READ     1138997. AND WROTE     1497820. INTEGRALS IN     55 RECORDS. CPU TIME:     0.11 SEC, REAL TIME:     0.20 SEC

 FILE SIZES:   FILE 1:    33.7 MBYTE,  FILE 4:    16.8 MBYTE,   TOTAL:     50.6 MBYTE

 OPERATOR DM      FOR CENTER  0  COORDINATES:    0.000000    0.000000    0.000000
 OPERATOR EKIN    FOR CENTER  0  COORDINATES:    0.000000    0.000000    0.000000
 OPERATOR POT     FOR CENTER  0  COORDINATES:    0.000000    0.000000    0.000000


 **********************************************************************************************************************************
 DATASETS  * FILE   NREC   LENGTH (MB)   RECORD NAMES
              1      20       26.97       500      610      700      900      950      970     1000      129      960     1100   
                                          VAR    BASINP    GEOM    SYMINP    ZMAT    AOBASIS   BASIS     P2S    ABASIS      S 
                                         1400     1410     1420     1200     1210     1080     1600     1650     1300     1700   
                                         EKIN       V       ECP      H0       H01     AOSYM     SMH    MOLCAS    ERIS     OPER   

 PROGRAMS   *        TOTAL       INT
 CPU TIMES  *         2.11      1.89
 REAL TIME  *         3.79 SEC
 DISK USED  *        50.86 MB      
 **********************************************************************************************************************************


 PROGRAM * RHF-SCF (OPEN SHELL)       Authors: W. Meyer, H.-J. Werner


 NUMBER OF ELECTRONS:      10+    8-    SPACE SYMMETRY=6    SPIN SYMMETRY: Triplet 
 CONVERGENCE THRESHOLDS:    1.00E-05 (Density)    1.00E-07 (Energy)
 MAX. NUMBER OF ITERATIONS:       60
 INTERPOLATION TYPE:            DIIS
 INTERPOLATION STEPS:              2 (START)      1 (STEP)
 LEVEL SHIFTS:                 -0.60 (CLOSED) -0.30 (OPEN) 


 Singly occupied orbitals:      1.4       1.7
 
 Extra symmetries of mos in symmetry 1:   1   1   3   2

   Atom=NI basis=ECP10MDF_GUESS    lmin=0  lmax=2

 Orbital guess generated from atomic densities. Full valence occupancy:    4   1   1   1   1   1   1   0


 Molecular orbital dump at record        4202.2

 ITERATION    DDIFF          GRAD             ENERGY        2-EL.EN.            DIPOLE MOMENTS         DIIS   ORB.
    1      0.000D+00      0.000D+00      -166.81638303    226.841588    0.00000    0.00000    0.00000    0    start
    2      0.000D+00      0.164D+00      -167.86292726    279.835363    0.00000    0.00000    0.00000    1    diag,B
    3      0.442D-01      0.131D+00      -168.43568261    265.051360    0.00000    0.00000    0.00000    2    diag,B
    4      0.158D-01      0.185D-01      -168.45706772    263.778809    0.00000    0.00000    0.00000    3    diag,B
    5      0.820D-02      0.319D-02      -168.46101815    264.244444    0.00000    0.00000    0.00000    4    diag,B
    6      0.108D-01      0.118D-02      -168.46201098    264.566218    0.00000    0.00000    0.00000    5    diag,B
    7      0.110D-01      0.507D-03      -168.46226908    264.668675    0.00000    0.00000    0.00000    6    fixocc
    8      0.790D-02      0.201D-03      -168.46230787    264.720086    0.00000    0.00000    0.00000    7    diag,B
    9      0.321D-02      0.540D-04      -168.46230933    264.730925    0.00000    0.00000    0.00000    8    diag,B
   10      0.259D-03      0.142D-04      -168.46230942    264.732077    0.00000    0.00000    0.00000    9    orth
   11      0.573D-04      0.235D-05      -168.46230942    264.732382    0.00000    0.00000    0.00000    9    diag,B
   12      0.161D-04      0.574D-06      -168.46230942    264.732485    0.00000    0.00000    0.00000    9    diag,B
   13      0.134D-05      0.215D-06      -168.46230942    264.732490    0.00000    0.00000    0.00000    0    orth

 Final alpha occupancy:   4   1   1   1   1   1   1   0
 Final beta  occupancy:   4   1   1   0   1   1   0   0

 !RHF STATE 1.6 Energy               -168.462309419316
 Nuclear energy                         0.00000000
 One-electron energy                 -300.82855440
 Two-electron energy                  132.36624498
 Virial quotient                       -1.57469379
 !RHF STATE 1.6 Dipole moment           0.00000000     0.00000000     0.00000000
 Dipole moment /Debye                   0.00000000     0.00000000     0.00000000
 

 !RHF expec          <1.6|EKIN|1.6>   106.980995648598
 
 !RHF expec           <1.6|POT|1.6>   -23.586563489981

 ELECTRON ORBITALS
 =================


   Orb  Occ    Energy  Couls-En    Coefficients

                                   1 1s      1 1s      1 1s      1 1s      1 1s      1 1s      1 1s      1 3d0     1 3d2+    1 3d0  
                                   1 3d2+    1 3d0     1 3d2+    1 3d0     1 3d2+    1 3d0     1 3d2+    1 3d0     1 3d2+    1 5g0  
                                   1 5g4+    1 5g2+    1 5g0     1 5g4+    1 5g2+ 

   1.1   2    -5.0536  -26.4332  0.999903  0.000028  0.000009  0.000018 -0.000018  0.000120 -0.000055 -0.001969 -0.003410  0.000935
                                 0.001620 -0.000062 -0.000108 -0.000153 -0.000265 -0.000906 -0.001569 -0.000222 -0.000384  0.000289
                                 0.000570  0.000431  0.000064  0.000127  0.000096

   2.1   2    -0.2813   -7.0840 -0.000001  0.999976  0.000167 -0.000070 -0.000065  0.000026 -0.000013 -0.000754 -0.001306 -0.005384
                                -0.009326 -0.001671 -0.002895 -0.000616 -0.001068  0.000027  0.000047  0.000051  0.000089  0.000048
                                 0.000095  0.000072  0.000005  0.000010  0.000008

   3.1   2    -0.7033  -16.6655  0.005809  0.001040  0.000621  0.000218 -0.000019  0.000382 -0.000197  0.500559  0.866994 -0.018649
                                -0.032302 -0.006163 -0.010675 -0.001416 -0.002452 -0.001112 -0.001926  0.000106  0.000183 -0.000870
                                -0.001717 -0.001298 -0.000174 -0.000343 -0.000259

   4.1   2    -0.6436  -16.4977 -0.000000 -0.000000  0.000000 -0.000000  0.000000  0.000000 -0.000000  0.868293 -0.501309 -0.017805
                                 0.010280 -0.006083  0.003512 -0.004417  0.002550 -0.001889  0.001091 -0.000148  0.000085 -0.000521
                                 0.000617 -0.000466 -0.000099  0.000117 -0.000088

   5.1   0     0.0779   -2.9361  0.535856  2.596686 -0.697814  0.269803 -3.124936 -0.117469  0.130737 -0.000385 -0.000668 -0.003239
                                -0.005610 -0.000885 -0.001532 -0.000052 -0.000089  0.000023  0.000040  0.000057  0.000099 -0.000033
                                -0.000066 -0.000050  0.000048  0.000094  0.000071

   6.1   0     0.2704   -3.8995  0.004913  0.032118 -0.010853  0.003765 -0.027440 -0.002603  0.001907 -0.097065 -0.168121 -0.106465
                                -0.184402 -0.077462 -0.134168  0.622184  1.077654 -0.043664 -0.075628  0.013607  0.023568  0.000068
                                 0.000134  0.000101  0.000024  0.000047  0.000035

                                   1 2px     1 2px     1 2px     1 2px     1 2px     1 2px     1 2px     1 4f1+    1 4f3+    1 4f1+ 
                                   1 4f3+    1 4f1+    1 4f3+ 

   1.2   2    -3.3148  -22.8023  1.005446  0.014440  0.012772 -0.000821 -0.004079 -0.005788  0.000995  0.000595  0.002304  0.000106
                                 0.000411  0.000112  0.000434

   2.2   0     0.0459   -3.9327 -0.122608  0.138237  0.047064  0.040911  0.918046  0.066555 -0.009731 -0.000173 -0.000670  0.000126
                                 0.000490 -0.000009 -0.000033

   3.2   0     0.2217   -4.5858  0.430541  1.996247 -0.331077 -0.233068 -1.997930 -0.346684  0.047930 -0.000347 -0.001343  0.000227
                                 0.000878 -0.000016 -0.000063

                                   1 2py     1 2py     1 2py     1 2py     1 2py     1 2py     1 2py     1 4f1-    1 4f3-    1 4f1- 
                                   1 4f3-    1 4f1-    1 4f3- 

   1.3   2    -3.3240  -22.8212  1.003634  0.011825  0.010997 -0.000974 -0.003379 -0.003715  0.000440 -0.004621 -0.005965 -0.003109
                                -0.004014 -0.000369 -0.000476

   2.3   0     0.0418   -4.0382 -0.114167  0.192850  0.044195  0.038051  0.866670  0.061589 -0.009000 -0.000289 -0.000373  0.000093
                                 0.000120 -0.000014 -0.000019

   3.3   0     0.2138   -4.5502 -0.423935 -1.987652  0.318044  0.225607  2.010940  0.336819 -0.046693  0.000481  0.000621 -0.000154
                                -0.000199  0.000023  0.000029

                                   1 3d2-    1 3d2-    1 3d2-    1 3d2-    1 3d2-    1 3d2-    1 5g2-    1 5g4-    1 5g2-    1 5g4- 


   1.4   +    -0.7690  -16.8585  0.997465 -0.057733 -0.018233  0.001287 -0.000795  0.000636 -0.000800 -0.002118 -0.000165 -0.000436

   2.4   0     0.2694   -3.8837 -0.181924 -0.207594 -0.152643  1.239532 -0.086713  0.026986  0.000086  0.000227  0.000032  0.000083

   3.4   0     1.0035   -5.8677  0.107612  1.834585  1.066987 -1.688168  0.492722 -0.124596  0.000196  0.000519  0.000110  0.000291

                                   1 2pz     1 2pz     1 2pz     1 2pz     1 2pz     1 2pz     1 2pz     1 4f0     1 4f2+    1 4f0  
                                   1 4f2+    1 4f0     1 4f2+ 

   1.5   2    -3.3148  -22.8023  1.005446  0.014440  0.012772 -0.000821 -0.004079 -0.005788  0.000995  0.001457  0.001881  0.000260
                                 0.000336  0.000274  0.000354

   2.5   0     0.0459   -3.9327 -0.122608  0.138237  0.047064  0.040911  0.918046  0.066555 -0.009731 -0.000424 -0.000547  0.000310
                                 0.000400 -0.000021 -0.000027

   3.5   0     0.2217   -4.5858  0.430541  1.996247 -0.331077 -0.233068 -1.997930 -0.346684  0.047930 -0.000850 -0.001097  0.000556
                                 0.000717 -0.000040 -0.000051

                                   1 3d1+    1 3d1+    1 3d1+    1 3d1+    1 3d1+    1 3d1+    1 5g1+    1 5g3+    1 5g1+    1 5g3+ 


   1.6   2    -0.6436  -16.4977  1.002619 -0.020560 -0.007024 -0.005100 -0.002182 -0.000170 -0.000330 -0.000872 -0.000062 -0.000165

   2.6   0     0.2736   -3.9065 -0.205406 -0.222422 -0.159783  1.253044 -0.089285  0.027772  0.000152  0.000402  0.000052  0.000137

   3.6   0     1.0258   -5.9718  0.074559  1.839066  1.078980 -1.687177  0.502829 -0.127238  0.000336  0.000890  0.000172  0.000456

                                   1 3d1-    1 3d1-    1 3d1-    1 3d1-    1 3d1-    1 3d1-    1 5g1-    1 5g3-    1 5g1-    1 5g3- 


   1.7   +    -0.7690  -16.8585  0.997465 -0.057733 -0.018233  0.001287 -0.000795  0.000636 -0.001698 -0.001498 -0.000350 -0.000309

   2.7   0     0.2694   -3.8837 -0.181924 -0.207594 -0.152643  1.239532 -0.086713  0.026986  0.000182  0.000161  0.000067  0.000059

   3.7   0     1.0035   -5.8677  0.107612  1.834585  1.066987 -1.688168  0.492722 -0.124596  0.000416  0.000367  0.000234  0.000206

                                   1 4f2-    1 4f2-    1 4f2- 

   1.8   0     3.3981   -5.6203  0.991289  0.010807  0.032175

   2.8   0    12.6676    7.2341 -0.448238  1.181945 -0.134689

 HOMO      4.1    -0.643556 =     -17.5120eV
 LUMO      2.3     0.041758 =       1.1363eV
 LUMO-HOMO         0.685314 =      18.6483eV


 **********************************************************************************************************************************
 DATASETS  * FILE   NREC   LENGTH (MB)   RECORD NAMES
              1      20       26.97       500      610      700      900      950      970     1000      129      960     1100   
                                          VAR    BASINP    GEOM    SYMINP    ZMAT    AOBASIS   BASIS     P2S    ABASIS      S 
                                         1400     1410     1420     1200     1210     1080     1600     1650     1300     1700   
                                         EKIN       V       ECP      H0       H01     AOSYM     SMH    MOLCAS    ERIS     OPER   

              2       4        2.81       700     1000      520     4202   
                                         GEOM     BASIS   MCVARS     RHF  

 PROGRAMS   *        TOTAL       RHF       INT
 CPU TIMES  *         2.31      0.20      1.89
 REAL TIME  *         4.20 SEC
 DISK USED  *        50.86 MB      
 **********************************************************************************************************************************


 PROGRAM * POP (Mulliken population analysis)

 
 Density matrix read from record         4202.2  Type=RHF/CHARGE (state 1.6)
 
 Population analysis by basis function type

 Unique atom        s        p        d        f        g    Total    Charge
   1  NI      3.99968  5.99974  8.00028  0.00026  0.00003 18.00000  + 0.00000


 **********************************************************************************************************************************
 DATASETS  * FILE   NREC   LENGTH (MB)   RECORD NAMES
              1      20       26.97       500      610      700      900      950      970     1000      129      960     1100   
                                          VAR    BASINP    GEOM    SYMINP    ZMAT    AOBASIS   BASIS     P2S    ABASIS      S 
                                         1400     1410     1420     1200     1210     1080     1600     1650     1300     1700   
                                         EKIN       V       ECP      H0       H01     AOSYM     SMH    MOLCAS    ERIS     OPER   

              2       4        2.81       700     1000      520     4202   
                                         GEOM     BASIS   MCVARS     RHF  

 PROGRAMS   *        TOTAL       POP       RHF       INT
 CPU TIMES  *         2.32      0.00      0.20      1.89
 REAL TIME  *         4.22 SEC
 DISK USED  *        50.86 MB      
 **********************************************************************************************************************************


 PROGRAM * MULTI (Direct Multiconfiguration SCF)       Authors: P.J. Knowles, H.-J. Werner (1984)     S.T. Elbert (1988)


 Number of closed-shell orbitals:   5 (   2   1   1   0   1   0   0   0 )
 Number of active  orbitals:        5 (   2   0   0   1   0   1   1   0 )
 Number of external orbitals:      87 (  21  12  12   9  12   9   9   3 )

 State symmetry 1

 Number of electrons:     8    Spin symmetry=Triplet   Space symmetry=1
 Number of states:        1
 Number of CSFs:          1   (1 determinants, 10 intermediate states)

 State symmetry 2

 Number of electrons:     8    Spin symmetry=Triplet   Space symmetry=4
 Number of states:        3
 Number of CSFs:          3   (3 determinants, 10 intermediate states)

 State symmetry 3

 Number of electrons:     8    Spin symmetry=Triplet   Space symmetry=6
 Number of states:        3
 Number of CSFs:          3   (3 determinants, 10 intermediate states)

 State symmetry 4

 Number of electrons:     8    Spin symmetry=Triplet   Space symmetry=7
 Number of states:        3
 Number of CSFs:          3   (3 determinants, 10 intermediate states)

 Molecular orbitals read from record     4202.2  Type=RHF/CANONICAL (state 1.6)
 *** IN SYMMETRY 1 ORBITAL  1 SYMMETRY CONTAMINATION OF 0.130D-01 HAS BEEN REMOVED
 *** IN SYMMETRY 1 ORBITAL  2 SYMMETRY CONTAMINATION OF 0.229D-01 HAS BEEN REMOVED
 *** IN SYMMETRY 1 ORBITAL  3 SYMMETRY CONTAMINATION OF 0.372D+00 HAS BEEN REMOVED
 *** IN SYMMETRY 1 ORBITAL  4 SYMMETRY CONTAMINATION OF 0.367D+00 HAS BEEN REMOVED

 EXTRA SYMMETRY OF MOS IN SYMMETRY 1:   1 1 3 2 1 3 2 1 3 2   1 3 2 1 3 2 5 6 4 3   2 5 6 4 1
 *** IN SYMMETRY 2 ORBITAL  1 SYMMETRY CONTAMINATION OF 0.378D-02 HAS BEEN REMOVED
 EXTRA SYMMETRY OF MOS IN SYMMETRY 2:   1 1 1 1 3 2 1 3 2 1   3 2 1
 *** IN SYMMETRY 3 ORBITAL  1 SYMMETRY CONTAMINATION OF 0.176D-01 HAS BEEN REMOVED
 EXTRA SYMMETRY OF MOS IN SYMMETRY 3:   1 1 1 1 2 3 1 2 3 1   2 3 1
 *** IN SYMMETRY 4 ORBITAL  1 SYMMETRY CONTAMINATION OF 0.326D-02 HAS BEEN REMOVED
 EXTRA SYMMETRY OF MOS IN SYMMETRY 4:   1 1 1 1 1 3 2 1 3 2
 *** IN SYMMETRY 5 ORBITAL  1 SYMMETRY CONTAMINATION OF 0.435D-02 HAS BEEN REMOVED
 EXTRA SYMMETRY OF MOS IN SYMMETRY 5:   1 1 1 1 3 2 1 3 2 1   3 2 1
 *** IN SYMMETRY 6 ORBITAL  1 SYMMETRY CONTAMINATION OF 0.138D-02 HAS BEEN REMOVED
 EXTRA SYMMETRY OF MOS IN SYMMETRY 6:   1 1 1 1 1 3 2 1 3 2
 *** IN SYMMETRY 7 ORBITAL  1 SYMMETRY CONTAMINATION OF 0.357D-02 HAS BEEN REMOVED
 EXTRA SYMMETRY OF MOS IN SYMMETRY 7:   1 1 1 1 1 2 3 1 2 3

 Wavefunction dump at record             5202.2

 Convergence thresholds  0.10E-01 (gradient)  0.10E-05 (energy)  0.10E-02 (step length)

 Weight factors for state symmetry  1:    0.10000
 Weight factors for state symmetry  2:    0.10000   0.10000   0.10000
 Weight factors for state symmetry  3:    0.10000   0.10000   0.10000
 Weight factors for state symmetry  4:    0.10000   0.10000   0.10000

 Number of orbital rotations:      151   (     4 Core/Active     78 Core/Virtual   0 Active/Active     69 Active/Virtual)
 Total number of variables:        179


 ITER. MIC  NCI  NEG     ENERGY(VAR)     ENERGY(PROJ)   ENERGY CHANGE     GRAD(0)  GRAD(ORB)   GRAD(CI)     STEP       TIME

   1   31   16    0    -168.44636743    -168.44882755   -0.00246012    0.09123881 0.00000000 0.00000000  0.37D-01      0.06
   2   25   20    0    -168.44883491    -168.44883513   -0.00000022    0.00083556 0.00000000 0.00000000  0.49D-03      0.11
   3   76   48    0    -168.44883513    -168.44883513    0.00000000    0.00000011 0.00000000 0.00000000  0.74D-07      0.21

 ** WVFN ****  CONVERGENCE REACHED, FINAL GRADIENT:  0.22D-12



 Results for state 1.1
 =====================

 !MCSCF STATE 1.1 Energy             -168.475266959455
 Nuclear energy                         0.00000000
 Kinetic energy                       106.95633821
 One electron energy                 -300.82430771
 Two electron energy                  132.34904075
 Virial ratio                           2.57517796

 !MCSCF STATE 1.1 Dipole moment         0.00000000     0.00000000     0.00000000
 Dipole moment /Debye                   0.00000000     0.00000000     0.00000000



 Results for state 1.4
 =====================

 !MCSCF STATE 1.4 Energy             -168.475266959455
 Nuclear energy                         0.00000000
 Kinetic energy                       106.95633821
 One electron energy                 -300.82430771
 Two electron energy                  132.34904075
 Virial ratio                           2.57517796

 !MCSCF STATE 1.4 Dipole moment         0.00000000     0.00000000     0.00000000
 Dipole moment /Debye                   0.00000000     0.00000000     0.00000000

 Results for state 2.4
 =====================

 !MCSCF STATE 2.4 Energy             -168.475266959455
 Nuclear energy                         0.00000000
 Kinetic energy                       106.95633821
 One electron energy                 -300.82430771
 Two electron energy                  132.34904075
 Virial ratio                           2.57517796

 !MCSCF STATE 2.4 Dipole moment         0.00000000     0.00000000     0.00000000
 Dipole moment /Debye                   0.00000000     0.00000000     0.00000000

 Results for state 3.4
 =====================

 !MCSCF STATE 3.4 Energy             -168.387160847293
 Nuclear energy                         0.00000000
 Kinetic energy                       106.95633821
 One electron energy                 -300.82430771
 Two electron energy                  132.43714686
 Virial ratio                           2.57435421

 !MCSCF STATE 3.4 Dipole moment         0.00000000     0.00000000     0.00000000
 Dipole moment /Debye                   0.00000000     0.00000000     0.00000000



 Results for state 1.6
 =====================

 !MCSCF STATE 1.6 Energy             -168.475266959455
 Nuclear energy                         0.00000000
 Kinetic energy                       106.95633821
 One electron energy                 -300.82430771
 Two electron energy                  132.34904075
 Virial ratio                           2.57517796

 !MCSCF STATE 1.6 Dipole moment         0.00000000     0.00000000     0.00000000
 Dipole moment /Debye                   0.00000000     0.00000000     0.00000000

 Results for state 2.6
 =====================

 !MCSCF STATE 2.6 Energy             -168.475266959455
 Nuclear energy                         0.00000000
 Kinetic energy                       106.95633821
 One electron energy                 -300.82430771
 Two electron energy                  132.34904075
 Virial ratio                           2.57517796

 !MCSCF STATE 2.6 Dipole moment         0.00000000     0.00000000     0.00000000
 Dipole moment /Debye                   0.00000000     0.00000000     0.00000000

 Results for state 3.6
 =====================

 !MCSCF STATE 3.6 Energy             -168.387160847293
 Nuclear energy                         0.00000000
 Kinetic energy                       106.95633821
 One electron energy                 -300.82430771
 Two electron energy                  132.43714686
 Virial ratio                           2.57435421

 !MCSCF STATE 3.6 Dipole moment         0.00000000     0.00000000     0.00000000
 Dipole moment /Debye                   0.00000000     0.00000000     0.00000000



 Results for state 1.7
 =====================

 !MCSCF STATE 1.7 Energy             -168.475266959455
 Nuclear energy                         0.00000000
 Kinetic energy                       106.95633821
 One electron energy                 -300.82430771
 Two electron energy                  132.34904075
 Virial ratio                           2.57517796

 !MCSCF STATE 1.7 Dipole moment         0.00000000     0.00000000     0.00000000
 Dipole moment /Debye                   0.00000000     0.00000000     0.00000000

 Results for state 2.7
 =====================

 !MCSCF STATE 2.7 Energy             -168.475266959455
 Nuclear energy                         0.00000000
 Kinetic energy                       106.95633821
 One electron energy                 -300.82430771
 Two electron energy                  132.34904075
 Virial ratio                           2.57517796

 !MCSCF STATE 2.7 Dipole moment         0.00000000     0.00000000     0.00000000
 Dipole moment /Debye                   0.00000000     0.00000000     0.00000000

 Results for state 3.7
 =====================

 !MCSCF STATE 3.7 Energy             -168.387160847293
 Nuclear energy                         0.00000000
 Kinetic energy                       106.95633821
 One electron energy                 -300.82430771
 Two electron energy                  132.43714686
 Virial ratio                           2.57435421

 !MCSCF STATE 3.7 Dipole moment         0.00000000     0.00000000     0.00000000
 Dipole moment /Debye                   0.00000000     0.00000000     0.00000000

 State-averaged charge density matrix saved on record  5202.2 (density set 1)

 !MCSCF expec        <1.1|EKIN|1.1>   106.956338208959
 !MCSCF expec        <1.4|EKIN|1.4>   106.956338208959
 !MCSCF expec        <2.4|EKIN|2.4>   106.956338208959
 !MCSCF expec        <3.4|EKIN|3.4>   106.956338208959
 !MCSCF expec        <1.6|EKIN|1.6>   106.956338208959
 !MCSCF expec        <2.6|EKIN|2.6>   106.956338208959
 !MCSCF expec        <3.6|EKIN|3.6>   106.956338208959
 !MCSCF expec        <1.7|EKIN|1.7>   106.956338208959
 !MCSCF expec        <2.7|EKIN|2.7>   106.956338208959
 !MCSCF expec        <3.7|EKIN|3.7>   106.956338208959

 !MCSCF expec         <1.1|POT|1.1>   -23.585136671187
 !MCSCF expec         <1.4|POT|1.4>   -23.585136671187
 !MCSCF expec         <2.4|POT|2.4>   -23.585136671187
 !MCSCF expec         <3.4|POT|3.4>   -23.585136671187
 !MCSCF expec         <1.6|POT|1.6>   -23.585136671187
 !MCSCF expec         <2.6|POT|2.6>   -23.585136671187
 !MCSCF expec         <3.6|POT|3.6>   -23.585136671187
 !MCSCF expec         <1.7|POT|1.7>   -23.585136671187
 !MCSCF expec         <2.7|POT|2.7>   -23.585136671187
 !MCSCF expec         <3.7|POT|3.7>   -23.585136671187


 NATURAL ORBITALS (state averaged)
 =================================

   Orb     Occ        Energy       Coefficients

                                   1 1s      1 1s      1 1s      1 1s      1 1s      1 1s      1 1s      1 3d0     1 3d2+    1 3d0  
                                   1 3d2+    1 3d0     1 3d2+    1 3d0     1 3d2+    1 3d0     1 3d2+    1 3d0     1 3d2+    1 5g0  
                                   1 5g4+    1 5g2+    1 5g0     1 5g4+    1 5g2+ 

   1.1  2.00000    -5.054108     0.999968 -0.000012  0.000005 -0.000007  0.000015  0.000045 -0.000020  0.000000  0.000000  0.000000
                                 0.000000  0.000000  0.000000  0.000000  0.000000  0.000000  0.000000  0.000000  0.000000  0.000000
                                 0.000000  0.000000  0.000000  0.000000  0.000000

   2.1  2.00000    -0.281231    -0.000012  1.000006  0.000024 -0.000014 -0.000008  0.000021 -0.000012  0.000000  0.000000  0.000000
                                 0.000000  0.000000  0.000000  0.000000  0.000000  0.000000  0.000000  0.000000  0.000000  0.000000
                                 0.000000  0.000000  0.000000  0.000000  0.000000

   3.1  1.60000    -0.492019     0.000000  0.000000  0.000000  0.000000  0.000000  0.000000  0.000000  0.000000  1.001298  0.000000
                                -0.033591  0.000000 -0.011091  0.000000 -0.003294  0.000000 -0.001992  0.000000  0.000112  0.000000
                                 0.000000  0.000000  0.000000  0.000000  0.000000

   4.1  1.60000    -0.492019     0.000000  0.000000  0.000000  0.000000  0.000000  0.000000  0.000000  1.001298  0.000000 -0.033591
                                 0.000000 -0.011091  0.000000 -0.003294  0.000000 -0.001992  0.000000  0.000112  0.000000  0.000000
                                 0.000000  0.000000  0.000000  0.000000  0.000000

                                   1 2px     1 2px     1 2px     1 2px     1 2px     1 2px     1 2px     1 4f1+    1 4f3+    1 4f1+ 
                                   1 4f3+    1 4f1+    1 4f3+ 

   1.2  2.00000    -3.318168     1.004878  0.013526  0.012140 -0.000858 -0.003831 -0.005113  0.000811  0.000000  0.000000  0.000000
                                 0.000000  0.000000  0.000000

                                   1 2py     1 2py     1 2py     1 2py     1 2py     1 2py     1 2py     1 4f1-    1 4f3-    1 4f1- 
                                   1 4f3-    1 4f1-    1 4f3- 

   1.3  2.00000    -3.318168     1.004878  0.013526  0.012140 -0.000858 -0.003831 -0.005113  0.000811  0.000000  0.000000  0.000000
                                 0.000000  0.000000  0.000000

                                   1 3d2-    1 3d2-    1 3d2-    1 3d2-    1 3d2-    1 3d2-    1 5g2-    1 5g4-    1 5g2-    1 5g4- 


   1.4  1.60000    -0.492019     1.001298 -0.033591 -0.011091 -0.003294 -0.001992  0.000112  0.000000  0.000000  0.000000  0.000000

                                   1 2pz     1 2pz     1 2pz     1 2pz     1 2pz     1 2pz     1 2pz     1 4f0     1 4f2+    1 4f0  
                                   1 4f2+    1 4f0     1 4f2+ 

   1.5  2.00000    -3.318168     1.004878  0.013526  0.012140 -0.000858 -0.003831 -0.005113  0.000811  0.000000  0.000000  0.000000
                                 0.000000  0.000000  0.000000

                                   1 3d1+    1 3d1+    1 3d1+    1 3d1+    1 3d1+    1 3d1+    1 5g1+    1 5g3+    1 5g1+    1 5g3+ 


   1.6  1.60000    -0.492019     1.001298 -0.033591 -0.011091 -0.003294 -0.001992  0.000112  0.000000  0.000000  0.000000  0.000000

                                   1 3d1-    1 3d1-    1 3d1-    1 3d1-    1 3d1-    1 3d1-    1 5g1-    1 5g3-    1 5g1-    1 5g3- 


   1.7  1.60000    -0.492019     1.001298 -0.033591 -0.011091 -0.003294 -0.001992  0.000112  0.000000  0.000000  0.000000  0.000000
 

 EXTRA SYMMETRY OF MOS IN SYMMETRY 1:   1 1 3 2 1 3 2 1 3 2   1 3 2 1 3 2 6 4 5 3   2 6 4 5 1
 EXTRA SYMMETRY OF MOS IN SYMMETRY 2:   1 1 1 1 3 2 1 3 2 1   2 3 1
 EXTRA SYMMETRY OF MOS IN SYMMETRY 3:   1 1 1 1 3 2 1 3 2 1   3 2 1
 EXTRA SYMMETRY OF MOS IN SYMMETRY 4:   1 1 1 1 1 2 3 1 3 2
 EXTRA SYMMETRY OF MOS IN SYMMETRY 5:   1 1 1 1 3 2 1 2 3 1   2 3 1
 EXTRA SYMMETRY OF MOS IN SYMMETRY 6:   1 1 1 1 1 3 2 1 2 3
 EXTRA SYMMETRY OF MOS IN SYMMETRY 7:   1 1 1 1 1 3 2 1 2 3

 Natural orbital dump (state averaged) at molpro section  5202.2    (Orbital set 2)


 CI vector for state symmetry 1
 ==============================

 aa 2 2 2          1.0000000

 TOTAL ENERGIES                      -168.47526696

 CI vector for state symmetry 2
 ==============================

 2a a 2 2          0.0000000   1.0000000   0.0000000
 a2 a 2 2         -0.4472136   0.0000000   0.8944272
 22 2 a a          0.8944272   0.0000000   0.4472136

 TOTAL ENERGIES                      -168.47526696  -168.47526696  -168.38716085

 CI vector for state symmetry 3
 ==============================

 2a 2 a 2          0.6283749   0.0717287   0.7745967
 22 a 2 a          0.4639934   0.7646634  -0.4472136
 a2 2 a 2          0.6243838  -0.6404256  -0.4472136

 TOTAL ENERGIES                      -168.47526696  -168.47526696  -168.38716085

 CI vector for state symmetry 4
 ==============================

 22 a a 2         -0.4344037   0.7818525  -0.4472136
 2a 2 2 a         -0.6251712   0.0957130   0.7745967
 a2 2 2 a          0.6484245   0.6160727   0.4472136

 TOTAL ENERGIES                      -168.47526696  -168.47526696  -168.38716085



 **********************************************************************************************************************************
 DATASETS  * FILE   NREC   LENGTH (MB)   RECORD NAMES
              1      21       27.82       500      610      700      900      950      970     1000      129      960     1100   
                                          VAR    BASINP    GEOM    SYMINP    ZMAT    AOBASIS   BASIS     P2S    ABASIS      S 
                                         1400     1410     1420     1200     1210     1080     1600     1650     1300     1700   
                                         EKIN       V       ECP      H0       H01     AOSYM     SMH    MOLCAS    ERIS     OPER   
                                         1380   
                                         JKOP   

              2       5        5.35       700     1000      520     4202     5202   
                                         GEOM     BASIS   MCVARS     RHF     MCSCF   

 PROGRAMS   *        TOTAL     MULTI       POP       RHF       INT
 CPU TIMES  *         2.60      0.29      0.00      0.20      1.89
 REAL TIME  *         5.97 SEC
 DISK USED  *        50.86 MB      
 **********************************************************************************************************************************


 PROGRAM * RHF-SCF (OPEN SHELL)       Authors: W. Meyer, H.-J. Werner


 NUMBER OF ELECTRONS:      10+    8-    SPACE SYMMETRY=1    SPIN SYMMETRY: Triplet 
 CONVERGENCE THRESHOLDS:    1.00E-05 (Density)    1.00E-07 (Energy)
 MAX. NUMBER OF ITERATIONS:        0
 INTERPOLATION TYPE:            DIIS
 INTERPOLATION STEPS:              2 (START)      1 (STEP)
 LEVEL SHIFTS:                 -0.60 (CLOSED) -0.30 (OPEN) 


 Singly occupied orbitals:      3.1       4.1
 Molecular orbitals read from record     5202.2  Type=MCSCF/NATURAL (state averaged)

 Molecular orbital dump at record        2101.2

 ITERATION    DDIFF          GRAD             ENERGY        2-EL.EN.            DIPOLE MOMENTS         DIIS   ORB.
    1      0.000D+00      0.000D+00      -168.47526696    264.698081    0.00000    0.00000    0.00000    0    start

 Final alpha occupancy:   4   1   1   1   1   1   1   0
 Final beta  occupancy:   2   1   1   1   1   1   1   0

 !RHF STATE 1.1 Energy               -168.475266959455
 Nuclear energy                         0.00000000
 One-electron energy                 -300.82430771
 Two-electron energy                  132.34904075
 Virial quotient                       -1.57517796
 !RHF STATE 1.1 Dipole moment           0.00000000     0.00000000     0.00000000
 Dipole moment /Debye                   0.00000000     0.00000000     0.00000000
 

 !RHF expec          <1.1|EKIN|1.1>   106.956338208959
 
 !RHF expec           <1.1|POT|1.1>   -23.585136671187

 ELECTRON ORBITALS
 =================


   Orb  Occ    Energy  Couls-En    Coefficients

                                   1 1s      1 1s      1 1s      1 1s      1 1s      1 1s      1 1s      1 3d0     1 3d2+    1 3d0  
                                   1 3d2+    1 3d0     1 3d2+    1 3d0     1 3d2+    1 3d0     1 3d2+    1 3d0     1 3d2+    1 5g0  
                                   1 5g4+    1 5g2+    1 5g0     1 5g4+    1 5g2+ 

   1.1   2    -5.0541  -26.4340  0.999968 -0.000012  0.000005 -0.000007  0.000015  0.000045 -0.000020  0.000000  0.000000  0.000000
                                 0.000000  0.000000  0.000000  0.000000  0.000000  0.000000  0.000000  0.000000  0.000000  0.000000
                                 0.000000  0.000000  0.000000  0.000000  0.000000

   2.1   2    -0.2812   -7.0831 -0.000012  1.000006  0.000024 -0.000014 -0.000008  0.000021 -0.000012  0.000000  0.000000  0.000000
                                 0.000000  0.000000  0.000000  0.000000  0.000000  0.000000  0.000000  0.000000  0.000000  0.000000
                                 0.000000  0.000000  0.000000  0.000000  0.000000

   3.1   +    -0.4920  -16.4310  0.000000  0.000000  0.000000  0.000000  0.000000  0.000000  0.000000  0.000000  1.001298  0.000000
                                -0.033591  0.000000 -0.011091  0.000000 -0.003294  0.000000 -0.001992  0.000000  0.000112  0.000000
                                 0.000000  0.000000  0.000000  0.000000  0.000000

   4.1   +    -0.4920  -16.4310  0.000000  0.000000  0.000000  0.000000  0.000000  0.000000  0.000000  1.001298  0.000000 -0.033591
                                 0.000000 -0.011091  0.000000 -0.003294  0.000000 -0.001992  0.000000  0.000112  0.000000  0.000000
                                 0.000000  0.000000  0.000000  0.000000  0.000000

                                   1 2px     1 2px     1 2px     1 2px     1 2px     1 2px     1 2px     1 4f1+    1 4f3+    1 4f1+ 
                                   1 4f3+    1 4f1+    1 4f3+ 

   1.2   2    -3.3182  -22.8096  1.004878  0.013526  0.012140 -0.000858 -0.003831 -0.005113  0.000811  0.000000  0.000000  0.000000
                                 0.000000  0.000000  0.000000

                                   1 2py     1 2py     1 2py     1 2py     1 2py     1 2py     1 2py     1 4f1-    1 4f3-    1 4f1- 
                                   1 4f3-    1 4f1-    1 4f3- 

   1.3   2    -3.3182  -22.8096  1.004878  0.013526  0.012140 -0.000858 -0.003831 -0.005113  0.000811  0.000000  0.000000  0.000000
                                 0.000000  0.000000  0.000000

                                   1 3d2-    1 3d2-    1 3d2-    1 3d2-    1 3d2-    1 3d2-    1 5g2-    1 5g4-    1 5g2-    1 5g4- 


   1.4   2    -0.4920  -16.4310  1.001298 -0.033591 -0.011091 -0.003294 -0.001992  0.000112  0.000000  0.000000  0.000000  0.000000

                                   1 2pz     1 2pz     1 2pz     1 2pz     1 2pz     1 2pz     1 2pz     1 4f0     1 4f2+    1 4f0  
                                   1 4f2+    1 4f0     1 4f2+ 

   1.5   2    -3.3182  -22.8096  1.004878  0.013526  0.012140 -0.000858 -0.003831 -0.005113  0.000811  0.000000  0.000000  0.000000
                                 0.000000  0.000000  0.000000

                                   1 3d1+    1 3d1+    1 3d1+    1 3d1+    1 3d1+    1 3d1+    1 5g1+    1 5g3+    1 5g1+    1 5g3+ 


   1.6   2    -0.4920  -16.4310  1.001298 -0.033591 -0.011091 -0.003294 -0.001992  0.000112  0.000000  0.000000  0.000000  0.000000

                                   1 3d1-    1 3d1-    1 3d1-    1 3d1-    1 3d1-    1 3d1-    1 5g1-    1 5g3-    1 5g1-    1 5g3- 


   1.7   2    -0.4920  -16.4310  1.001298 -0.033591 -0.011091 -0.003294 -0.001992  0.000112  0.000000  0.000000  0.000000  0.000000

 HOMO      4.1    -0.492019 =     -13.3885eV
 LUMO      2.2     0.045948 =       1.2503eV
 LUMO-HOMO         0.537968 =      14.6388eV


 **********************************************************************************************************************************
 DATASETS  * FILE   NREC   LENGTH (MB)   RECORD NAMES
              1      21       27.82       500      610      700      900      950      970     1000      129      960     1100   
                                          VAR    BASINP    GEOM    SYMINP    ZMAT    AOBASIS   BASIS     P2S    ABASIS      S 
                                         1400     1410     1420     1200     1210     1080     1600     1650     1300     1700   
                                         EKIN       V       ECP      H0       H01     AOSYM     SMH    MOLCAS    ERIS     OPER   
                                         1380   
                                         JKOP   

              2       6        7.96       700     1000      520     4202     5202     2101   
                                         GEOM     BASIS   MCVARS     RHF     MCSCF     RHF  

 PROGRAMS   *        TOTAL       RHF     MULTI       POP       RHF       INT
 CPU TIMES  *         2.64      0.04      0.29      0.00      0.20      1.89
 REAL TIME  *         6.17 SEC
 DISK USED  *        50.86 MB      
 **********************************************************************************************************************************
 SETTING SCF(I)         =      -168.47526696  AU                              
 SETTING _CC_NORM_MAX   =         2.00000000                                  


 PROGRAM * CCSD (Restricted open-shell coupled cluster)     Authors: C. Hampel, H.-J. Werner, 1991, M. Deegan, P.J. Knowles, 1992


 Convergence thresholds:  THRVAR = 1.00D-08  THRDEN = 1.00D-06

 CCSD(T)     terms to be evaluated (factor= 1.000)


 Number of closed-shell orbitals:   8 (   2   1   1   1   1   1   1   0 )
 Number of active  orbitals:        2 (   2   0   0   0   0   0   0   0 )
 Number of external orbitals:      87 (  21  12  12   9  12   9   9   3 )

 Memory could be reduced to 2.24 Mwords without degradation in triples

 Number of N-1 electron functions:              18
 Number of N-2 electron functions:             153
 Number of singly external CSFs:               264
 Number of doubly external CSFs:            116820
 Total number of CSFs:                      117084

 Molecular orbitals read from record     2101.2  Type=RHF/CANONICAL (state 1.1)

 Integral transformation finished. Total CPU:   0.04 sec, npass=  1  Memory used:   0.46 MW

 Starting RMP2 calculation

 Wavefunction is spin-projected

 ITER.      SQ.NORM     CORR.ENERGY   TOTAL ENERGY   ENERGY CHANGE        DEN1      VAR(S)    VAR(P)  DIIS     TIME
   1      1.10486773    -0.80368629  -169.27895325    -0.80368629    -0.00122595  0.38D-05  0.74D-03  1  1     0.07
   2      1.10674956    -0.80498285  -169.28024981    -0.00129656    -0.00001579  0.99D-07  0.16D-04  2  2     0.08
   3      1.10704603    -0.80510092  -169.28036788    -0.00011807    -0.00000007  0.11D-07  0.54D-07  3  3     0.09
   4      1.10705612    -0.80510306  -169.28037002    -0.00000214    -0.00000000  0.78D-09  0.63D-09  4  4     0.10
   5      1.10705629    -0.80510304  -169.28037000     0.00000003    -0.00000000  0.68D-11  0.15D-10  5  5     0.11

 Norm of t1 vector:      0.03696186      S-energy:    -0.00828458      T1 diagnostic:  0.00408694
 Norm of t2 vector:      0.32510015      P-energy:    -0.79681846
                                         Alpha-Beta:  -0.55797165
                                         Alpha-Alpha: -0.15176421
                                         Beta-Beta:   -0.08708259

 Spin contamination <S**2-Sz**2-Sz>     0.00000000
  Reference energy                   -168.475266959455
  RHF-RMP2 correlation energy          -0.805103036538
 !RHF-RMP2 energy                    -169.280369995993
 (NB above energy spin projected)

 Starting RCCSD calculation

 ITER.      SQ.NORM     CORR.ENERGY   TOTAL ENERGY   ENERGY CHANGE        DEN1      VAR(S)    VAR(P)  DIIS     TIME
   1      1.09944646    -0.74835673  -169.22362369    -0.74835673    -0.02414157  0.41D-02  0.44D-02  0  0     0.38
   2      1.11540371    -0.76977325  -169.24504021    -0.02141652    -0.00250519  0.44D-03  0.91D-03  1  1     0.61
   3      1.12077933    -0.76877336  -169.24404032     0.00099989    -0.00050609  0.24D-03  0.21D-03  2  2     0.80
   4      1.12787831    -0.77107187  -169.24633883    -0.00229851    -0.00005627  0.26D-04  0.23D-04  3  3     0.99
   5      1.13063974    -0.77178453  -169.24705149    -0.00071266    -0.00000570  0.35D-05  0.17D-05  4  4     1.18
   6      1.13141593    -0.77187935  -169.24714631    -0.00009482    -0.00000033  0.12D-06  0.14D-06  5  5     1.38
   7      1.13148928    -0.77188893  -169.24715589    -0.00000958    -0.00000006  0.24D-07  0.25D-07  6  6     1.58
   8      1.13150989    -0.77189142  -169.24715838    -0.00000249    -0.00000001  0.72D-09  0.38D-08  6  1     1.77
   9      1.13150698    -0.77189056  -169.24715752     0.00000087    -0.00000000  0.45D-10  0.35D-09  6  2     1.97

 Norm of t1 vector:      0.11350046      S-energy:    -0.00847760      T1 diagnostic:  0.01775931
                                                                       D1 diagnostic:  0.05786188
 Norm of t2 vector:      0.34441926      P-energy:    -0.76341295
                                         Alpha-Beta:  -0.55596356
                                         Alpha-Alpha: -0.13022447
                                         Beta-Beta:   -0.07722492

 Singles amplitudes (print threshold =  0.500E-01):

         I         SYM. A    A   T(IA) [Alpha-Alpha]

         2         1         3      0.05504773

 Doubles amplitudes (print threshold =  0.500E-01):

         I         J         SYM. A    SYM. B    A         B      T(IJ, AB) [Alpha-Beta]

         2         2         2         2         1         1     -0.06794958
         2         2         2         2         1         2     -0.05449942
         2         2         2         2         2         1     -0.05449942
         2         2         3         3         1         1     -0.06794958
         2         2         3         3         1         2      0.05449942
         2         2         3         3         2         1      0.05449942
         2         2         5         5         1         1     -0.06794958
         2         2         5         5         1         2     -0.05449942
         2         2         5         5         2         1     -0.05449942

 Spin contamination <S**2-Sz**2-Sz>     0.00000000

 Memory could be reduced to 2.47 Mwords without degradation in triples
 

  Correlated core orbitals:             1.1       1.2       1.3       1.5
  Orbital energies:                    -5.1556   -3.4415   -3.4415   -3.4415
 
  RCCSD core-core energy               -0.130160637256
  RCCSD core-valence energy            -0.316763488910
  RCCSD valence correlation energy     -0.324966429619
 

 RESULTS
 =======

  Reference energy                   -168.475266959455
  RCCSD singles energy                 -0.008477603392
  RCCSD pair energy                    -0.763412952394
  RCCSD correlation energy             -0.771890555786
  Triples (T) contribution             -0.020969842213
  Total correlation energy             -0.792860397999
 
  RHF-RCCSD energy                   -169.247157515241
  RHF-RCCSD[T] energy                -169.269437714995
  RHF-RCCSD-T energy                 -169.267793935621
 !RHF-RCCSD(T) energy                -169.268127357454

 Program statistics:

 Available memory in ccsd:               511999000
 Min. memory needed in ccsd:                363620
 Max. memory used in ccsd:                  504131
 Max. memory used in cckext:                449124 ( 9 integral passes)
 Max. memory used in cckint:                457017 ( 1 integral passes)



 **********************************************************************************************************************************
 DATASETS  * FILE   NREC   LENGTH (MB)   RECORD NAMES
              1      21       27.82       500      610      700      900      950      970     1000      129      960     1100   
                                          VAR    BASINP    GEOM    SYMINP    ZMAT    AOBASIS   BASIS     P2S    ABASIS      S 
                                         1400     1410     1420     1200     1210     1080     1600     1650     1300     1700   
                                         EKIN       V       ECP      H0       H01     AOSYM     SMH    MOLCAS    ERIS     OPER   
                                         1380   
                                         JKOP   

              2       6        7.96       700     1000      520     4202     5202     2101   
                                         GEOM     BASIS   MCVARS     RHF     MCSCF     RHF  

 PROGRAMS   *        TOTAL  RCCSD(T)       RHF     MULTI       POP       RHF       INT
 CPU TIMES  *         7.34      4.70      0.04      0.29      0.00      0.20      1.89
 REAL TIME  *        13.08 SEC
 DISK USED  *        81.50 MB      
 **********************************************************************************************************************************
 SETTING POSTHF(I)      =      -169.26812736  AU                              
                                                                                                                                                                                                                                                                

         SCF            POSTHF        EKIN          POT
    -168.4752670   -169.2681274   106.9563382   -23.58513667
                                                  

 RCCSD(T)/USERDEF energy=   -169.268127357454

        RCCSD(T)        RHF-SCF         MULTI           RHF-SCF 
   -169.26812736   -168.47526696   -168.38716085   -168.46230942
 **********************************************************************************************************************************
 Variable memory released
