
 Primary working directories    : /global/cscratch1/sd/aannabe
 Secondary working directories  : /global/cscratch1/sd/aannabe
 Wavefunction directory         : /global/homes/a/aannabe/wfu/
 Main file repository           : /global/cscratch1/sd/aannabe/

 SHA1      : 2873118e99aab1bc19f5b6fc1784693c06d15c95
 NAME      : 2015.1.8
 ARCHNAME  : linux/x86_64
 FC        : /opt/cray/pe/craype/2.5.5/bin/ftn
 BLASLIB   : -Wl,-_start-group /opt/intel/compilers_and_libraries_2016.3.210/linux/mkl/lib/intel64/libmkl_intel_ilp64.a /opt/intel/compilers_and_libraries_2016.3.210/linux/mkl/lib/intel64/libmkl_intel_thread.a /opt/intel/compilers_and_libraries_2016.3.210/linux/mkl/lib/intel64/libmkl_core.a -Wl,-_end-group
 id        : lbl

 Nodes     nprocs
 nid00444     1

 Using customized tuning parameters: mindgm=8; mindgv=16; mindgc=4; mindgr=1; noblas=0; minvec=7
 default implementation of scratch files=df  

 ***,Ni
 memory,512,m
 gthresh,twoint=1.e-12
 
 gprint,basis,orbitals
 gexpec,ekin,pot
 
 angstrom
 geometry={
 1                                                                               ! Number of atoms
 Ni 0.0 0.0 0.0
 }
 
 basis={
 Including file /global/homes/a/aannabe/docs/accurate/ccECP_Kh/pps/Ni.pp
                                              !include,/global/homes/a/aannabe/docs/accurate/ccECP_Kh/basis/aug-cc-pVnZ/Ni_qz.basis
 Including file /global/homes/a/aannabe/docs/accurate/ccECP_Kh/basis/cc-pVnZ/Ni_qz.basis
 }
 
 {rhf
  start,atden
  print,orbitals=2
  wf,18,6,2
  occ,4,1,1,1,1,1,1,0
  open,1.4,1.7
  sym,1,1,1,3,2
  orbital,4202.2
 }
 pop
 {multi
  start,4202.2
  occ,4,1,1,1,1,1,1,0
  closed,2,1,1,0,1,0,0
  wf,18,1,2;state,1
  wf,18,4,2;state,3
  wf,18,6,2;state,3
  wf,18,7,2;state,3
  natorb,ci,print
  orbital,5202.2
 }
 {rhf,nitord=1,maxit=0
  start,5202.2
  wf,18,1,2
  occ,4,1,1,1,1,1,1,0
  open,3.1,4.1
 }
 
 scf(i)=energy
 
 _CC_NORM_MAX=2.0
 {rccsd(t)
 maxit,100
 core
 }
 posthf(i)=energy
 
 table,scf,posthf,ekin,pot
 save,4.csv,new
 
 

 Variables initialized (889), CPU time= 0.00 sec
 Commands  initialized (702), CPU time= 0.01 sec, 572 directives.
 Default parameters read. Elapsed time= 0.20 sec

 Checking input...
 Passed
1


                                         ***  PROGRAM SYSTEM MOLPRO  ***
                                       Copyright, TTI GmbH Stuttgart, 2015
                                    Version 2015.1 linked Sep  7 2016 23:09:38


 **********************************************************************************************************************************
 LABEL *   Ni                                                                            
  64 bit serial version                                                                  DATE: 13-Nov-18          TIME: 22:26:07  
 **********************************************************************************************************************************

 SHA1:             2873118e99aab1bc19f5b6fc1784693c06d15c95
 **********************************************************************************************************************************

 THRESHOLDS:

 ZERO    =  1.00D-12  ONEINT  =  1.00D-12  TWOINT  =  1.00D-12  PREFAC  =  1.00D-14  LOCALI  =  1.00D-09  EORDER  =  1.00D-04
 ENERGY  =  0.00D+00  ETEST   =  0.00D+00  EDENS   =  0.00D+00  THRDEDEF=  1.00D-06  GRADIENT=  1.00D-02  STEP    =  1.00D-03
 ORBITAL =  1.00D-05  CIVEC   =  1.00D-05  COEFF   =  1.00D-04  PRINTCI =  5.00D-02  PUNCHCI =  9.90D+01  OPTGRAD =  3.00D-04
 OPTENERG=  1.00D-06  OPTSTEP =  3.00D-04  THRGRAD =  1.00D-10  COMPRESS=  1.00D-11  VARMIN  =  1.00D-07  VARMAX  =  1.00D-03
 THRDOUB =  0.00D+00  THRDIV  =  1.00D-05  THRRED  =  1.00D-07  THRPSP  =  1.00D+00  THRDC   =  1.00D-10  THRCS   =  1.00D-10
 THRNRM  =  1.00D-08  THREQ   =  0.00D+00  THRDE   =  1.00D+00  THRREF  =  1.00D-05  SPARFAC =  1.00D+00  THRDLP  =  1.00D-07
 THRDIA  =  1.00D-10  THRDLS  =  1.00D-07  THRGPS  =  0.00D+00  THRKEX  =  0.00D+00  THRDIS  =  2.00D-01  THRVAR  =  1.00D-10
 THRLOC  =  1.00D-06  THRGAP  =  1.00D-06  THRLOCT = -1.00D+00  THRGAPT = -1.00D+00  THRORB  =  1.00D-06  THRMLTP =  0.00D+00
 THRCPQCI=  1.00D-10  KEXTA   =  0.00D+00  THRCOARS=  0.00D+00  SYMTOL  =  1.00D-06  GRADTOL =  1.00D-06  THROVL  =  1.00D-08
 THRORTH =  1.00D-08  GRID    =  1.00D-06  GRIDMAX =  1.00D-03  DTMAX   =  0.00D+00  THROCCDE=  1.00D-01  THROCCDE=  1.00D-01



 ZUNIT=ANG
 

Geometry recognized as XYZ


 Variable memory set to  512000000 words,  buffer space   230000 words

 SETTING BASIS          =    USERDEF


 Recomputing integrals since basis changed


 Using spherical harmonics



 PROGRAM * SEWARD (Integral evaluation for generally contracted gaussian basis sets)     Author: Roland Lindh, 1990

 Geometry written to block  1 of record 700

 Orientation using atomic masses  
 Molecule type: Atom
 Symmetry elements: X,Y,Z
 Rotational constants:       0.0000000      0.0000000      0.0000000 GHz  (calculated with average atomic masses)

 Point group  D2h 



 ATOMIC COORDINATES

 NR  ATOM    CHARGE       X              Y              Z

   1  NI     18.00    0.000000000    0.000000000    0.000000000


          NI  CORE POTENTIAL

          d POTENTIAL

 POWERS             1              3              2              2
 EXPONENTIALS   28.26300       26.93603       27.08601       12.21300    
 COEFFICIENTS   18.00000       508.7340      -220.1000      -2.134933    

          s - d POTENTIAL

 POWERS             2              2
 EXPONENTIALS   26.43202       11.74897    
 COEFFICIENTS   321.2400       60.34701    

          p - d POTENTIAL

 POWERS             2              2
 EXPONENTIALS   29.49300       11.55698    
 COEFFICIENTS   236.5400       44.39699    


 BASIS DATA

   Nr Sym  Nuc  Type         Exponents   Contraction coefficients

    1.1 Ag    1  1s          97.161835     0.000709   -0.000140    0.000121    0.000434    0.002461    0.000000
    2.1 Ag                   51.187866    -0.012399    0.002756    0.003322    0.004848   -0.023460    0.000000
    3.1 Ag                   26.996725     0.107220   -0.025482   -0.045785   -0.087818    0.198590    0.000000
    4.1 Ag                   15.523536    -0.124556    0.032182    0.053415    0.121852   -0.402525    0.000000
    5.1 Ag                    8.916168    -0.351023    0.086226    0.222270    0.454218   -0.405568    0.000000
    6.1 Ag                    4.795806    -0.025758    0.001104   -0.073065   -0.245765    0.387893    0.000000
                              2.619926     0.498948   -0.135790   -0.293998   -0.997345    2.684679    0.000000
                              1.330111     0.568986   -0.215724   -0.668938   -0.834586   -2.955956    0.000000
                              0.668901     0.191121   -0.158367    0.297504    2.285675   -0.667467    0.000000
                              0.230439     0.010278    0.143499    1.233748    0.251538    4.094074    0.000000
                              0.121518    -0.003627    0.443672    0.129317   -1.988796   -3.103355    0.000000
                              0.057951     0.001295    0.472558   -0.603407    0.347602   -0.768728    0.000000
                              0.027201    -0.000307    0.110173   -0.533062    0.824150    1.331217    1.000000
    7.1 Ag    1  1s           2.749235     1.000000
    8.1 Ag    1  1s           3.424032     1.000000
    9.1 Ag    1  3d0        177.900125     0.000049
                             57.372112     0.007519
                             29.881432     0.036455
                             13.971757     0.086901
                              6.841152     0.180568
                              3.379983     0.268187
                              1.651827     0.296756
                              0.799251     0.251558
                              0.388057     0.162319
                              0.191191     0.072119
                              0.093358     0.023689
   10.1 Ag    1  3d2+       177.900125     0.000049
                             57.372112     0.007519
                             29.881432     0.036455
                             13.971757     0.086901
                              6.841152     0.180568
                              3.379983     0.268187
                              1.651827     0.296756
                              0.799251     0.251558
                              0.388057     0.162319
                              0.191191     0.072119
                              0.093358     0.023689
   11.1 Ag    1  3d0        177.900125    -0.000053
                             57.372112    -0.008850
                             29.881432    -0.041916
                             13.971757    -0.104691
                              6.841152    -0.219464
                              3.379983    -0.283712
                              1.651827    -0.122127
                              0.799251     0.190123
                              0.388057     0.376598
                              0.191191     0.295122
                              0.093358     0.178252
   12.1 Ag    1  3d2+       177.900125    -0.000053
                             57.372112    -0.008850
                             29.881432    -0.041916
                             13.971757    -0.104691
                              6.841152    -0.219464
                              3.379983    -0.283712
                              1.651827    -0.122127
                              0.799251     0.190123
                              0.388057     0.376598
                              0.191191     0.295122
                              0.093358     0.178252
   13.1 Ag    1  3d0        177.900125     0.000079
                             57.372112     0.011442
                             29.881432     0.053972
                             13.971757     0.141068
                              6.841152     0.302294
                              3.379983     0.236558
                              1.651827    -0.291311
                              0.799251    -0.581758
                              0.388057    -0.024063
                              0.191191     0.389387
                              0.093358     0.430833
   14.1 Ag    1  3d2+       177.900125     0.000079
                             57.372112     0.011442
                             29.881432     0.053972
                             13.971757     0.141068
                              6.841152     0.302294
                              3.379983     0.236558
                              1.651827    -0.291311
                              0.799251    -0.581758
                              0.388057    -0.024063
                              0.191191     0.389387
                              0.093358     0.430833
   15.1 Ag    1  3d0        177.900125    -0.000124
                             57.372112    -0.016602
                             29.881432    -0.077533
                             13.971757    -0.221826
                              6.841152    -0.481658
                              3.379983     0.182447
                              1.651827     0.945626
                              0.799251    -0.334241
                              0.388057    -0.761164
                              0.191191     0.136816
                              0.093358     0.600785
   16.1 Ag    1  3d2+       177.900125    -0.000124
                             57.372112    -0.016602
                             29.881432    -0.077533
                             13.971757    -0.221826
                              6.841152    -0.481658
                              3.379983     0.182447
                              1.651827     0.945626
                              0.799251    -0.334241
                              0.388057    -0.761164
                              0.191191     0.136816
                              0.093358     0.600785
   17.1 Ag    1  3d0        177.900125     0.000000
                             57.372112     0.000000
                             29.881432     0.000000
                             13.971757     0.000000
                              6.841152     0.000000
                              3.379983     0.000000
                              1.651827     0.000000
                              0.799251     0.000000
                              0.388057     0.000000
                              0.191191     0.000000
                              0.093358     1.000000
   18.1 Ag    1  3d2+       177.900125     0.000000
                             57.372112     0.000000
                             29.881432     0.000000
                             13.971757     0.000000
                              6.841152     0.000000
                              3.379983     0.000000
                              1.651827     0.000000
                              0.799251     0.000000
                              0.388057     0.000000
                              0.191191     0.000000
                              0.093358     1.000000
   19.1 Ag    1  3d0          4.388587     1.000000
   20.1 Ag    1  3d2+         4.388587     1.000000
   21.1 Ag    1  3d0          5.303761     1.000000
   22.1 Ag    1  3d2+         5.303761     1.000000
   23.1 Ag    1  5g0          1.549000     1.000000
   24.1 Ag    1  5g4+         1.549000     1.000000
   25.1 Ag    1  5g2+         1.549000     1.000000
   26.1 Ag    1  5g0          5.290163     1.000000
   27.1 Ag    1  5g4+         5.290163     1.000000
   28.1 Ag    1  5g2+         5.290163     1.000000
   29.1 Ag    1  5g0          7.523045     1.000000
   30.1 Ag    1  5g4+         7.523045     1.000000
   31.1 Ag    1  5g2+         7.523045     1.000000
    1.2 B3u   1  2px        148.087630     0.000055    0.000027   -0.000237   -0.000260    0.000080    0.000000
    2.2 B3u                  77.452187    -0.000548   -0.000088    0.001456    0.001071   -0.000101    0.000000
    3.2 B3u                  40.915636     0.006979   -0.000773   -0.009745    0.002322   -0.006492    0.000000
    4.2 B3u                  22.575667    -0.023658    0.003345    0.037799   -0.032140    0.083129    0.000000
    5.2 B3u                  13.218268    -0.075682    0.019405    0.052521   -0.134136    0.195393    0.000000
    6.2 B3u                   7.232093     0.027253   -0.014288   -0.035006    0.229062   -0.765806    0.000000
                              4.054870     0.284778   -0.054527   -0.455577    0.752239   -1.206017    0.000000
                              2.122089     0.427632   -0.116454   -0.368306    0.205535    2.424444    0.000000
                              1.092769     0.309937   -0.060236    0.100392   -1.692910   -0.079387    0.000000
                              0.548240     0.088535   -0.023928    1.076652    0.436295   -2.325449    0.000000
                              0.238886     0.006427    0.347869   -0.045326    1.219514    2.129133    0.000000
                              0.084667     0.000708    0.522626   -0.703186   -0.945516   -0.733585    0.000000
                              0.038921     0.000186    0.276471    0.004580   -0.062232   -0.180444    1.000000
    7.2 B3u   1  2px          2.987946     1.000000
    8.2 B3u   1  2px          9.332016     1.000000
    9.2 B3u   1  4f1+         0.659980     1.000000
   10.2 B3u   1  4f3+         0.659980     1.000000
   11.2 B3u   1  4f1+         2.182234     1.000000
   12.2 B3u   1  4f3+         2.182234     1.000000
   13.2 B3u   1  4f1+         7.215589     1.000000
   14.2 B3u   1  4f3+         7.215589     1.000000
   15.2 B3u   1  4f1+         4.238774     1.000000
   16.2 B3u   1  4f3+         4.238774     1.000000
   17.2 B3u   1  6h1+         3.361535     1.000000
   18.2 B3u   1  6h3+         3.361535     1.000000
   19.2 B3u   1  6h5+         3.361535     1.000000
   20.2 B3u   1  6h1+         7.787971     1.000000
   21.2 B3u   1  6h3+         7.787971     1.000000
   22.2 B3u   1  6h5+         7.787971     1.000000
    1.3 B2u   1  2py        148.087630     0.000055    0.000027   -0.000237   -0.000260    0.000080    0.000000
    2.3 B2u                  77.452187    -0.000548   -0.000088    0.001456    0.001071   -0.000101    0.000000
    3.3 B2u                  40.915636     0.006979   -0.000773   -0.009745    0.002322   -0.006492    0.000000
    4.3 B2u                  22.575667    -0.023658    0.003345    0.037799   -0.032140    0.083129    0.000000
    5.3 B2u                  13.218268    -0.075682    0.019405    0.052521   -0.134136    0.195393    0.000000
    6.3 B2u                   7.232093     0.027253   -0.014288   -0.035006    0.229062   -0.765806    0.000000
                              4.054870     0.284778   -0.054527   -0.455577    0.752239   -1.206017    0.000000
                              2.122089     0.427632   -0.116454   -0.368306    0.205535    2.424444    0.000000
                              1.092769     0.309937   -0.060236    0.100392   -1.692910   -0.079387    0.000000
                              0.548240     0.088535   -0.023928    1.076652    0.436295   -2.325449    0.000000
                              0.238886     0.006427    0.347869   -0.045326    1.219514    2.129133    0.000000
                              0.084667     0.000708    0.522626   -0.703186   -0.945516   -0.733585    0.000000
                              0.038921     0.000186    0.276471    0.004580   -0.062232   -0.180444    1.000000
    7.3 B2u   1  2py          2.987946     1.000000
    8.3 B2u   1  2py          9.332016     1.000000
    9.3 B2u   1  4f1-         0.659980     1.000000
   10.3 B2u   1  4f3-         0.659980     1.000000
   11.3 B2u   1  4f1-         2.182234     1.000000
   12.3 B2u   1  4f3-         2.182234     1.000000
   13.3 B2u   1  4f1-         7.215589     1.000000
   14.3 B2u   1  4f3-         7.215589     1.000000
   15.3 B2u   1  4f1-         4.238774     1.000000
   16.3 B2u   1  4f3-         4.238774     1.000000
   17.3 B2u   1  6h1-         3.361535     1.000000
   18.3 B2u   1  6h3-         3.361535     1.000000
   19.3 B2u   1  6h5-         3.361535     1.000000
   20.3 B2u   1  6h1-         7.787971     1.000000
   21.3 B2u   1  6h3-         7.787971     1.000000
   22.3 B2u   1  6h5-         7.787971     1.000000
    1.4 B1g   1  3d2-       177.900125     0.000049   -0.000053    0.000079   -0.000124    0.000000
    2.4 B1g                  57.372112     0.007519   -0.008850    0.011442   -0.016602    0.000000
    3.4 B1g                  29.881432     0.036455   -0.041916    0.053972   -0.077533    0.000000
    4.4 B1g                  13.971757     0.086901   -0.104691    0.141068   -0.221826    0.000000
    5.4 B1g                   6.841152     0.180568   -0.219464    0.302294   -0.481658    0.000000
                              3.379983     0.268187   -0.283712    0.236558    0.182447    0.000000
                              1.651827     0.296756   -0.122127   -0.291311    0.945626    0.000000
                              0.799251     0.251558    0.190123   -0.581758   -0.334241    0.000000
                              0.388057     0.162319    0.376598   -0.024063   -0.761164    0.000000
                              0.191191     0.072119    0.295122    0.389387    0.136816    0.000000
                              0.093358     0.023689    0.178252    0.430833    0.600785    1.000000
    6.4 B1g   1  3d2-         4.388587     1.000000
    7.4 B1g   1  3d2-         5.303761     1.000000
    8.4 B1g   1  5g2-         1.549000     1.000000
    9.4 B1g   1  5g4-         1.549000     1.000000
   10.4 B1g   1  5g2-         5.290163     1.000000
   11.4 B1g   1  5g4-         5.290163     1.000000
   12.4 B1g   1  5g2-         7.523045     1.000000
   13.4 B1g   1  5g4-         7.523045     1.000000
    1.5 B1u   1  2pz        148.087630     0.000055    0.000027   -0.000237   -0.000260    0.000080    0.000000
    2.5 B1u                  77.452187    -0.000548   -0.000088    0.001456    0.001071   -0.000101    0.000000
    3.5 B1u                  40.915636     0.006979   -0.000773   -0.009745    0.002322   -0.006492    0.000000
    4.5 B1u                  22.575667    -0.023658    0.003345    0.037799   -0.032140    0.083129    0.000000
    5.5 B1u                  13.218268    -0.075682    0.019405    0.052521   -0.134136    0.195393    0.000000
    6.5 B1u                   7.232093     0.027253   -0.014288   -0.035006    0.229062   -0.765806    0.000000
                              4.054870     0.284778   -0.054527   -0.455577    0.752239   -1.206017    0.000000
                              2.122089     0.427632   -0.116454   -0.368306    0.205535    2.424444    0.000000
                              1.092769     0.309937   -0.060236    0.100392   -1.692910   -0.079387    0.000000
                              0.548240     0.088535   -0.023928    1.076652    0.436295   -2.325449    0.000000
                              0.238886     0.006427    0.347869   -0.045326    1.219514    2.129133    0.000000
                              0.084667     0.000708    0.522626   -0.703186   -0.945516   -0.733585    0.000000
                              0.038921     0.000186    0.276471    0.004580   -0.062232   -0.180444    1.000000
    7.5 B1u   1  2pz          2.987946     1.000000
    8.5 B1u   1  2pz          9.332016     1.000000
    9.5 B1u   1  4f0          0.659980     1.000000
   10.5 B1u   1  4f2+         0.659980     1.000000
   11.5 B1u   1  4f0          2.182234     1.000000
   12.5 B1u   1  4f2+         2.182234     1.000000
   13.5 B1u   1  4f0          7.215589     1.000000
   14.5 B1u   1  4f2+         7.215589     1.000000
   15.5 B1u   1  4f0          4.238774     1.000000
   16.5 B1u   1  4f2+         4.238774     1.000000
   17.5 B1u   1  6h2+         3.361535     1.000000
   18.5 B1u   1  6h4+         3.361535     1.000000
   19.5 B1u   1  6h0          3.361535     1.000000
   20.5 B1u   1  6h2+         7.787971     1.000000
   21.5 B1u   1  6h4+         7.787971     1.000000
   22.5 B1u   1  6h0          7.787971     1.000000
    1.6 B2g   1  3d1+       177.900125     0.000049   -0.000053    0.000079   -0.000124    0.000000
    2.6 B2g                  57.372112     0.007519   -0.008850    0.011442   -0.016602    0.000000
    3.6 B2g                  29.881432     0.036455   -0.041916    0.053972   -0.077533    0.000000
    4.6 B2g                  13.971757     0.086901   -0.104691    0.141068   -0.221826    0.000000
    5.6 B2g                   6.841152     0.180568   -0.219464    0.302294   -0.481658    0.000000
                              3.379983     0.268187   -0.283712    0.236558    0.182447    0.000000
                              1.651827     0.296756   -0.122127   -0.291311    0.945626    0.000000
                              0.799251     0.251558    0.190123   -0.581758   -0.334241    0.000000
                              0.388057     0.162319    0.376598   -0.024063   -0.761164    0.000000
                              0.191191     0.072119    0.295122    0.389387    0.136816    0.000000
                              0.093358     0.023689    0.178252    0.430833    0.600785    1.000000
    6.6 B2g   1  3d1+         4.388587     1.000000
    7.6 B2g   1  3d1+         5.303761     1.000000
    8.6 B2g   1  5g1+         1.549000     1.000000
    9.6 B2g   1  5g3+         1.549000     1.000000
   10.6 B2g   1  5g1+         5.290163     1.000000
   11.6 B2g   1  5g3+         5.290163     1.000000
   12.6 B2g   1  5g1+         7.523045     1.000000
   13.6 B2g   1  5g3+         7.523045     1.000000
    1.7 B3g   1  3d1-       177.900125     0.000049   -0.000053    0.000079   -0.000124    0.000000
    2.7 B3g                  57.372112     0.007519   -0.008850    0.011442   -0.016602    0.000000
    3.7 B3g                  29.881432     0.036455   -0.041916    0.053972   -0.077533    0.000000
    4.7 B3g                  13.971757     0.086901   -0.104691    0.141068   -0.221826    0.000000
    5.7 B3g                   6.841152     0.180568   -0.219464    0.302294   -0.481658    0.000000
                              3.379983     0.268187   -0.283712    0.236558    0.182447    0.000000
                              1.651827     0.296756   -0.122127   -0.291311    0.945626    0.000000
                              0.799251     0.251558    0.190123   -0.581758   -0.334241    0.000000
                              0.388057     0.162319    0.376598   -0.024063   -0.761164    0.000000
                              0.191191     0.072119    0.295122    0.389387    0.136816    0.000000
                              0.093358     0.023689    0.178252    0.430833    0.600785    1.000000
    6.7 B3g   1  3d1-         4.388587     1.000000
    7.7 B3g   1  3d1-         5.303761     1.000000
    8.7 B3g   1  5g1-         1.549000     1.000000
    9.7 B3g   1  5g3-         1.549000     1.000000
   10.7 B3g   1  5g1-         5.290163     1.000000
   11.7 B3g   1  5g3-         5.290163     1.000000
   12.7 B3g   1  5g1-         7.523045     1.000000
   13.7 B3g   1  5g3-         7.523045     1.000000
    1.8 Au    1  4f2-         0.659980     1.000000
    2.8 Au    1  4f2-         2.182234     1.000000
    3.8 Au    1  4f2-         7.215589     1.000000
    4.8 Au    1  4f2-         4.238774     1.000000
    5.8 Au    1  6h4-         3.361535     1.000000
    6.8 Au    1  6h2-         3.361535     1.000000
    7.8 Au    1  6h4-         7.787971     1.000000
    8.8 Au    1  6h2-         7.787971     1.000000

 NUCLEAR CHARGE:                   18
 NUMBER OF PRIMITIVE AOS:         265
 NUMBER OF SYMMETRY AOS:          202
 NUMBER OF CONTRACTIONS:          144   (  31Ag  +  22B3u +  22B2u +  13B1g +  22B1u +  13B2g +  13B3g +   8Au  )
 NUMBER OF CORE ORBITALS:           4   (   1Ag  +   1B3u +   1B2u +   0B1g +   1B1u +   0B2g +   0B3g +   0Au  )
 NUMBER OF VALENCE ORBITALS:        6   (   3Ag  +   0B3u +   0B2u +   1B1g +   0B1u +   1B2g +   1B3g +   0Au  )


 NUCLEAR REPULSION ENERGY    0.00000000

 EXTRA SYMMETRY OF AOS IN SYMMETRY 1:   1 1 1 1 1 1 1 1 2 3   2 3 2 3 2 3 2 3 2 3   2 3 4 5 6 4 5 6 4 5   6
 EXTRA SYMMETRY OF AOS IN SYMMETRY 2:   1 1 1 1 1 1 1 1 2 3   2 3 2 3 2 3 4 5 6 4   5 6
 EXTRA SYMMETRY OF AOS IN SYMMETRY 3:   1 1 1 1 1 1 1 1 2 3   2 3 2 3 2 3 4 5 6 4   5 6
 EXTRA SYMMETRY OF AOS IN SYMMETRY 4:   1 1 1 1 1 1 1 2 3 2   3 2 3
 EXTRA SYMMETRY OF AOS IN SYMMETRY 5:   1 1 1 1 1 1 1 1 2 3   2 3 2 3 2 3 4 5 6 4   5 6
 EXTRA SYMMETRY OF AOS IN SYMMETRY 6:   1 1 1 1 1 1 1 2 3 2   3 2 3
 EXTRA SYMMETRY OF AOS IN SYMMETRY 7:   1 1 1 1 1 1 1 2 3 2   3 2 3
 EXTRA SYMMETRY OF AOS IN SYMMETRY 8:   1 1 1 1 2 3 2 3

 Eigenvalues of metric

         1 0.199E-03 0.211E-02 0.211E-02 0.307E-02 0.240E-01 0.240E-01 0.496E-01 0.496E-01
         2 0.126E-02 0.402E-01 0.402E-01 0.649E-01 0.152E+00 0.380E+00 0.380E+00 0.427E+00
         3 0.126E-02 0.402E-01 0.402E-01 0.649E-01 0.152E+00 0.380E+00 0.380E+00 0.427E+00
         4 0.211E-02 0.240E-01 0.496E-01 0.648E-01 0.648E-01 0.857E+00 0.857E+00 0.999E+00
         5 0.126E-02 0.402E-01 0.402E-01 0.649E-01 0.152E+00 0.380E+00 0.380E+00 0.427E+00
         6 0.211E-02 0.240E-01 0.496E-01 0.648E-01 0.648E-01 0.857E+00 0.857E+00 0.999E+00
         7 0.211E-02 0.240E-01 0.496E-01 0.648E-01 0.648E-01 0.857E+00 0.857E+00 0.999E+00
         8 0.402E-01 0.380E+00 0.427E+00 0.427E+00 0.105E+01 0.157E+01 0.157E+01 0.253E+01


 Contracted 2-electron integrals neglected if value below      1.0D-12
 AO integral compression algorithm  1   Integral accuracy      1.0D-12

     54.002 MB (compressed) written to integral file ( 58.2%)


 NUMBER OF SORTED TWO-ELECTRON INTEGRALS:    7063297.     BUFFER LENGTH:  32768
 NUMBER OF SEGMENTS:   1  SEGMENT LENGTH:    7063297      RECORD LENGTH: 524288

 Memory used in sort:       7.62 MW

 SORT1 READ    11599838. AND WROTE     4948094. INTEGRALS IN     15 RECORDS. CPU TIME:     0.37 SEC, REAL TIME:     0.53 SEC
 SORT2 READ     4948094. AND WROTE     7063297. INTEGRALS IN    206 RECORDS. CPU TIME:     0.28 SEC, REAL TIME:     0.54 SEC

 FILE SIZES:   FILE 1:    73.6 MBYTE,  FILE 4:    62.9 MBYTE,   TOTAL:    136.5 MBYTE

 OPERATOR DM      FOR CENTER  0  COORDINATES:    0.000000    0.000000    0.000000
 OPERATOR EKIN    FOR CENTER  0  COORDINATES:    0.000000    0.000000    0.000000
 OPERATOR POT     FOR CENTER  0  COORDINATES:    0.000000    0.000000    0.000000


 **********************************************************************************************************************************
 DATASETS  * FILE   NREC   LENGTH (MB)   RECORD NAMES
              1      20       51.65       500      610      700      900      950      970     1000      129      960     1100   
                                          VAR    BASINP    GEOM    SYMINP    ZMAT    AOBASIS   BASIS     P2S    ABASIS      S 
                                         1400     1410     1420     1200     1210     1080     1600     1650     1300     1700   
                                         EKIN       V       ECP      H0       H01     AOSYM     SMH    MOLCAS    ERIS     OPER   

 PROGRAMS   *        TOTAL       INT
 CPU TIMES  *         4.35      4.20
 REAL TIME  *         6.64 SEC
 DISK USED  *       136.86 MB      
 **********************************************************************************************************************************


 PROGRAM * RHF-SCF (OPEN SHELL)       Authors: W. Meyer, H.-J. Werner


 NUMBER OF ELECTRONS:      10+    8-    SPACE SYMMETRY=6    SPIN SYMMETRY: Triplet 
 CONVERGENCE THRESHOLDS:    1.00E-05 (Density)    1.00E-07 (Energy)
 MAX. NUMBER OF ITERATIONS:       60
 INTERPOLATION TYPE:            DIIS
 INTERPOLATION STEPS:              2 (START)      1 (STEP)
 LEVEL SHIFTS:                 -0.60 (CLOSED) -0.30 (OPEN) 


 Singly occupied orbitals:      1.4       1.7
 
 Extra symmetries of mos in symmetry 1:   1   1   3   2

   Atom=NI basis=ECP10MDF_GUESS    lmin=0  lmax=2

 Orbital guess generated from atomic densities. Full valence occupancy:    4   1   1   1   1   1   1   0


 Molecular orbital dump at record        4202.2

 ITERATION    DDIFF          GRAD             ENERGY        2-EL.EN.            DIPOLE MOMENTS         DIIS   ORB.
    1      0.000D+00      0.000D+00      -166.81335972    226.801702    0.00000    0.00000    0.00000    0    start
    2      0.000D+00      0.138D+00      -167.86141228    279.860852    0.00000    0.00000    0.00000    1    diag,B
    3      0.310D-01      0.111D+00      -168.43560659    265.057308    0.00000    0.00000    0.00000    2    diag,B
    4      0.976D-02      0.157D-01      -168.45719794    263.773398    0.00000    0.00000    0.00000    3    diag,B
    5      0.364D-02      0.272D-02      -168.46117479    264.242243    0.00000    0.00000    0.00000    4    diag,B
    6      0.580D-02      0.989D-03      -168.46212976    264.555812    0.00000    0.00000    0.00000    5    diag,B
    7      0.740D-02      0.446D-03      -168.46242712    264.675301    0.00000    0.00000    0.00000    6    fixocc
    8      0.788D-02      0.163D-03      -168.46246312    264.723265    0.00000    0.00000    0.00000    7    diag,B
    9      0.328D-02      0.421D-04      -168.46246418    264.730124    0.00000    0.00000    0.00000    8    diag,B
   10      0.170D-03      0.104D-04      -168.46246425    264.731280    0.00000    0.00000    0.00000    9    orth
   11      0.816D-04      0.281D-05      -168.46246425    264.731489    0.00000    0.00000    0.00000    9    diag,B
   12      0.344D-04      0.697D-06      -168.46246425    264.731676    0.00000    0.00000    0.00000    9    diag,B
   13      0.394D-05      0.178D-06      -168.46246425    264.731673    0.00000    0.00000    0.00000    0    orth

 Final alpha occupancy:   4   1   1   1   1   1   1   0
 Final beta  occupancy:   4   1   1   0   1   1   0   0

 !RHF STATE 1.6 Energy               -168.462464253771
 Nuclear energy                         0.00000000
 One-electron energy                 -300.82830081
 Two-electron energy                  132.36583656
 Virial quotient                       -1.57468722
 !RHF STATE 1.6 Dipole moment           0.00000000     0.00000000     0.00000000
 Dipole moment /Debye                   0.00000000     0.00000000     0.00000000
 

 !RHF expec          <1.6|EKIN|1.6>   106.981540164173
 
 !RHF expec           <1.6|POT|1.6>   -23.586577744520

 ELECTRON ORBITALS
 =================


   Orb  Occ    Energy  Couls-En    Coefficients

                                   1 1s      1 1s      1 1s      1 1s      1 1s      1 1s      1 1s      1 1s      1 3d0     1 3d2+ 
                                   1 3d0     1 3d2+    1 3d0     1 3d2+    1 3d0     1 3d2+    1 3d0     1 3d2+    1 3d0     1 3d2+ 
                                   1 3d0     1 3d2+    1 5g0     1 5g4+    1 5g2+    1 5g0     1 5g4+    1 5g2+    1 5g0     1 5g4+ 
                                   1 5g2+ 

   1.1   2    -5.0536  -26.4332  0.999915  0.000052  0.000007  0.000035 -0.000001 -0.000041  0.000359 -0.000303 -0.002708 -0.004691
                                 0.000850  0.001472 -0.000311 -0.000539 -0.000417 -0.000722  0.000351  0.000608 -0.000677 -0.001173
                                 0.000287  0.000497  0.000379  0.000747  0.000565  0.000046  0.000091  0.000069  0.000094  0.000185
                                 0.000140

   2.1   2    -0.2813   -7.0838  0.000007  1.000000  0.000127 -0.000045  0.000006 -0.000089  0.000063 -0.000054 -0.000827 -0.001432
                                -0.005265 -0.009120 -0.001610 -0.002788  0.000023  0.000041 -0.000660 -0.001143  0.000040  0.000069
                                 0.000015  0.000025 -0.000001 -0.000001 -0.000001  0.000075  0.000148  0.000112 -0.000039 -0.000076
                                -0.000058

   3.1   2    -0.7032  -16.6655  0.005853  0.001069  0.000872  0.000217 -0.000047  0.000220  0.000661 -0.000582  0.499378  0.864948
                                -0.019031 -0.032962 -0.006793 -0.011767 -0.000758 -0.001312 -0.000259 -0.000449  0.000028  0.000048
                                -0.000004 -0.000007 -0.001077 -0.002125 -0.001606 -0.000367 -0.000724 -0.000548 -0.000085 -0.000167
                                -0.000126

   4.1   2    -0.6438  -16.4979 -0.000000 -0.000000  0.000000 -0.000000 -0.000000  0.000000 -0.000000  0.000000  0.866170 -0.500083
                                -0.018587  0.010731 -0.007345  0.004241 -0.001424  0.000822 -0.002192  0.001266  0.000160 -0.000093
                                -0.000391  0.000226 -0.000575  0.000680 -0.000514 -0.000277  0.000328 -0.000248 -0.000004  0.000004
                                -0.000003

   5.1   0     0.0713   -2.7897  0.450607  3.526941 -1.205341  0.568111  0.150630 -4.226283  0.797670 -0.563281 -0.000335 -0.000580
                                -0.002925 -0.005066 -0.000742 -0.001286  0.000039  0.000068 -0.000106 -0.000184  0.000034  0.000059
                                -0.000003 -0.000006 -0.000135 -0.000266 -0.000201  0.000075  0.000147  0.000111 -0.000017 -0.000033
                                -0.000025

   6.1   0     0.2626   -3.7846  0.003698  0.053196 -0.023993  0.010882  0.003287 -0.052974  0.016271 -0.012414 -0.189632 -0.328452
                                -0.186746 -0.323454 -0.173528 -0.300560 -0.075962 -0.131569  0.773281  1.339362  0.106860  0.185087
                                -0.074447 -0.128946  0.000043  0.000085  0.000064  0.000055  0.000109  0.000082 -0.000004 -0.000008
                                -0.000006

                                   1 2px     1 2px     1 2px     1 2px     1 2px     1 2px     1 2px     1 2px     1 4f1+    1 4f3+ 
                                   1 4f1+    1 4f3+    1 4f1+    1 4f3+    1 4f1+    1 4f3+    1 6h1+    1 6h3+    1 6h5+    1 6h1+ 
                                   1 6h3+    1 6h5+ 

   1.2   2    -3.3150  -22.8024  1.000666  0.015118  0.012541 -0.000228 -0.000959 -0.004697 -0.000409  0.000110  0.000473  0.001830
                                 0.000371  0.001437  0.000216  0.000837 -0.000127 -0.000493 -0.000023 -0.000076 -0.000169 -0.000011
                                -0.000036 -0.000080

   2.2   0     0.0452   -3.8836  0.013980  0.052007  0.049365  0.065888  0.030486  1.006239 -0.097177  0.017246 -0.000486 -0.001883
                                 0.000142  0.000550  0.000049  0.000191 -0.000011 -0.000041 -0.000000 -0.000000 -0.000000  0.000006
                                 0.000020  0.000045

   3.2   0     0.2060   -4.3592  0.243933 -2.218274  0.324056  0.335564  0.144549  2.217611 -0.444885  0.081266  0.000857  0.003319
                                -0.000213 -0.000823 -0.000073 -0.000282 -0.000002 -0.000007  0.000001  0.000002  0.000004 -0.000010
                                -0.000034 -0.000076

                                   1 2py     1 2py     1 2py     1 2py     1 2py     1 2py     1 2py     1 2py     1 4f1-    1 4f3- 
                                   1 4f1-    1 4f3-    1 4f1-    1 4f3-    1 4f1-    1 4f3-    1 6h1-    1 6h3-    1 6h5-    1 6h1- 
                                   1 6h3-    1 6h5- 

   1.3   2    -3.3238  -22.8211  0.999707  0.012522  0.011054 -0.000738 -0.000678 -0.003952  0.000700 -0.000213 -0.002310 -0.002983
                                -0.004206 -0.005431 -0.001587 -0.002049 -0.000354 -0.000457 -0.000101 -0.000109 -0.000146 -0.000054
                                -0.000058 -0.000078

   2.3   0     0.0412   -3.9909  0.012517  0.111868  0.046273  0.061273  0.028302  0.949840 -0.090397  0.016046 -0.000768 -0.000991
                                 0.000190  0.000246  0.000060  0.000077 -0.000095 -0.000123 -0.000002 -0.000002 -0.000003  0.000034
                                 0.000036  0.000049

   3.3   0     0.1991   -4.3284  0.232435 -2.207139  0.312454  0.326217  0.140910  2.228718 -0.433773  0.079158  0.001192  0.001538
                                -0.000269 -0.000347 -0.000085 -0.000110  0.000125  0.000161  0.000005  0.000006  0.000008 -0.000054
                                -0.000058 -0.000078

                                   1 3d2-    1 3d2-    1 3d2-    1 3d2-    1 3d2-    1 3d2-    1 3d2-    1 5g2-    1 5g4-    1 5g2- 
                                   1 5g4-    1 5g2-    1 5g4- 

   1.4   +    -0.7689  -16.8584  0.996703 -0.057911 -0.018605 -0.000434  0.001941  0.000002  0.000543 -0.000947 -0.002507 -0.000375
                                -0.000993 -0.000056 -0.000148

   2.4   0     0.2617   -3.7711 -0.366427 -0.367417 -0.343700 -0.151000  1.540241  0.212492 -0.148074  0.000051  0.000134  0.000074
                                 0.000197 -0.000007 -0.000018

   3.4   0     0.8771   -5.2890  0.870966  2.131487  1.681231  0.636924 -2.585400 -0.782658  0.535612  0.000003  0.000008  0.000219
                                 0.000579 -0.000027 -0.000071

                                   1 2pz     1 2pz     1 2pz     1 2pz     1 2pz     1 2pz     1 2pz     1 2pz     1 4f0     1 4f2+ 
                                   1 4f0     1 4f2+    1 4f0     1 4f2+    1 4f0     1 4f2+    1 6h2+    1 6h4+    1 6h0     1 6h2+ 
                                   1 6h4+    1 6h0  

   1.5   2    -3.3150  -22.8024  1.000666  0.015118  0.012541 -0.000228 -0.000959 -0.004697 -0.000409  0.000110  0.001158  0.001495
                                 0.000909  0.001173  0.000530  0.000684 -0.000312 -0.000402 -0.000124 -0.000107 -0.000091 -0.000058
                                -0.000050 -0.000043

   2.5   0     0.0452   -3.8836  0.013980  0.052007  0.049365  0.065888  0.030486  1.006239 -0.097177  0.017246 -0.001191 -0.001538
                                 0.000348  0.000449  0.000121  0.000156 -0.000026 -0.000033 -0.000000 -0.000000 -0.000000  0.000033
                                 0.000028  0.000024

   3.5   0     0.2060   -4.3592  0.243933 -2.218274  0.324056  0.335564  0.144549  2.217611 -0.444885  0.081266  0.002099  0.002710
                                -0.000521 -0.000672 -0.000179 -0.000231 -0.000004 -0.000006  0.000003  0.000003  0.000002 -0.000055
                                -0.000048 -0.000041

                                   1 3d1+    1 3d1+    1 3d1+    1 3d1+    1 3d1+    1 3d1+    1 3d1+    1 5g1+    1 5g3+    1 5g1+ 
                                   1 5g3+    1 5g1+    1 5g3+ 

   1.6   2    -0.6438  -16.4979  1.000167 -0.021463 -0.008482 -0.001644 -0.002531  0.000185 -0.000452 -0.000364 -0.000962 -0.000175
                                -0.000464 -0.000002 -0.000006

   2.6   0     0.2655   -3.7888 -0.393279 -0.385042 -0.354753 -0.154500  1.559490  0.216878 -0.151043  0.000107  0.000282  0.000122
                                 0.000323 -0.000009 -0.000024

   3.6   0     0.8942   -5.3717  0.852084  2.137421  1.700365  0.647999 -2.596055 -0.797704  0.546150  0.000071  0.000187  0.000340
                                 0.000898 -0.000035 -0.000092

                                   1 3d1-    1 3d1-    1 3d1-    1 3d1-    1 3d1-    1 3d1-    1 3d1-    1 5g1-    1 5g3-    1 5g1- 
                                   1 5g3-    1 5g1-    1 5g3- 

   1.7   +    -0.7689  -16.8584  0.996703 -0.057911 -0.018605 -0.000434  0.001941  0.000002  0.000543 -0.002010 -0.001772 -0.000796
                                -0.000702 -0.000119 -0.000105

   2.7   0     0.2617   -3.7711 -0.366427 -0.367417 -0.343700 -0.151000  1.540241  0.212492 -0.148074  0.000107  0.000095  0.000158
                                 0.000139 -0.000015 -0.000013

   3.7   0     0.8771   -5.2890  0.870966  2.131487  1.681231  0.636924 -2.585400 -0.782658  0.535612  0.000006  0.000005  0.000464
                                 0.000409 -0.000057 -0.000050

                                   1 4f2-    1 4f2-    1 4f2-    1 4f2-    1 6h4-    1 6h2-    1 6h4-    1 6h2- 

   1.8   0     2.1377   -5.4826  1.028368 -0.103636 -0.028531  0.116153 -0.000872 -0.000503  0.000130  0.000075

   2.8   0     6.5369   -1.4530 -0.577187  1.434976  0.268523 -0.518956 -0.003075 -0.001775  0.000138  0.000080

 HOMO      4.1    -0.643751 =     -17.5174eV
 LUMO      2.3     0.041165 =       1.1202eV
 LUMO-HOMO         0.684916 =      18.6375eV


 **********************************************************************************************************************************
 DATASETS  * FILE   NREC   LENGTH (MB)   RECORD NAMES
              1      20       51.65       500      610      700      900      950      970     1000      129      960     1100   
                                          VAR    BASINP    GEOM    SYMINP    ZMAT    AOBASIS   BASIS     P2S    ABASIS      S 
                                         1400     1410     1420     1200     1210     1080     1600     1650     1300     1700   
                                         EKIN       V       ECP      H0       H01     AOSYM     SMH    MOLCAS    ERIS     OPER   

              2       4        2.86       700     1000      520     4202   
                                         GEOM     BASIS   MCVARS     RHF  

 PROGRAMS   *        TOTAL       RHF       INT
 CPU TIMES  *         4.80      0.44      4.20
 REAL TIME  *         7.37 SEC
 DISK USED  *       136.86 MB      
 **********************************************************************************************************************************


 PROGRAM * POP (Mulliken population analysis)

 
 Density matrix read from record         4202.2  Type=RHF/CHARGE (state 1.6)
 
 Population analysis by basis function type

 Unique atom        s        p        d        f        g    Total    Charge
   1  NI      3.99969  5.99972  8.00025  0.00027  0.00006 18.00000  - 0.00000


 **********************************************************************************************************************************
 DATASETS  * FILE   NREC   LENGTH (MB)   RECORD NAMES
              1      20       51.65       500      610      700      900      950      970     1000      129      960     1100   
                                          VAR    BASINP    GEOM    SYMINP    ZMAT    AOBASIS   BASIS     P2S    ABASIS      S 
                                         1400     1410     1420     1200     1210     1080     1600     1650     1300     1700   
                                         EKIN       V       ECP      H0       H01     AOSYM     SMH    MOLCAS    ERIS     OPER   

              2       4        2.86       700     1000      520     4202   
                                         GEOM     BASIS   MCVARS     RHF  

 PROGRAMS   *        TOTAL       POP       RHF       INT
 CPU TIMES  *         4.80      0.00      0.44      4.20
 REAL TIME  *         7.39 SEC
 DISK USED  *       136.86 MB      
 **********************************************************************************************************************************


 PROGRAM * MULTI (Direct Multiconfiguration SCF)       Authors: P.J. Knowles, H.-J. Werner (1984)     S.T. Elbert (1988)


 Number of closed-shell orbitals:   5 (   2   1   1   0   1   0   0   0 )
 Number of active  orbitals:        5 (   2   0   0   1   0   1   1   0 )
 Number of external orbitals:     134 (  27  21  21  12  21  12  12   8 )

 State symmetry 1

 Number of electrons:     8    Spin symmetry=Triplet   Space symmetry=1
 Number of states:        1
 Number of CSFs:          1   (1 determinants, 10 intermediate states)

 State symmetry 2

 Number of electrons:     8    Spin symmetry=Triplet   Space symmetry=4
 Number of states:        3
 Number of CSFs:          3   (3 determinants, 10 intermediate states)

 State symmetry 3

 Number of electrons:     8    Spin symmetry=Triplet   Space symmetry=6
 Number of states:        3
 Number of CSFs:          3   (3 determinants, 10 intermediate states)

 State symmetry 4

 Number of electrons:     8    Spin symmetry=Triplet   Space symmetry=7
 Number of states:        3
 Number of CSFs:          3   (3 determinants, 10 intermediate states)

 Molecular orbitals read from record     4202.2  Type=RHF/CANONICAL (state 1.6)
 *** IN SYMMETRY 1 ORBITAL  1 SYMMETRY CONTAMINATION OF 0.173D-01 HAS BEEN REMOVED
 *** IN SYMMETRY 1 ORBITAL  2 SYMMETRY CONTAMINATION OF 0.230D-01 HAS BEEN REMOVED
 *** IN SYMMETRY 1 ORBITAL  3 SYMMETRY CONTAMINATION OF 0.373D+00 HAS BEEN REMOVED
 *** IN SYMMETRY 1 ORBITAL  4 SYMMETRY CONTAMINATION OF 0.367D+00 HAS BEEN REMOVED

 EXTRA SYMMETRY OF MOS IN SYMMETRY 1:   1 1 3 2 1 3 2 1 3 2   1 3 2 1 5 6 4 3 2 1   3 2 5 6 4 3 2 5 6 4   1
 *** IN SYMMETRY 2 ORBITAL  1 SYMMETRY CONTAMINATION OF 0.594D-02 HAS BEEN REMOVED
 EXTRA SYMMETRY OF MOS IN SYMMETRY 2:   1 1 1 1 3 2 1 3 2 1   3 2 5 6 4 1 3 2 5 6   4 1
 *** IN SYMMETRY 3 ORBITAL  1 SYMMETRY CONTAMINATION OF 0.190D-01 HAS BEEN REMOVED
 EXTRA SYMMETRY OF MOS IN SYMMETRY 3:   1 1 1 1 2 3 1 2 3 1   2 3 6 5 4 1 2 3 6 5   4 1
 *** IN SYMMETRY 4 ORBITAL  1 SYMMETRY CONTAMINATION OF 0.465D-02 HAS BEEN REMOVED
 EXTRA SYMMETRY OF MOS IN SYMMETRY 4:   1 1 1 1 3 2 1 1 3 2   1 3 2
 *** IN SYMMETRY 5 ORBITAL  1 SYMMETRY CONTAMINATION OF 0.685D-02 HAS BEEN REMOVED
 EXTRA SYMMETRY OF MOS IN SYMMETRY 5:   1 1 1 1 3 2 1 3 2 1   3 2 5 4 6 1 3 2 5 4   6 1
 *** IN SYMMETRY 6 ORBITAL  1 SYMMETRY CONTAMINATION OF 0.190D-02 HAS BEEN REMOVED
 EXTRA SYMMETRY OF MOS IN SYMMETRY 6:   1 1 1 1 3 2 1 1 3 2   1 3 2
 *** IN SYMMETRY 7 ORBITAL  1 SYMMETRY CONTAMINATION OF 0.509D-02 HAS BEEN REMOVED
 EXTRA SYMMETRY OF MOS IN SYMMETRY 7:   1 1 1 1 2 3 1 1 2 3   1 2 3
 EXTRA SYMMETRY OF MOS IN SYMMETRY 8:   1 1 1 2 3 1 2 3

 Wavefunction dump at record             5202.2

 Convergence thresholds  0.10E-01 (gradient)  0.10E-05 (energy)  0.10E-02 (step length)

 Weight factors for state symmetry  1:    0.10000
 Weight factors for state symmetry  2:    0.10000   0.10000   0.10000
 Weight factors for state symmetry  3:    0.10000   0.10000   0.10000
 Weight factors for state symmetry  4:    0.10000   0.10000   0.10000

 Number of orbital rotations:      211   (     4 Core/Active    117 Core/Virtual   0 Active/Active     90 Active/Virtual)
 Total number of variables:        239


 ITER. MIC  NCI  NEG     ENERGY(VAR)     ENERGY(PROJ)   ENERGY CHANGE     GRAD(0)  GRAD(ORB)   GRAD(CI)     STEP       TIME

   1   31   16    0    -168.44636819    -168.44883043   -0.00246225    0.09145949 0.00000000 0.00000000  0.37D-01      0.20
   2   26   20    0    -168.44883780    -168.44883802   -0.00000022    0.00083704 0.00000000 0.00000000  0.49D-03      0.36
   3   76   48    0    -168.44883802    -168.44883802   -0.00000000    0.00000011 0.00000000 0.00000000  0.74D-07      0.58

 ** WVFN ****  CONVERGENCE REACHED, FINAL GRADIENT:  0.10D-11



 Results for state 1.1
 =====================

 !MCSCF STATE 1.1 Energy             -168.475269780869
 Nuclear energy                         0.00000000
 Kinetic energy                       106.95744028
 One electron energy                 -300.82441997
 Two electron energy                  132.34915019
 Virial ratio                           2.57516176

 !MCSCF STATE 1.1 Dipole moment         0.00000000     0.00000000     0.00000000
 Dipole moment /Debye                   0.00000000     0.00000000     0.00000000



 Results for state 1.4
 =====================

 !MCSCF STATE 1.4 Energy             -168.475269780869
 Nuclear energy                         0.00000000
 Kinetic energy                       106.95744028
 One electron energy                 -300.82441997
 Two electron energy                  132.34915019
 Virial ratio                           2.57516176

 !MCSCF STATE 1.4 Dipole moment         0.00000000     0.00000000     0.00000000
 Dipole moment /Debye                   0.00000000     0.00000000     0.00000000

 Results for state 2.4
 =====================

 !MCSCF STATE 2.4 Energy             -168.475269780869
 Nuclear energy                         0.00000000
 Kinetic energy                       106.95744028
 One electron energy                 -300.82441997
 Two electron energy                  132.34915019
 Virial ratio                           2.57516176

 !MCSCF STATE 2.4 Dipole moment         0.00000000     0.00000000     0.00000000
 Dipole moment /Debye                   0.00000000     0.00000000     0.00000000

 Results for state 3.4
 =====================

 !MCSCF STATE 3.4 Energy             -168.387163897401
 Nuclear energy                         0.00000000
 Kinetic energy                       106.95744028
 One electron energy                 -300.82441997
 Two electron energy                  132.43725607
 Virial ratio                           2.57433801

 !MCSCF STATE 3.4 Dipole moment         0.00000000     0.00000000     0.00000000
 Dipole moment /Debye                   0.00000000     0.00000000     0.00000000



 Results for state 1.6
 =====================

 !MCSCF STATE 1.6 Energy             -168.475269780869
 Nuclear energy                         0.00000000
 Kinetic energy                       106.95744028
 One electron energy                 -300.82441997
 Two electron energy                  132.34915019
 Virial ratio                           2.57516176

 !MCSCF STATE 1.6 Dipole moment         0.00000000     0.00000000     0.00000000
 Dipole moment /Debye                   0.00000000     0.00000000     0.00000000

 Results for state 2.6
 =====================

 !MCSCF STATE 2.6 Energy             -168.475269780869
 Nuclear energy                         0.00000000
 Kinetic energy                       106.95744028
 One electron energy                 -300.82441997
 Two electron energy                  132.34915019
 Virial ratio                           2.57516176

 !MCSCF STATE 2.6 Dipole moment         0.00000000     0.00000000     0.00000000
 Dipole moment /Debye                   0.00000000     0.00000000     0.00000000

 Results for state 3.6
 =====================

 !MCSCF STATE 3.6 Energy             -168.387163897401
 Nuclear energy                         0.00000000
 Kinetic energy                       106.95744028
 One electron energy                 -300.82441997
 Two electron energy                  132.43725607
 Virial ratio                           2.57433801

 !MCSCF STATE 3.6 Dipole moment         0.00000000     0.00000000     0.00000000
 Dipole moment /Debye                   0.00000000     0.00000000     0.00000000



 Results for state 1.7
 =====================

 !MCSCF STATE 1.7 Energy             -168.475269780869
 Nuclear energy                         0.00000000
 Kinetic energy                       106.95744028
 One electron energy                 -300.82441997
 Two electron energy                  132.34915019
 Virial ratio                           2.57516176

 !MCSCF STATE 1.7 Dipole moment         0.00000000     0.00000000     0.00000000
 Dipole moment /Debye                   0.00000000     0.00000000     0.00000000

 Results for state 2.7
 =====================

 !MCSCF STATE 2.7 Energy             -168.475269780869
 Nuclear energy                         0.00000000
 Kinetic energy                       106.95744028
 One electron energy                 -300.82441997
 Two electron energy                  132.34915019
 Virial ratio                           2.57516176

 !MCSCF STATE 2.7 Dipole moment         0.00000000     0.00000000     0.00000000
 Dipole moment /Debye                   0.00000000     0.00000000     0.00000000

 Results for state 3.7
 =====================

 !MCSCF STATE 3.7 Energy             -168.387163897401
 Nuclear energy                         0.00000000
 Kinetic energy                       106.95744028
 One electron energy                 -300.82441997
 Two electron energy                  132.43725607
 Virial ratio                           2.57433801

 !MCSCF STATE 3.7 Dipole moment         0.00000000     0.00000000     0.00000000
 Dipole moment /Debye                   0.00000000     0.00000000     0.00000000

 State-averaged charge density matrix saved on record  5202.2 (density set 1)

 !MCSCF expec        <1.1|EKIN|1.1>   106.957440276076
 !MCSCF expec        <1.4|EKIN|1.4>   106.957440276076
 !MCSCF expec        <2.4|EKIN|2.4>   106.957440276074
 !MCSCF expec        <3.4|EKIN|3.4>   106.957440276075
 !MCSCF expec        <1.6|EKIN|1.6>   106.957440276075
 !MCSCF expec        <2.6|EKIN|2.6>   106.957440276074
 !MCSCF expec        <3.6|EKIN|3.6>   106.957440276075
 !MCSCF expec        <1.7|EKIN|1.7>   106.957440276075
 !MCSCF expec        <2.7|EKIN|2.7>   106.957440276074
 !MCSCF expec        <3.7|EKIN|3.7>   106.957440276075

 !MCSCF expec         <1.1|POT|1.1>   -23.585198811485
 !MCSCF expec         <1.4|POT|1.4>   -23.585198811485
 !MCSCF expec         <2.4|POT|2.4>   -23.585198811485
 !MCSCF expec         <3.4|POT|3.4>   -23.585198811485
 !MCSCF expec         <1.6|POT|1.6>   -23.585198811485
 !MCSCF expec         <2.6|POT|2.6>   -23.585198811485
 !MCSCF expec         <3.6|POT|3.6>   -23.585198811485
 !MCSCF expec         <1.7|POT|1.7>   -23.585198811485
 !MCSCF expec         <2.7|POT|2.7>   -23.585198811485
 !MCSCF expec         <3.7|POT|3.7>   -23.585198811485


 NATURAL ORBITALS (state averaged)
 =================================

   Orb     Occ        Energy       Coefficients

                                   1 1s      1 1s      1 1s      1 1s      1 1s      1 1s      1 1s      1 1s      1 3d0     1 3d2+ 
                                   1 3d0     1 3d2+    1 3d0     1 3d2+    1 3d0     1 3d2+    1 3d0     1 3d2+    1 3d0     1 3d2+ 
                                   1 3d0     1 3d2+    1 5g0     1 5g4+    1 5g2+    1 5g0     1 5g4+    1 5g2+    1 5g0     1 5g4+ 
                                   1 5g2+ 

   1.1  2.00000    -5.054102     0.999949  0.000069 -0.000028  0.000023  0.000016 -0.000077  0.000321 -0.000269  0.000000  0.000000
                                 0.000000  0.000000  0.000000  0.000000  0.000000  0.000000  0.000000  0.000000  0.000000  0.000000
                                 0.000000  0.000000  0.000000  0.000000  0.000000  0.000000  0.000000  0.000000  0.000000  0.000000
                                 0.000000

   2.1  2.00000    -0.281220    -0.000005  1.000031 -0.000015  0.000010  0.000007 -0.000037  0.000058 -0.000051  0.000000  0.000000
                                 0.000000  0.000000  0.000000  0.000000  0.000000  0.000000  0.000000  0.000000  0.000000  0.000000
                                 0.000000  0.000000  0.000000  0.000000  0.000000  0.000000  0.000000  0.000000  0.000000  0.000000
                                 0.000000

   3.1  1.60000    -0.492014     0.000000  0.000000  0.000000  0.000000  0.000000  0.000000  0.000000  0.000000  0.000000  0.999112
                                 0.000000 -0.034353  0.000000 -0.012337  0.000000 -0.001435  0.000000 -0.001066  0.000000  0.000167
                                 0.000000 -0.000164  0.000000  0.000000  0.000000  0.000000  0.000000  0.000000  0.000000  0.000000
                                 0.000000

   4.1  1.60000    -0.492014     0.000000  0.000000  0.000000  0.000000  0.000000  0.000000  0.000000  0.000000  0.999112  0.000000
                                -0.034353  0.000000 -0.012337  0.000000 -0.001435  0.000000 -0.001066  0.000000  0.000167  0.000000
                                -0.000164  0.000000  0.000000  0.000000  0.000000  0.000000  0.000000  0.000000  0.000000  0.000000
                                 0.000000

                                   1 2px     1 2px     1 2px     1 2px     1 2px     1 2px     1 2px     1 2px     1 4f1+    1 4f3+ 
                                   1 4f1+    1 4f3+    1 4f1+    1 4f3+    1 4f1+    1 4f3+    1 6h1+    1 6h3+    1 6h5+    1 6h1+ 
                                   1 6h3+    1 6h5+ 

   1.2  2.00000    -3.318161     1.000358  0.014218  0.012009 -0.000385 -0.000869 -0.004438 -0.000025 -0.000001  0.000000  0.000000
                                 0.000000  0.000000  0.000000  0.000000  0.000000  0.000000  0.000000  0.000000  0.000000  0.000000
                                 0.000000  0.000000

                                   1 2py     1 2py     1 2py     1 2py     1 2py     1 2py     1 2py     1 2py     1 4f1-    1 4f3- 
                                   1 4f1-    1 4f3-    1 4f1-    1 4f3-    1 4f1-    1 4f3-    1 6h1-    1 6h3-    1 6h5-    1 6h1- 
                                   1 6h3-    1 6h5- 

   1.3  2.00000    -3.318161     1.000358  0.014218  0.012009 -0.000385 -0.000869 -0.004438 -0.000025 -0.000001  0.000000  0.000000
                                 0.000000  0.000000  0.000000  0.000000  0.000000  0.000000  0.000000  0.000000  0.000000  0.000000
                                 0.000000  0.000000

                                   1 3d2-    1 3d2-    1 3d2-    1 3d2-    1 3d2-    1 3d2-    1 3d2-    1 5g2-    1 5g4-    1 5g2- 
                                   1 5g4-    1 5g2-    1 5g4- 

   1.4  1.60000    -0.492014     0.999112 -0.034353 -0.012337 -0.001435 -0.001066  0.000167 -0.000164  0.000000  0.000000  0.000000
                                 0.000000  0.000000  0.000000

                                   1 2pz     1 2pz     1 2pz     1 2pz     1 2pz     1 2pz     1 2pz     1 2pz     1 4f0     1 4f2+ 
                                   1 4f0     1 4f2+    1 4f0     1 4f2+    1 4f0     1 4f2+    1 6h2+    1 6h4+    1 6h0     1 6h2+ 
                                   1 6h4+    1 6h0  

   1.5  2.00000    -3.318161     1.000358  0.014218  0.012009 -0.000385 -0.000869 -0.004438 -0.000025 -0.000001  0.000000  0.000000
                                 0.000000  0.000000  0.000000  0.000000  0.000000  0.000000  0.000000  0.000000  0.000000  0.000000
                                 0.000000  0.000000

                                   1 3d1+    1 3d1+    1 3d1+    1 3d1+    1 3d1+    1 3d1+    1 3d1+    1 5g1+    1 5g3+    1 5g1+ 
                                   1 5g3+    1 5g1+    1 5g3+ 

   1.6  1.60000    -0.492014     0.999112 -0.034353 -0.012337 -0.001435 -0.001066  0.000167 -0.000164  0.000000  0.000000  0.000000
                                 0.000000  0.000000  0.000000

                                   1 3d1-    1 3d1-    1 3d1-    1 3d1-    1 3d1-    1 3d1-    1 3d1-    1 5g1-    1 5g3-    1 5g1- 
                                   1 5g3-    1 5g1-    1 5g3- 

   1.7  1.60000    -0.492014     0.999112 -0.034353 -0.012337 -0.001435 -0.001066  0.000167 -0.000164  0.000000  0.000000  0.000000
                                 0.000000  0.000000  0.000000
 

 EXTRA SYMMETRY OF MOS IN SYMMETRY 1:   1 1 3 2 1 3 2 1 3 2   1 3 2 1 6 4 5 3 2 1   2 3 6 4 5 3 2 4 6 5   1
 EXTRA SYMMETRY OF MOS IN SYMMETRY 2:   1 1 1 1 3 2 1 3 2 1   3 2 5 4 6 1 3 2 5 6   4 1
 EXTRA SYMMETRY OF MOS IN SYMMETRY 3:   1 1 1 1 3 2 1 3 2 1   3 2 5 4 6 1 3 2 5 6   4 1
 EXTRA SYMMETRY OF MOS IN SYMMETRY 4:   1 1 1 1 2 3 1 1 2 3   1 2 3
 EXTRA SYMMETRY OF MOS IN SYMMETRY 5:   1 1 1 1 2 3 1 3 2 1   3 2 6 4 5 1 3 2 6 4   5 1
 EXTRA SYMMETRY OF MOS IN SYMMETRY 6:   1 1 1 1 2 3 1 1 2 3   1 2 3
 EXTRA SYMMETRY OF MOS IN SYMMETRY 8:   1 1 1 3 2 1 3 2

 Natural orbital dump (state averaged) at molpro section  5202.2    (Orbital set 2)


 CI vector for state symmetry 1
 ==============================

 aa 2 2 2          1.0000000

 TOTAL ENERGIES                      -168.47526978

 CI vector for state symmetry 2
 ==============================

 2a a 2 2          0.0000000   1.0000000   0.0000000
 22 2 a a          0.8944272   0.0000000   0.4472136
 a2 a 2 2         -0.4472136   0.0000000   0.8944272

 TOTAL ENERGIES                      -168.47526978  -168.47526978  -168.38716390

 CI vector for state symmetry 3
 ==============================

 2a 2 a 2          0.6274184   0.0796625   0.7745967
 22 a 2 a          0.4542949   0.7704649  -0.4472136
 a2 2 a 2          0.6324257  -0.6324854  -0.4472136

 TOTAL ENERGIES                      -168.47526978  -168.47526978  -168.38716390

 CI vector for state symmetry 4
 ==============================

 22 a a 2         -0.4015006   0.7992479  -0.4472136
 2a 2 2 a         -0.6206480   0.1216389   0.7745967
 a2 2 2 a          0.6734933   0.5885633   0.4472136

 TOTAL ENERGIES                      -168.47526978  -168.47526978  -168.38716390



 **********************************************************************************************************************************
 DATASETS  * FILE   NREC   LENGTH (MB)   RECORD NAMES
              1      21       53.48       500      610      700      900      950      970     1000      129      960     1100   
                                          VAR    BASINP    GEOM    SYMINP    ZMAT    AOBASIS   BASIS     P2S    ABASIS      S 
                                         1400     1410     1420     1200     1210     1080     1600     1650     1300     1700   
                                         EKIN       V       ECP      H0       H01     AOSYM     SMH    MOLCAS    ERIS     OPER   
                                         1380   
                                         JKOP   

              2       5        5.47       700     1000      520     4202     5202   
                                         GEOM     BASIS   MCVARS     RHF     MCSCF   

 PROGRAMS   *        TOTAL     MULTI       POP       RHF       INT
 CPU TIMES  *         5.59      0.80      0.00      0.44      4.20
 REAL TIME  *        11.00 SEC
 DISK USED  *       136.86 MB      
 **********************************************************************************************************************************


 PROGRAM * RHF-SCF (OPEN SHELL)       Authors: W. Meyer, H.-J. Werner


 NUMBER OF ELECTRONS:      10+    8-    SPACE SYMMETRY=1    SPIN SYMMETRY: Triplet 
 CONVERGENCE THRESHOLDS:    1.00E-05 (Density)    1.00E-07 (Energy)
 MAX. NUMBER OF ITERATIONS:        0
 INTERPOLATION TYPE:            DIIS
 INTERPOLATION STEPS:              2 (START)      1 (STEP)
 LEVEL SHIFTS:                 -0.60 (CLOSED) -0.30 (OPEN) 


 Singly occupied orbitals:      3.1       4.1
 Molecular orbitals read from record     5202.2  Type=MCSCF/NATURAL (state averaged)

 Molecular orbital dump at record        2101.2

 ITERATION    DDIFF          GRAD             ENERGY        2-EL.EN.            DIPOLE MOMENTS         DIIS   ORB.
    1      0.000D+00      0.000D+00      -168.47526978    264.698300    0.00000    0.00000    0.00000    0    start

 Final alpha occupancy:   4   1   1   1   1   1   1   0
 Final beta  occupancy:   2   1   1   1   1   1   1   0

 !RHF STATE 1.1 Energy               -168.475269780869
 Nuclear energy                         0.00000000
 One-electron energy                 -300.82441997
 Two-electron energy                  132.34915019
 Virial quotient                       -1.57516176
 !RHF STATE 1.1 Dipole moment           0.00000000     0.00000000     0.00000000
 Dipole moment /Debye                   0.00000000     0.00000000     0.00000000
 

 !RHF expec          <1.1|EKIN|1.1>   106.957440276076
 
 !RHF expec           <1.1|POT|1.1>   -23.585198811485

 ELECTRON ORBITALS
 =================


   Orb  Occ    Energy  Couls-En    Coefficients

                                   1 1s      1 1s      1 1s      1 1s      1 1s      1 1s      1 1s      1 1s      1 3d0     1 3d2+ 
                                   1 3d0     1 3d2+    1 3d0     1 3d2+    1 3d0     1 3d2+    1 3d0     1 3d2+    1 3d0     1 3d2+ 
                                   1 3d0     1 3d2+    1 5g0     1 5g4+    1 5g2+    1 5g0     1 5g4+    1 5g2+    1 5g0     1 5g4+ 
                                   1 5g2+ 

   1.1   2    -5.0541  -26.4340  0.999949  0.000069 -0.000028  0.000023  0.000016 -0.000077  0.000321 -0.000269  0.000000  0.000000
                                 0.000000  0.000000  0.000000  0.000000  0.000000  0.000000  0.000000  0.000000  0.000000  0.000000
                                 0.000000  0.000000  0.000000  0.000000  0.000000  0.000000  0.000000  0.000000  0.000000  0.000000
                                 0.000000

   2.1   2    -0.2812   -7.0830 -0.000005  1.000031 -0.000015  0.000010  0.000007 -0.000037  0.000058 -0.000051  0.000000  0.000000
                                 0.000000  0.000000  0.000000  0.000000  0.000000  0.000000  0.000000  0.000000  0.000000  0.000000
                                 0.000000  0.000000  0.000000  0.000000  0.000000  0.000000  0.000000  0.000000  0.000000  0.000000
                                 0.000000

   3.1   +    -0.4920  -16.4311  0.000000  0.000000  0.000000  0.000000  0.000000  0.000000  0.000000  0.000000  0.000000  0.999112
                                 0.000000 -0.034353  0.000000 -0.012337  0.000000 -0.001435  0.000000 -0.001066  0.000000  0.000167
                                 0.000000 -0.000164  0.000000  0.000000  0.000000  0.000000  0.000000  0.000000  0.000000  0.000000
                                 0.000000

   4.1   +    -0.4920  -16.4311  0.000000  0.000000  0.000000  0.000000  0.000000  0.000000  0.000000  0.000000  0.999112  0.000000
                                -0.034353  0.000000 -0.012337  0.000000 -0.001435  0.000000 -0.001066  0.000000  0.000167  0.000000
                                -0.000164  0.000000  0.000000  0.000000  0.000000  0.000000  0.000000  0.000000  0.000000  0.000000
                                 0.000000

                                   1 2px     1 2px     1 2px     1 2px     1 2px     1 2px     1 2px     1 2px     1 4f1+    1 4f3+ 
                                   1 4f1+    1 4f3+    1 4f1+    1 4f3+    1 4f1+    1 4f3+    1 6h1+    1 6h3+    1 6h5+    1 6h1+ 
                                   1 6h3+    1 6h5+ 

   1.2   2    -3.3182  -22.8096  1.000358  0.014218  0.012009 -0.000385 -0.000869 -0.004438 -0.000025 -0.000001  0.000000  0.000000
                                 0.000000  0.000000  0.000000  0.000000  0.000000  0.000000  0.000000  0.000000  0.000000  0.000000
                                 0.000000  0.000000

                                   1 2py     1 2py     1 2py     1 2py     1 2py     1 2py     1 2py     1 2py     1 4f1-    1 4f3- 
                                   1 4f1-    1 4f3-    1 4f1-    1 4f3-    1 4f1-    1 4f3-    1 6h1-    1 6h3-    1 6h5-    1 6h1- 
                                   1 6h3-    1 6h5- 

   1.3   2    -3.3182  -22.8096  1.000358  0.014218  0.012009 -0.000385 -0.000869 -0.004438 -0.000025 -0.000001  0.000000  0.000000
                                 0.000000  0.000000  0.000000  0.000000  0.000000  0.000000  0.000000  0.000000  0.000000  0.000000
                                 0.000000  0.000000

                                   1 3d2-    1 3d2-    1 3d2-    1 3d2-    1 3d2-    1 3d2-    1 3d2-    1 5g2-    1 5g4-    1 5g2- 
                                   1 5g4-    1 5g2-    1 5g4- 

   1.4   2    -0.4920  -16.4311  0.999112 -0.034353 -0.012337 -0.001435 -0.001066  0.000167 -0.000164  0.000000  0.000000  0.000000
                                 0.000000  0.000000  0.000000

                                   1 2pz     1 2pz     1 2pz     1 2pz     1 2pz     1 2pz     1 2pz     1 2pz     1 4f0     1 4f2+ 
                                   1 4f0     1 4f2+    1 4f0     1 4f2+    1 4f0     1 4f2+    1 6h2+    1 6h4+    1 6h0     1 6h2+ 
                                   1 6h4+    1 6h0  

   1.5   2    -3.3182  -22.8096  1.000358  0.014218  0.012009 -0.000385 -0.000869 -0.004438 -0.000025 -0.000001  0.000000  0.000000
                                 0.000000  0.000000  0.000000  0.000000  0.000000  0.000000  0.000000  0.000000  0.000000  0.000000
                                 0.000000  0.000000

                                   1 3d1+    1 3d1+    1 3d1+    1 3d1+    1 3d1+    1 3d1+    1 3d1+    1 5g1+    1 5g3+    1 5g1+ 
                                   1 5g3+    1 5g1+    1 5g3+ 

   1.6   2    -0.4920  -16.4311  0.999112 -0.034353 -0.012337 -0.001435 -0.001066  0.000167 -0.000164  0.000000  0.000000  0.000000
                                 0.000000  0.000000  0.000000

                                   1 3d1-    1 3d1-    1 3d1-    1 3d1-    1 3d1-    1 3d1-    1 3d1-    1 5g1-    1 5g3-    1 5g1- 
                                   1 5g3-    1 5g1-    1 5g3- 

   1.7   2    -0.4920  -16.4311  0.999112 -0.034353 -0.012337 -0.001435 -0.001066  0.000167 -0.000164  0.000000  0.000000  0.000000
                                 0.000000  0.000000  0.000000

 HOMO      4.1    -0.492014 =     -13.3884eV
 LUMO      2.2     0.045210 =       1.2302eV
 LUMO-HOMO         0.537224 =      14.6186eV


 **********************************************************************************************************************************
 DATASETS  * FILE   NREC   LENGTH (MB)   RECORD NAMES
              1      21       53.48       500      610      700      900      950      970     1000      129      960     1100   
                                          VAR    BASINP    GEOM    SYMINP    ZMAT    AOBASIS   BASIS     P2S    ABASIS      S 
                                         1400     1410     1420     1200     1210     1080     1600     1650     1300     1700   
                                         EKIN       V       ECP      H0       H01     AOSYM     SMH    MOLCAS    ERIS     OPER   
                                         1380   
                                         JKOP   

              2       6        8.20       700     1000      520     4202     5202     2101   
                                         GEOM     BASIS   MCVARS     RHF     MCSCF     RHF  

 PROGRAMS   *        TOTAL       RHF     MULTI       POP       RHF       INT
 CPU TIMES  *         5.64      0.05      0.80      0.00      0.44      4.20
 REAL TIME  *        11.58 SEC
 DISK USED  *       136.86 MB      
 **********************************************************************************************************************************
 SETTING SCF(I)         =      -168.47526978  AU                              
 SETTING _CC_NORM_MAX   =         2.00000000                                  


 PROGRAM * CCSD (Restricted open-shell coupled cluster)     Authors: C. Hampel, H.-J. Werner, 1991, M. Deegan, P.J. Knowles, 1992


 Convergence thresholds:  THRVAR = 1.00D-08  THRDEN = 1.00D-06

 CCSD(T)     terms to be evaluated (factor= 1.000)


 Number of closed-shell orbitals:   8 (   2   1   1   1   1   1   1   0 )
 Number of active  orbitals:        2 (   2   0   0   0   0   0   0   0 )
 Number of external orbitals:     134 (  27  21  21  12  21  12  12   8 )

 Memory could be reduced to 6.64 Mwords without degradation in triples

 Number of N-1 electron functions:              18
 Number of N-2 electron functions:             153
 Number of singly external CSFs:               372
 Number of doubly external CSFs:            271758
 Total number of CSFs:                      272130

 Molecular orbitals read from record     2101.2  Type=RHF/CANONICAL (state 1.1)

 Integral transformation finished. Total CPU:   0.23 sec, npass=  1  Memory used:   1.37 MW

 Starting RMP2 calculation

 Wavefunction is spin-projected

 ITER.      SQ.NORM     CORR.ENERGY   TOTAL ENERGY   ENERGY CHANGE        DEN1      VAR(S)    VAR(P)  DIIS     TIME
   1      1.11014251    -0.86394216  -169.33921194    -0.86394216    -0.00128565  0.38D-05  0.76D-03  1  1     0.26
   2      1.11205676    -0.86530124  -169.34057102    -0.00135909    -0.00001588  0.98D-07  0.16D-04  2  2     0.29
   3      1.11235371    -0.86542016  -169.34068994    -0.00011891    -0.00000007  0.11D-07  0.57D-07  3  3     0.30
   4      1.11236457    -0.86542248  -169.34069226    -0.00000232    -0.00000000  0.80D-09  0.62D-09  4  4     0.31
   5      1.11236474    -0.86542245  -169.34069224     0.00000003    -0.00000000  0.78D-11  0.16D-10  5  5     0.34

 Norm of t1 vector:      0.03749244      S-energy:    -0.00864963      T1 diagnostic:  0.00413167
 Norm of t2 vector:      0.33310518      P-energy:    -0.85677283
                                         Alpha-Beta:  -0.60607609
                                         Alpha-Alpha: -0.15944314
                                         Beta-Beta:   -0.09125360

 Spin contamination <S**2-Sz**2-Sz>     0.00000000
  Reference energy                   -168.475269780869
  RHF-RMP2 correlation energy          -0.865422454360
 !RHF-RMP2 energy                    -169.340692235229
 (NB above energy spin projected)

 Starting RCCSD calculation

 ITER.      SQ.NORM     CORR.ENERGY   TOTAL ENERGY   ENERGY CHANGE        DEN1      VAR(S)    VAR(P)  DIIS     TIME
   1      1.10304371    -0.80516803  -169.28043781    -0.80516803    -0.02470627  0.46D-02  0.42D-02  0  0     0.81
   2      1.11893927    -0.82714688  -169.30241666    -0.02197885    -0.00259387  0.50D-03  0.88D-03  1  1     1.27
   3      1.12404892    -0.82586495  -169.30113473     0.00128193    -0.00050564  0.27D-03  0.19D-03  2  2     1.74
   4      1.13092149    -0.82806943  -169.30333921    -0.00220449    -0.00005826  0.31D-04  0.21D-04  3  3     2.21
   5      1.13375738    -0.82882350  -169.30409328    -0.00075406    -0.00000541  0.34D-05  0.16D-05  4  4     2.68
   6      1.13449581    -0.82891348  -169.30418326    -0.00008998    -0.00000032  0.12D-06  0.13D-06  5  5     3.14
   7      1.13457240    -0.82892327  -169.30419305    -0.00000980    -0.00000006  0.28D-07  0.24D-07  6  6     3.62
   8      1.13458879    -0.82892375  -169.30419353    -0.00000048    -0.00000001  0.14D-08  0.36D-08  6  2     4.08

 Norm of t1 vector:      0.11909776      S-energy:    -0.00882388      T1 diagnostic:  0.01876565
                                                                       D1 diagnostic:  0.06302613
 Norm of t2 vector:      0.34699354      P-energy:    -0.82009987
                                         Alpha-Beta:  -0.60155445
                                         Alpha-Alpha: -0.13737056
                                         Beta-Beta:   -0.08117486

 Singles amplitudes (print threshold =  0.500E-01):

         I         SYM. A    A   T(IA) [Alpha-Alpha]

         2         1         3      0.05530957

 Doubles amplitudes (print threshold =  0.500E-01):

         I         J         SYM. A    SYM. B    A         B      T(IJ, AB) [Alpha-Beta]

         2         2         2         2         1         1     -0.06420824
         2         2         2         2         1         2      0.05241996
         2         2         2         2         2         1      0.05241996
         2         2         3         3         1         1     -0.06420824
         2         2         3         3         1         2      0.05241996
         2         2         3         3         2         1      0.05241996
         2         2         5         5         1         1     -0.06420824
         2         2         5         5         1         2      0.05241996
         2         2         5         5         2         1      0.05241996

 Spin contamination <S**2-Sz**2-Sz>     0.00000000

 Memory could be reduced to 7.05 Mwords without degradation in triples
 

  Correlated core orbitals:             1.1       1.2       1.3       1.5
  Orbital energies:                    -5.1556   -3.4415   -3.4415   -3.4415
 
  RCCSD core-core energy               -0.141099590602
  RCCSD core-valence energy            -0.343545085853
  RCCSD valence correlation energy     -0.344279073539
 

 RESULTS
 =======

  Reference energy                   -168.475269780869
  RCCSD singles energy                 -0.008823878171
  RCCSD pair energy                    -0.820099871822
  RCCSD correlation energy             -0.828923749994
  Triples (T) contribution             -0.024152739000
  Total correlation energy             -0.853076488994
 
  RHF-RCCSD energy                   -169.304193530862
  RHF-RCCSD[T] energy                -169.329715236689
  RHF-RCCSD-T energy                 -169.327989465488
 !RHF-RCCSD(T) energy                -169.328346269862

 Program statistics:

 Available memory in ccsd:               511999000
 Min. memory needed in ccsd:                827349
 Max. memory used in ccsd:                 1156347
 Max. memory used in cckext:                941973 ( 8 integral passes)
 Max. memory used in cckint:               1372225 ( 1 integral passes)



 **********************************************************************************************************************************
 DATASETS  * FILE   NREC   LENGTH (MB)   RECORD NAMES
              1      21       53.48       500      610      700      900      950      970     1000      129      960     1100   
                                          VAR    BASINP    GEOM    SYMINP    ZMAT    AOBASIS   BASIS     P2S    ABASIS      S 
                                         1400     1410     1420     1200     1210     1080     1600     1650     1300     1700   
                                         EKIN       V       ECP      H0       H01     AOSYM     SMH    MOLCAS    ERIS     OPER   
                                         1380   
                                         JKOP   

              2       6        8.20       700     1000      520     4202     5202     2101   
                                         GEOM     BASIS   MCVARS     RHF     MCSCF     RHF  

 PROGRAMS   *        TOTAL  RCCSD(T)       RHF     MULTI       POP       RHF       INT
 CPU TIMES  *        20.15     14.51      0.05      0.80      0.00      0.44      4.20
 REAL TIME  *        33.49 SEC
 DISK USED  *       188.50 MB      
 **********************************************************************************************************************************
 SETTING POSTHF(I)      =      -169.32834627  AU                              
                                                                                                                                                                                                                                                                

         SCF            POSTHF        EKIN          POT
    -168.4752698   -169.3283463   106.9574403   -23.58519881
                                                  

 RCCSD(T)/USERDEF energy=   -169.328346269862

        RCCSD(T)        RHF-SCF         MULTI           RHF-SCF 
   -169.32834627   -168.47526978   -168.38716390   -168.46246425
 **********************************************************************************************************************************
 Variable memory released
