----- GAMESS execution script 'rungms' -----
This job is running on host c506-094.stampede2.tacc.utexas.edu
under operating system Linux at Thu Dec 6 13:35:03 CST 2018
Available scratch disk space (Kbyte units) at beginning of the job is
Filesystem               1K-blocks  Used Available Use% Mounted on
/dev/mapper/rootvg01-tmp 150466784 44476 150422308   1% /tmp
GAMESS temporary binary files will be written to /tmp
GAMESS supplementary output files will be written to /work/04843/aannabe/stampede2/docs/accurate/qpack/Ti/QZ
Copying input file Ti.inp to your run's scratch directory...

 Distributed Data Interface kickoff program.
 Initiating 1 compute processes on 1 nodes to run the following command:
 /work/04843/aannabe/stampede2/codes/gamess-mcb/gamess/gamess.00.x Ti 

          ******************************************************
          *         GAMESS VERSION =  1 MAY 2013 (R1)          *
          *             FROM IOWA STATE UNIVERSITY             *
          * M.W.SCHMIDT, K.K.BALDRIDGE, J.A.BOATZ, S.T.ELBERT, *
          *   M.S.GORDON, J.H.JENSEN, S.KOSEKI, N.MATSUNAGA,   *
          *          K.A.NGUYEN, S.J.SU, T.L.WINDUS,           *
          *       TOGETHER WITH M.DUPUIS, J.A.MONTGOMERY       *
          *         J.COMPUT.CHEM.  14, 1347-1363(1993)        *
          **************** 64 BIT INTEL VERSION ****************

  SINCE 1993, STUDENTS AND POSTDOCS WORKING AT IOWA STATE UNIVERSITY
  AND ALSO IN THEIR VARIOUS JOBS AFTER LEAVING ISU HAVE MADE IMPORTANT
  CONTRIBUTIONS TO THE CODE:
     IVANA ADAMOVIC, CHRISTINE AIKENS, YURI ALEXEEV, POOJA ARORA,
     ANDREY ASADCHEV, ROB BELL, PRADIPTA BANDYOPADHYAY, JONATHAN BENTZ,
     BRETT BODE, GALINA CHABAN, WEI CHEN, CHEOL HO CHOI, PAUL DAY,
     ALBERT DEFUSCO, TIM DUDLEY, DMITRI FEDOROV, GRAHAM FLETCHER,
     MARK FREITAG, KURT GLAESEMANN, DAN KEMP, GRANT MERRILL,
     NORIYUKI MINEZAWA, JONATHAN MULLIN, TAKESHI NAGATA,
     SEAN NEDD, HEATHER NETZLOFF, BOSILJKA NJEGIC, RYAN OLSON, MIKE PAK,
     JIM SHOEMAKER, LYUDMILA SLIPCHENKO, SAROM SOK, JIE SONG,
     TETSUYA TAKETSUGU, SIMON WEBB, SOOHAENG YOO, FEDERICO ZAHARIEV

  ADDITIONAL CODE HAS BEEN PROVIDED BY COLLABORATORS IN OTHER GROUPS:
     IOWA STATE UNIVERSITY:
          JOE IVANIC, LAIMUTIS BYTAUTAS, KLAUS RUEDENBERG
     UNIVERSITY OF TOKYO: KIMIHIKO HIRAO, TAKAHITO NAKAJIMA,
          TAKAO TSUNEDA, MUNEAKI KAMIYA, SUSUMU YANAGISAWA,
          KIYOSHI YAGI, MAHITO CHIBA, SEIKEN TOKURA, NAOAKI KAWAKAMI
     UNIVERSITY OF AARHUS: FRANK JENSEN
     UNIVERSITY OF IOWA: VISVALDAS KAIRYS, HUI LI
     NATIONAL INST. OF STANDARDS AND TECHNOLOGY: WALT STEVENS, DAVID GARMER
     UNIVERSITY OF PISA: BENEDETTA MENNUCCI, JACOPO TOMASI
     UNIVERSITY OF MEMPHIS: HENRY KURTZ, PRAKASHAN KORAMBATH
     UNIVERSITY OF ALBERTA: TOBY ZENG, MARIUSZ KLOBUKOWSKI
     UNIVERSITY OF NEW ENGLAND: MARK SPACKMAN
     MIE UNIVERSITY: HIROAKI UMEDA
     MICHIGAN STATE UNIVERSITY:
          KAROL KOWALSKI, MARTA WLOCH, JEFFREY GOUR, JESSE LUTZ,
          WEI LI, PIOTR PIECUCH
     UNIVERSITY OF SILESIA: MONIKA MUSIAL, STANISLAW KUCHARSKI
     FACULTES UNIVERSITAIRES NOTRE-DAME DE LA PAIX:
          OLIVIER QUINET, BENOIT CHAMPAGNE
     UNIVERSITY OF CALIFORNIA - SANTA BARBARA: BERNARD KIRTMAN
     INSTITUTE FOR MOLECULAR SCIENCE:
          KAZUYA ISHIMURA, MICHIO KATOUDA, AND SHIGERU NAGASE
     UNIVERSITY OF NOTRE DAME: DAN CHIPMAN
     KYUSHU UNIVERSITY:
          HARUYUKI NAKANO,
          FENG LONG GU, JACEK KORCHOWIEC, MARCIN MAKOWSKI, AND YURIKO AOKI,
          HIROTOSHI MORI AND EISAKU MIYOSHI
     PENNSYLVANIA STATE UNIVERSITY:
          TZVETELIN IORDANOV, CHET SWALINA, JONATHAN SKONE,
          SHARON HAMMES-SCHIFFER
     WASEDA UNIVERSITY:
          MASATO KOBAYASHI, TOMOKO AKAMA, TSUGUKI TOUMA,
          TAKESHI YOSHIKAWA, YASUHIRO IKABATA, HIROMI NAKAI
     NANJING UNIVERSITY: SHUHUA LI
     UNIVERSITY OF NEBRASKA:
          PEIFENG SU, DEJUN SI, NANDUN THELLAMUREGE, YALI WANG, HUI LI
     UNIVERSITY OF ZURICH:
          ROBERTO PEVERATI, KIM BALDRIDGE
     N. COPERNICUS UNIVERSITY AND JACKSON STATE UNIVERSITY:
          MARIA BARYSZ

 EXECUTION OF GAMESS BEGUN Thu Dec  6 13:35:03 2018

            ECHO OF THE FIRST FEW INPUT CARDS -
 INPUT CARD> $CONTRL                                                                        
 INPUT CARD>     SCFTYP=ROHF                                                                
 INPUT CARD>     MULT=3                                                                     
 INPUT CARD>     ICHARG=0                                                                   
 INPUT CARD>     RUNTYP=ENERGY                                                              
 INPUT CARD>     MAXIT=150                                                                  
 INPUT CARD>     ECP=READ                                                                   
 INPUT CARD>     ISPHER=1                                                                   
 INPUT CARD> $END                                                                           
 INPUT CARD>                                                                                
 INPUT CARD> $SYSTEM                                                                        
 INPUT CARD>     KDIAG=3                                                                    
 INPUT CARD>     MWORDS=100                                                                 
 INPUT CARD> $END                                                                           
 INPUT CARD>                                                                                
 INPUT CARD>$SCF                                                                            
 INPUT CARD>!    DIRSCF=.t.                                                                 
 INPUT CARD>!    DIIS=.t.                                                                   
 INPUT CARD>!    DAMP=.t.                                                                   
 INPUT CARD>!    SHIFT=.t.                                                                  
 INPUT CARD>    RSTRCT=.t.                                                                  
 INPUT CARD>$END                                                                            
 INPUT CARD>                                                                                
 INPUT CARD> $GUESS                                                                         
 INPUT CARD>!    GUESS=HUCKEL                                                               
 INPUT CARD>    GUESS=MOREAD                                                                
 INPUT CARD>    NORB=22                                                                     
 INPUT CARD>    NORDER=1                                                                    
 INPUT CARD>    IORDER(5)=5,6,13,7,8,9,10,11,12                                             
 INPUT CARD> $END                                                                           
 INPUT CARD>                                                                                
 INPUT CARD>                                                                                
 INPUT CARD> $DATA                                                                          
 INPUT CARD>                                                                                
 INPUT CARD>C1                                                                              
 INPUT CARD>Ti 22 0.0 0.0 0.0                                                               
 INPUT CARD>S  13                                                                           
 INPUT CARD>  1      68.910511  0.00061600                                                  
 INPUT CARD>  2      33.720700  -0.00750100                                                 
 INPUT CARD>  3      18.159676  0.01221800                                                  
 INPUT CARD>  4      12.419305  0.14473900                                                  
 INPUT CARD>  5       7.532195  -0.32862100                                                 
 INPUT CARD>  6       3.504444  -0.31751700                                                 
 INPUT CARD>  7       1.910727  0.35742200                                                  
 INPUT CARD>  8       0.888840  0.67140600                                                  
 INPUT CARD>  9       0.447198  0.28222600                                                  
 INPUT CARD> 10       0.281192  0.03867300                                                  
 INPUT CARD> 11       0.100258  0.00455900                                                  
 INPUT CARD> 12       0.046525  -0.00156500                                                 
 INPUT CARD> 13       0.021840  0.00039800                                                  
  100000000 WORDS OF MEMORY AVAILABLE


     RUN TITLE
     ---------
                                                                                 

 THE POINT GROUP OF THE MOLECULE IS C1      
 THE ORDER OF THE PRINCIPAL AXIS IS     0
 *** WARNING! ATOM   1 SHELL    3 TYPE S HAS NORMALIZATION   1.00001809
 *** WARNING! ATOM   1 SHELL    4 TYPE S HAS NORMALIZATION   1.00000666
 *** WARNING! ATOM   1 SHELL    5 TYPE S HAS NORMALIZATION   1.00000517

 ATOM      ATOMIC                      COORDINATES (BOHR)
           CHARGE         X                   Y                   Z
 TI         22.0     0.0000000000        0.0000000000        0.0000000000

          INTERNUCLEAR DISTANCES (ANGS.)
          ------------------------------

                1 TI    

   1 TI      0.0000000  

  * ... LESS THAN  3.000


     ATOMIC BASIS SET
     ----------------
 THE CONTRACTED PRIMITIVE FUNCTIONS HAVE BEEN UNNORMALIZED
 THE CONTRACTED BASIS FUNCTIONS ARE NOW NORMALIZED TO UNITY

  SHELL TYPE  PRIMITIVE        EXPONENT          CONTRACTION COEFFICIENT(S)

 TI        

      1   S       1            68.9105110    0.000615999679
      1   S       2            33.7207000   -0.007500996086
      1   S       3            18.1596760    0.012217993625
      1   S       4            12.4193050    0.144738924484
      1   S       5             7.5321950   -0.328620828545
      1   S       6             3.5044440   -0.317516834338
      1   S       7             1.9107270    0.357421813518
      1   S       8             0.8888400    0.671405649700
      1   S       9             0.4471980    0.282225852751
      1   S      10             0.2811920    0.038672979823
      1   S      11             0.1002580    0.004558997621
      1   S      12             0.0465250   -0.001564999183
      1   S      13             0.0218400    0.000397999792

      2   S      14            68.9105110   -0.000156000032
      2   S      15            33.7207000    0.001966000399
      2   S      16            18.1596760   -0.003994000811
      2   S      17            12.4193050   -0.036377007389
      2   S      18             7.5321950    0.088593017995
      2   S      19             3.5044440    0.085630017393
      2   S      20             1.9107270   -0.105993021529
      2   S      21             0.8888400   -0.237421048225
      2   S      22             0.4471980   -0.235359047806
      2   S      23             0.2811920   -0.012960002632
      2   S      24             0.1002580    0.433582088069
      2   S      25             0.0465250    0.577873117378
      2   S      26             0.0218400    0.164360033385

      3   S      27            68.9105110    0.000635011485
      3   S      28            33.7207000   -0.006468116987
      3   S      29            18.1596760    0.023444424033
      3   S      30            12.4193050    0.038921703966
      3   S      31             7.5321950   -0.141182553530
      3   S      32             3.5044440   -0.214768884465
      3   S      33             1.9107270    0.320156790587
      3   S      34             0.8888400    0.451070158381
      3   S      35             0.4471980    0.855206467883
      3   S      36             0.2811920   -1.209245871296
      3   S      37             0.1002580   -1.319504865520
      3   S      38             0.0465250    0.866532672737
      3   S      39             0.0218400    0.618927194365

      4   S      40            68.9105110   -0.001178007845
      4   S      41            33.7207000    0.011877079099
      4   S      42            18.1596760   -0.047240314610
      4   S      43            12.4193050   -0.050922339131
      4   S      44             7.5321950    0.237747583344
      4   S      45             3.5044440    0.403187685136
      4   S      46             1.9107270   -0.790966267652
      4   S      47             0.8888400   -1.102283340951
      4   S      48             0.4471980    0.209447394871
      4   S      49             0.2811920    2.527368831690
      4   S      50             0.1002580   -1.789052914677
      4   S      51             0.0465250   -0.867847779665
      4   S      52             0.0218400    1.427404506183

      5   S      53            68.9105110    0.000115000595
      5   S      54            33.7207000    0.002833014649
      5   S      55            18.1596760    0.006141031754
      5   S      56            12.4193050   -0.209683084228
      5   S      57             7.5321950    0.518369680382
      5   S      58             3.5044440    0.304165572777
      5   S      59             1.9107270   -1.232869374912
      5   S      60             0.8888400   -2.090518809639
      5   S      61             0.4471980    7.092751675148
      5   S      62             0.2811920   -4.543767494879
      5   S      63             0.1002580   -2.248281625398
      5   S      64             0.0465250    4.473941133822
      5   S      65             0.0218400   -2.426308545938

      6   S      66             0.0218400    1.000000000000

      7   P      67            84.9140020    0.000093000071
      7   P      68            42.8550510   -0.000836000635
      7   P      69            21.7001310    0.008679006594
      7   P      70            12.2146900   -0.011178008493
      7   P      71             8.3191640   -0.077767059084
      7   P      72             4.0910710   -0.006113004644
      7   P      73             2.2865430    0.271828206524
      7   P      74             1.1598100    0.459585349175
      7   P      75             0.5913430    0.315900240008
      7   P      76             0.3128620    0.071683054462
      7   P      77             0.1848280    0.010541008009
      7   P      78             0.0685900    0.000045000034
      7   P      79             0.0267910   -0.000837000636

      8   P      80            84.9140020    0.000019999991
      8   P      81            42.8550510   -0.000048999978
      8   P      82            21.7001310   -0.000760999656
      8   P      83            12.2146900   -0.000574999740
      8   P      84             8.3191640    0.018283991727
      8   P      85             4.0910710   -0.005942997311
      8   P      86             2.2865430   -0.043211980447
      8   P      87             1.1598100   -0.112512949090
      8   P      88             0.5913430   -0.052072976438
      8   P      89             0.3128620   -0.092262958253
      8   P      90             0.1848280    0.243945889618
      8   P      91             0.0685900    0.413100813079
      8   P      92             0.0267910    0.543984753856

      9   P      93            84.9140020    0.000018999992
      9   P      94            42.8550510    0.000137999943
      9   P      95            21.7001310   -0.004621998095
      9   P      96            12.2146900    0.004464998160
      9   P      97             8.3191640    0.065759972895
      9   P      98             4.0910710   -0.018926992199
      9   P      99             2.2865430   -0.222523908279
      9   P     100             1.1598100   -0.523889784059
      9   P     101             0.5913430   -0.071276970621
      9   P     102             0.3128620    0.812711665011
      9   P     103             0.1848280    0.625497742178
      9   P     104             0.0685900   -0.812188665226
      9   P     105             0.0267910   -0.185795923417

     10   P     106            84.9140020   -0.000257000138
     10   P     107            42.8550510    0.001725000926
     10   P     108            21.7001310   -0.012646006790
     10   P     109            12.2146900    0.029062015604
     10   P     110             8.3191640    0.058979031666
     10   P     111             4.0910710    0.030806016540
     10   P     112             2.2865430   -0.524373281539
     10   P     113             1.1598100   -0.720968387093
     10   P     114             0.5913430    1.023204549365
     10   P     115             0.3128620    1.973875059786
     10   P     116             0.1848280   -2.805093506073
     10   P     117             0.0685900    0.607954326415
     10   P     118             0.0267910    0.447653240348

     11   P     119            84.9140020    0.000270999912
     11   P     120            42.8550510   -0.001901999380
     11   P     121            21.7001310    0.015411994975
     11   P     122            12.2146900   -0.037585987746
     11   P     123             8.3191640   -0.124535959397
     11   P     124             4.0910710    0.040811986694
     11   P     125             2.2865430    1.343822561870
     11   P     126             1.1598100   -0.269410912163
     11   P     127             0.5913430   -3.729588784034
     11   P     128             0.3128620    5.884981081306
     11   P     129             0.1848280   -3.113851984784
     11   P     130             0.0685900   -0.256972916219
     11   P     131             0.0267910    0.710732768278

     12   P     132             0.0267910    1.000000000000

     13   D     133            77.4345590    0.000021999991
     13   D     134            27.7084770    0.004217998213
     13   D     135            12.9142840    0.030086987255
     13   D     136             6.0626740    0.084820964071
     13   D     137             2.8638980    0.171109927519
     13   D     138             1.3865590    0.247450895182
     13   D     139             0.6770580    0.277309882534
     13   D     140             0.3298640    0.261076889410
     13   D     141             0.1594740    0.190335919375
     13   D     142             0.0761740    0.119384949430
     13   D     143             0.0285700    0.031296986743

     14   D     144            77.4345590   -0.000025000006
     14   D     145            27.7084770   -0.004311001099
     14   D     146            12.9142840   -0.030913007882
     14   D     147             6.0626740   -0.088049022450
     14   D     148             2.8638980   -0.178330045468
     14   D     149             1.3865590   -0.234335059748
     14   D     150             0.6770580   -0.195775049916
     14   D     151             0.3298640    0.065872016795
     14   D     152             0.1594740    0.330536084276
     14   D     153             0.0761740    0.461229117599
     14   D     154             0.0285700    0.184273046984

     15   D     155            77.4345590    0.000009999997
     15   D     156            27.7084770    0.006186998071
     15   D     157            12.9142840    0.042629986706
     15   D     158             6.0626740    0.127523960232
     15   D     159             2.8638980    0.248288922571
     15   D     160             1.3865590    0.259760918994
     15   D     161             0.6770580   -0.070793977923
     15   D     162             0.3298640   -0.519395838027
     15   D     163             0.1594740   -0.373657883475
     15   D     164             0.0761740    0.455066858088
     15   D     165             0.0285700    0.489585847323

     16   D     166            77.4345590    0.000011000000
     16   D     167            27.7084770   -0.008025999936
     16   D     168            12.9142840   -0.053874999570
     16   D     169             6.0626740   -0.168794998652
     16   D     170             2.8638980   -0.312343997505
     16   D     171             1.3865590   -0.172030998626
     16   D     172             0.6770580    0.587632995307
     16   D     173             0.3298640    0.528591995778
     16   D     174             0.1594740   -0.859643993134
     16   D     175             0.0761740   -0.273830997813
     16   D     176             0.0285700    0.802753993589

     17   D     177             0.0285700    1.000000000000

     18   F     178             0.1936130    1.000000000000

     19   F     179             0.6754300    1.000000000000

     20   F     180             2.3562790    1.000000000000

     21   G     181             0.4025760    1.000000000000

     22   G     182             1.5972470    1.000000000000

     23   S     183             1.5233490    1.000000000000

     24   S     184             1.7075540    1.000000000000

     25   P     185             1.2700370    1.000000000000

     26   P     186             4.4157830    1.000000000000

     27   D     187             1.5272120    1.000000000000

     28   D     188             2.5036950    1.000000000000

     29   F     189             3.3046870    1.000000000000

     30   G     190             3.5208860    1.000000000000

 TOTAL NUMBER OF BASIS SET SHELLS             =   30
 NUMBER OF CARTESIAN GAUSSIAN BASIS FUNCTIONS =  159
 NOTE: THIS RUN WILL RESTRICT THE MO VARIATION SPACE TO SPHERICAL HARMONICS.
 THE NUMBER OF ORBITALS KEPT IN THE VARIATIONAL SPACE WILL BE PRINTED LATER.
 NUMBER OF ELECTRONS                          =   22
 CHARGE OF MOLECULE                           =    0
 SPIN MULTIPLICITY                            =    3
 NUMBER OF OCCUPIED ORBITALS (ALPHA)          =   12
 NUMBER OF OCCUPIED ORBITALS (BETA )          =   10
 TOTAL NUMBER OF ATOMS                        =    1
 THE NUCLEAR REPULSION ENERGY IS        0.0000000000
 NOTE THIS RUN IS USING CORE POTENTIALS, AND THE NUMBER OF ELECTRONS,
 OCCUPIED ORBITALS, AND NUCLEAR REPULSION ENERGY WILL BE ADJUSTED BELOW
 AFTER REMOVAL OF THE CORE CHARGES.

 THIS MOLECULE IS RECOGNIZED AS BEING LINEAR,
 ORBITAL LZ DEGENERACY TOLERANCE ETOLLZ= 1.00E-06

     $CONTRL OPTIONS
     ---------------
 SCFTYP=ROHF         RUNTYP=ENERGY       EXETYP=RUN     
 MPLEVL=       0     CITYP =NONE         CCTYP =NONE         VBTYP =NONE    
 DFTTYP=NONE         TDDFT =NONE    
 MULT  =       3     ICHARG=       0     NZVAR =       0     COORD =UNIQUE  
 PP    =READ         RELWFN=NONE         LOCAL =NONE         NUMGRD=       F
 ISPHER=       1     NOSYM =       0     MAXIT =     150     UNITS =ANGS    
 PLTORB=       F     MOLPLT=       F     AIMPAC=       F     FRIEND=        
 NPRINT=       7     IREST =       0     GEOM  =INPUT   
 NORMF =       0     NORMP =       0     ITOL  =      20     ICUT  =       9
 INTTYP=BEST         GRDTYP=BEST         QMTTOL= 1.0E-06

     $SYSTEM OPTIONS
     ---------------
  REPLICATED MEMORY=   100000000 WORDS (ON EVERY NODE).
 DISTRIBUTED MEMDDI=           0 MILLION WORDS IN AGGREGATE,
 MEMDDI DISTRIBUTED OVER   1 PROCESSORS IS           0 WORDS/PROCESSOR.
 TOTAL MEMORY REQUESTED ON EACH PROCESSOR=   100000000 WORDS.
 TIMLIM=      525600.00 MINUTES, OR     365.0 DAYS.
 PARALL= F  BALTYP=  DLB     KDIAG=    3  COREFL= F
 MXSEQ2=     300 MXSEQ3=     150

          --------------
          ECP POTENTIALS
          --------------

 PARAMETERS FOR "TI-CCECP" ON ATOM    1 WITH ZCORE  10 AND LMAX  2 ARE
 FOR L= 2      COEFF    N           ZETA
    1       12.00000    1       18.41366
    2      220.96394    3       15.92292
    3      -94.29026    2       13.65001
    4        0.09791    2        5.09555
 FOR L= 0      COEFF    N           ZETA
    1      173.94657    2       12.70581
    2       18.83768    2        6.11179
 FOR L= 1      COEFF    N           ZETA
    1      111.45673    2       12.64092
    2       11.17703    2        5.35437

 THE ECP RUN REMOVES   10 CORE ELECTRONS, AND THE SAME NUMBER OF PROTONS.
 NUMBER OF ELECTRONS KEPT IN THE CALCULATION IS =   12
 NUMBER OF OCCUPIED ORBITALS (ALPHA) KEPT IS    =    7
 NUMBER OF OCCUPIED ORBITALS (BETA ) KEPT IS    =    5
 THE ADJUSTED NUCLEAR REPULSION ENERGY=        0.0000000000
          ECP ANGULAR INTS.........     0.02 SECONDS

          ----------------
          PROPERTIES INPUT
          ----------------

     MOMENTS            FIELD           POTENTIAL          DENSITY
 IEMOM =       1   IEFLD =       0   IEPOT =       0   IEDEN =       0
 WHERE =COMASS     WHERE =NUCLEI     WHERE =NUCLEI     WHERE =NUCLEI  
 OUTPUT=BOTH       OUTPUT=BOTH       OUTPUT=BOTH       OUTPUT=BOTH    
 IEMINT=       0   IEFINT=       0                     IEDINT=       0
                                                       MORB  =       0
          EXTRAPOLATION IN EFFECT
          SOSCF IN EFFECT
 ORBITAL PRINTING OPTION: NPREO=     1   159     2     1

     -------------------------------
     INTEGRAL TRANSFORMATION OPTIONS
     -------------------------------
     NWORD  =            0
     CUTOFF = 1.0E-09     MPTRAN =       0
     DIRTRF =       F     AOINTS =DUP     

          ----------------------
          INTEGRAL INPUT OPTIONS
          ----------------------
 NOPK  =       1 NORDER=       0 SCHWRZ=       F

     ------------------------------------------
     THE POINT GROUP IS C1 , NAXIS= 0, ORDER= 1
     ------------------------------------------

 -- VARIATIONAL SPACE WILL BE RESTRICTED TO PURE SPHERICAL HARMONICS ONLY --
 AFTER EXCLUDING CONTAMINANT COMBINATIONS FROM THE CARTESIAN GAUSSIAN BASIS
 SET, THE NUMBER OF SPHERICAL HARMONICS KEPT IN THE VARIATION SPACE IS  122

     DIMENSIONS OF THE SYMMETRY SUBSPACES ARE
 A   =  122

 ..... DONE SETTING UP THE RUN .....
 STEP CPU TIME =     0.08 TOTAL CPU TIME =        0.1 (    0.0 MIN)
 TOTAL WALL CLOCK TIME=        0.2 SECONDS, CPU UTILIZATION IS  34.78%

          ********************
          1 ELECTRON INTEGRALS
          ********************
 TIME TO DO ORDINARY INTEGRALS=      0.01
 TIME TO DO      ECP INTEGRALS=      0.00
 ...... END OF ONE-ELECTRON INTEGRALS ......
 STEP CPU TIME =     0.01 TOTAL CPU TIME =        0.1 (    0.0 MIN)
 TOTAL WALL CLOCK TIME=        0.4 SECONDS, CPU UTILIZATION IS  23.08%

          -------------
          GUESS OPTIONS
          -------------
          GUESS =MOREAD            NORB  =      22          NORDER=       1
          MIX   =       F          PRTMO =       F          PUNMO =       F
          TOLZ  = 1.0E-08          TOLE  = 1.0E-05
          SYMDEN=       F          PURIFY=       F

 INITIAL GUESS ORBITALS GENERATED BY MOREAD   ROUTINE.

 STATISTICS FOR GENERATION OF SYMMETRY ORBITAL -Q- MATRIX
 NUMBER OF CARTESIAN ATOMIC ORBITALS=        159
 NUMBER OF SPHERICAL CONTAMINANTS DROPPED=    37
 NUMBER OF LINEARLY DEPENDENT MOS DROPPED=     0
 TOTAL NUMBER OF MOS IN VARIATION SPACE=     122

 SYMMETRIES FOR INITIAL GUESS ORBITALS FOLLOW.  ALPHA SET(S).
     7 ORBITALS ARE OCCUPIED (    4 CORE ORBITALS).
     5=A        6=A        7=A        8=A        9=A       10=A       11=A   
    12=A       13=A       14=A       15=A       16=A       17=A   

 SYMMETRIES FOR INITIAL GUESS ORBITALS FOLLOW.   BETA SET(S).
     5 ORBITALS ARE OCCUPIED (    4 CORE ORBITALS).
     5=A        6=A        7=A        8=A        9=A       10=A       11=A   
    12=A       13=A       14=A       15=A   
 ...... END OF INITIAL ORBITAL SELECTION ......
 STEP CPU TIME =     0.01 TOTAL CPU TIME =        0.1 (    0.0 MIN)
 TOTAL WALL CLOCK TIME=        0.4 SECONDS, CPU UTILIZATION IS  23.26%

                    ----------------------
                    AO INTEGRAL TECHNOLOGY
                    ----------------------
     S,P,L SHELL ROTATED AXIS INTEGRALS, REPROGRAMMED BY
        KAZUYA ISHIMURA (IMS) AND JOSE SIERRA (SYNSTAR).
     S,P,D,L SHELL ROTATED AXIS INTEGRALS PROGRAMMED BY
        KAZUYA ISHIMURA (INSTITUTE FOR MOLECULAR SCIENCE).
     S,P,D,F,G SHELL TO TOTAL QUARTET ANGULAR MOMENTUM SUM 5,
        ERIC PROGRAM BY GRAHAM FLETCHER (ELORET AND NASA ADVANCED
        SUPERCOMPUTING DIVISION, AMES RESEARCH CENTER).
     S,P,D,F,G,L SHELL GENERAL RYS QUADRATURE PROGRAMMED BY
        MICHEL DUPUIS (PACIFIC NORTHWEST NATIONAL LABORATORY).

          --------------------
          2 ELECTRON INTEGRALS
          --------------------

 THE -PK- OPTION IS OFF, THE INTEGRALS ARE NOT IN SUPERMATRIX FORM.
 STORING   15000 INTEGRALS/RECORD ON DISK, USING 12 BYTES/INTEGRAL.
 TWO ELECTRON INTEGRAL EVALUATION REQUIRES  140190 WORDS OF MEMORY.
 II,JST,KST,LST =  1  1  1  1 NREC =         1 INTLOC =    1
 II,JST,KST,LST =  2  1  1  1 NREC =         1 INTLOC =    2
 II,JST,KST,LST =  3  1  1  1 NREC =         1 INTLOC =    7
 II,JST,KST,LST =  4  1  1  1 NREC =         1 INTLOC =   22
 II,JST,KST,LST =  5  1  1  1 NREC =         1 INTLOC =   56
 II,JST,KST,LST =  6  1  1  1 NREC =         1 INTLOC =  121
 II,JST,KST,LST =  7  1  1  1 NREC =         1 INTLOC =  232
 II,JST,KST,LST =  8  1  1  1 NREC =         1 INTLOC =  367
 II,JST,KST,LST =  9  1  1  1 NREC =         1 INTLOC =  730
 II,JST,KST,LST = 10  1  1  1 NREC =         1 INTLOC = 1429
 II,JST,KST,LST = 11  1  1  1 NREC =         1 INTLOC = 2635
 II,JST,KST,LST = 12  1  1  1 NREC =         1 INTLOC = 4582
 II,JST,KST,LST = 13  1  1  1 NREC =         1 INTLOC = 7567
 II,JST,KST,LST = 14  1  1  1 NREC =         2 INTLOC = 1264
 II,JST,KST,LST = 15  1  1  1 NREC =         3 INTLOC = 2200
 II,JST,KST,LST = 16  1  1  1 NREC =         4 INTLOC =13075
 II,JST,KST,LST = 17  1  1  1 NREC =         7 INTLOC = 7597
 II,JST,KST,LST = 18  1  1  1 NREC =        11 INTLOC = 5482
 II,JST,KST,LST = 19  1  1  1 NREC =        20 INTLOC = 6665
 II,JST,KST,LST = 20  1  1  1 NREC =        34 INTLOC =14707
 II,JST,KST,LST = 21  1  1  1 NREC =        56 INTLOC = 9940
 II,JST,KST,LST = 22  1  1  1 NREC =       106 INTLOC =12760
 II,JST,KST,LST = 23  1  1  1 NREC =       185 INTLOC = 9529
 II,JST,KST,LST = 24  1  1  1 NREC =       192 INTLOC = 9212
 II,JST,KST,LST = 25  1  1  1 NREC =       199 INTLOC =12292
 II,JST,KST,LST = 26  1  1  1 NREC =       220 INTLOC =13885
 II,JST,KST,LST = 27  1  1  1 NREC =       243 INTLOC =11035
 II,JST,KST,LST = 28  1  1  1 NREC =       295 INTLOC = 2017
 II,JST,KST,LST = 29  1  1  1 NREC =       354 INTLOC = 6994
 II,JST,KST,LST = 30  1  1  1 NREC =       469 INTLOC = 6509
 TOTAL NUMBER OF NONZERO TWO-ELECTRON INTEGRALS =            10408120
        694 INTEGRAL RECORDS WERE STORED ON DISK FILE  8.
  ...... END OF TWO-ELECTRON INTEGRALS .....
 STEP CPU TIME =    59.31 TOTAL CPU TIME =       59.4 (    1.0 MIN)
 TOTAL WALL CLOCK TIME=       59.9 SECONDS, CPU UTILIZATION IS  99.13%

          ---------------------------
                 ROHF SCF CALCULATION
          ---------------------------

     NUCLEAR ENERGY =         0.0000000000
     MAXIT =150     NPUNCH=  2     MULT=  3
     EXTRAP=T  DAMP=F  SHIFT=F  RSTRCT=F  DIIS=F  SOSCF=T
     DENSITY MATRIX CONV=  1.00E-05
     ROHF CANONICALIZATION PARAMETERS
             C-C     O-O     V-V
     ALPHA -0.5000  0.5000  1.5000
     BETA   1.5000  0.5000 -0.5000
     SOSCF WILL OPTIMIZE     815 ORBITAL ROTATION ANGLES. SOGTOL= 2.500E-01
     MEMORY REQUIRED FOR UHF/ROHF ITERS=    264564 WORDS.

 ITER EX      TOTAL ENERGY        E CHANGE  DENSITY CHANGE    ORB. GRAD 
   1  0      -57.2851893503   -57.2851893503   2.428708948   0.000000000
          ---------------START SECOND ORDER SCF---------------
   2  1      -57.1671787245     0.1180106258   0.449925370   0.211498174
   3  2      -57.4030622599    -0.2358835354   0.216919197   0.151906811
   4  3      -57.4905615555    -0.0874992956   0.187548969   0.025798721
   5  4      -57.5008384669    -0.0102769114   0.292537566   0.011045854
   6  5      -57.5075766231    -0.0067381562   0.246847978   0.019804435
   7  6      -57.5128263836    -0.0052497605   1.077824960   0.019514824
   8  7      -57.5092424767     0.0035839069   0.411656743   0.066558719
   9  8      -57.5464494692    -0.0372069926   0.804266512   0.048353222
  10  9      -57.5468626916    -0.0004132223   0.647168045   0.055583993
  11 10      -57.5838740035    -0.0370113119   0.318970342   0.045804849
  12 11      -57.6025260714    -0.0186520679   0.108435009   0.020541183
  13 12      -57.6066407742    -0.0041147028   0.087223722   0.009494936
  14 13      -57.6081205078    -0.0014797336   0.131480031   0.006740623
  15 14      -57.6089651130    -0.0008446052   0.168575688   0.004452484
  16 15      -57.6093765346    -0.0004114217   0.125803849   0.003401076
  17 16      -57.6096220704    -0.0002455358   0.018865682   0.001844738
  18 17      -57.6096736906    -0.0000516201   0.061220648   0.000854884
  19 18      -57.6096846062    -0.0000109156   0.053720226   0.000370009
  20 19      -57.6096872745    -0.0000026683   0.020952396   0.000155746
  21 20      -57.6096877851    -0.0000005105   0.002164004   0.000076883
  22 21      -57.6096878374    -0.0000000523   0.000259835   0.000020222
  23 22      -57.6096878399    -0.0000000025   0.000123739   0.000002769
  24 23      -57.6096878400    -0.0000000001   0.000072073   0.000001559
  25 24      -57.6096878401    -0.0000000000   0.000025487   0.000000658
  26 25      -57.6096878401    -0.0000000000   0.000002686   0.000000258
  27 26      -57.6096878401    -0.0000000000   0.000003044   0.000000084

          -----------------
          DENSITY CONVERGED
          -----------------
     TIME TO FORM FOCK OPERATORS=       3.4 SECONDS (       0.1 SEC/ITER)
     TIME TO SOLVE SCF EQUATIONS=       0.0 SECONDS (       0.0 SEC/ITER)

 FINAL ROHF ENERGY IS      -57.6096878401 AFTER  27 ITERATIONS

          --------------------
          SPIN SZ   =    1.000
          S-SQUARED =    2.000
          --------------------

 LZ VALUE ANALYSIS FOR THE MOS
 ----------------------------------------
 MO     1 (    1) HAS LZ(WEIGHT)= 0.00(100.0%) 
 MO     2 (    2) HAS LZ(WEIGHT)=-1.00( 50.0%)  1.00( 50.0%) 
 MO     3 (    2) HAS LZ(WEIGHT)= 0.00(100.0%) 
 MO     4 (    2) HAS LZ(WEIGHT)=-1.00( 50.0%)  1.00( 50.0%) 
 MO     5 (    3) HAS LZ(WEIGHT)= 0.00(100.0%) 
 MO     6 (    4) HAS LZ(WEIGHT)= 0.00(100.0%) 
 MO     7 (    4) HAS LZ(WEIGHT)= 0.00(100.0%) 
 MO     8 (    5) HAS LZ(WEIGHT)=-1.00( 50.0%)  1.00( 50.0%) 
 MO     9 (    5) HAS LZ(WEIGHT)=-1.00( 50.0%)  1.00( 50.0%) 
 MO    10 (    5) HAS LZ(WEIGHT)= 0.00(100.0%) 
 MO    11 (    6) HAS LZ(WEIGHT)= 0.00(100.0%) 
 MO    12 (    7) HAS LZ(WEIGHT)=-1.00( 50.0%)  1.00( 50.0%) 
 MO    13 (    7) HAS LZ(WEIGHT)= 0.00(100.0%) 
 MO    14 (    7) HAS LZ(WEIGHT)=-1.00( 50.0%)  1.00( 50.0%) 
 MO    15 (    8) HAS LZ(WEIGHT)= 0.00(100.0%) 
 MO    16 (    8) HAS LZ(WEIGHT)= 0.00(100.0%) 
 MO    17 (    9) HAS LZ(WEIGHT)=-1.00( 50.0%)  1.00( 50.0%) 
 MO    18 (    9) HAS LZ(WEIGHT)= 0.00(100.0%) 
 MO    19 (    9) HAS LZ(WEIGHT)=-1.00( 50.0%)  1.00( 50.0%) 
 MO    20 (   10) HAS LZ(WEIGHT)=-1.00( 50.0%)  1.00( 50.0%) 
 MO    21 (   10) HAS LZ(WEIGHT)=-1.00( 50.0%)  1.00( 50.0%) 
 MO    22 (   10) HAS LZ(WEIGHT)= 0.00(100.0%) 
 MO    23 (   11) HAS LZ(WEIGHT)= 0.00(100.0%) 
 MO    24 (   11) HAS LZ(WEIGHT)= 0.00(100.0%) 
 MO    25 (   12) HAS LZ(WEIGHT)= 0.00(100.0%) 
 MO    26 (   13) HAS LZ(WEIGHT)=-1.00( 50.0%)  1.00( 50.0%) 
 MO    27 (   13) HAS LZ(WEIGHT)= 0.00(100.0%) 
 MO    28 (   13) HAS LZ(WEIGHT)=-1.00( 50.0%)  1.00( 50.0%) 
 MO    29 (   14) HAS LZ(WEIGHT)=-0.99( 50.0%)  0.99( 50.0%) 
 MO    30 (   14) HAS LZ(WEIGHT)=-0.99( 50.0%)  0.99( 50.0%) 
 MO    31 (   14) HAS LZ(WEIGHT)= 0.00(100.0%) 
 MO    32 (   15) HAS LZ(WEIGHT)=-1.49( 50.0%)  1.49( 50.0%) 
 MO    33 (   15) HAS LZ(WEIGHT)= 0.00(100.0%) 
 MO    34 (   15) HAS LZ(WEIGHT)=-1.49( 50.0%)  1.49( 50.0%) 
 MO    35 (   16) HAS LZ(WEIGHT)= 0.00(100.0%) 
 MO    36 (   16) HAS LZ(WEIGHT)=-0.50( 50.0%)  0.50( 50.0%) 
 MO    37 (   16) HAS LZ(WEIGHT)=-0.50( 50.0%)  0.50( 50.0%) 
 MO    38 (   17) HAS LZ(WEIGHT)= 0.00(100.0%) 
 MO    39 (   18) HAS LZ(WEIGHT)= 0.00(100.0%) 
 MO    40 (   18) HAS LZ(WEIGHT)= 0.00(100.0%) 
 MO    41 (   19) HAS LZ(WEIGHT)=-1.00( 50.0%)  1.00( 50.0%) 
 MO    42 (   19) HAS LZ(WEIGHT)= 0.00(100.0%) 
 MO    43 (   19) HAS LZ(WEIGHT)=-1.00( 50.0%)  1.00( 50.0%) 
 MO    44 (   20) HAS LZ(WEIGHT)= 0.00(100.0%) 
 MO    45 (   21) HAS LZ(WEIGHT)=-1.00( 50.0%)  1.00( 50.0%) 
 MO    46 (   21) HAS LZ(WEIGHT)=-1.00( 50.0%)  1.00( 50.0%) 
 MO    47 (   21) HAS LZ(WEIGHT)= 0.00(100.0%) 
 MO    48 (   22) HAS LZ(WEIGHT)= 0.00(100.0%) 
 MO    49 (   23) HAS LZ(WEIGHT)= 0.00(100.0%) 
 MO    50 (   23) HAS LZ(WEIGHT)=-0.50( 50.0%)  0.50( 50.0%) 
 MO    51 (   23) HAS LZ(WEIGHT)=-0.50( 50.0%)  0.50( 50.0%) 
 MO    52 (   24) HAS LZ(WEIGHT)= 0.00(100.0%) 
 MO    53 (   24) HAS LZ(WEIGHT)= 0.00(100.0%) 
 MO    54 (   25) HAS LZ(WEIGHT)=-2.50( 50.0%)  2.50( 50.0%) 
 MO    55 (   25) HAS LZ(WEIGHT)=-2.50( 50.0%)  2.50( 50.0%) 
 MO    56 (   25) HAS LZ(WEIGHT)= 0.00(100.0%) 
 MO    57 (   26) HAS LZ(WEIGHT)=-1.50( 50.0%)  1.50( 50.0%) 
 MO    58 (   26) HAS LZ(WEIGHT)= 0.00(100.0%) 
 MO    59 (   26) HAS LZ(WEIGHT)=-1.50( 50.0%)  1.50( 50.0%) 
 MO    60 (   27) HAS LZ(WEIGHT)= 0.00(100.0%) 
 MO    61 (   27) HAS LZ(WEIGHT)=-0.50( 50.0%)  0.50( 50.0%) 
 MO    62 (   27) HAS LZ(WEIGHT)=-0.50( 50.0%)  0.50( 50.0%) 
 MO    63 (   28) HAS LZ(WEIGHT)= 0.00(100.0%) 
 MO    64 (   29) HAS LZ(WEIGHT)= 0.00(100.0%) 
 MO    65 (   29) HAS LZ(WEIGHT)= 0.00(100.0%) 
 MO    66 (   30) HAS LZ(WEIGHT)=-1.00( 50.0%)  1.00( 50.0%) 
 MO    67 (   30) HAS LZ(WEIGHT)= 0.00(100.0%) 
 MO    68 (   30) HAS LZ(WEIGHT)=-1.00( 50.0%)  1.00( 50.0%) 
 MO    69 (   31) HAS LZ(WEIGHT)= 0.00(100.0%) 
 MO    70 (   32) HAS LZ(WEIGHT)=-1.00( 50.0%)  1.00( 50.0%) 
 MO    71 (   32) HAS LZ(WEIGHT)=-1.00( 50.0%)  1.00( 50.0%) 
 MO    72 (   32) HAS LZ(WEIGHT)= 0.00(100.0%) 
 MO    73 (   33) HAS LZ(WEIGHT)= 0.00(100.0%) 
 MO    74 (   33) HAS LZ(WEIGHT)=-1.50( 50.0%)  1.50( 50.0%) 
 MO    75 (   33) HAS LZ(WEIGHT)=-1.50( 50.0%)  1.50( 50.0%) 
 MO    76 (   34) HAS LZ(WEIGHT)= 0.00(100.0%) 
 MO    77 (   34) HAS LZ(WEIGHT)=-0.50( 50.0%)  0.50( 50.0%) 
 MO    78 (   34) HAS LZ(WEIGHT)=-0.50( 50.0%)  0.50( 50.0%) 
 MO    79 (   35) HAS LZ(WEIGHT)= 0.00(100.0%) 
 MO    80 (   36) HAS LZ(WEIGHT)=-0.50( 50.0%)  0.50( 50.0%) 
 MO    81 (   36) HAS LZ(WEIGHT)= 0.00(100.0%) 
 MO    82 (   36) HAS LZ(WEIGHT)=-0.50( 50.0%)  0.50( 50.0%) 
 MO    83 (   37) HAS LZ(WEIGHT)= 0.00(100.0%) 
 MO    84 (   37) HAS LZ(WEIGHT)= 0.00(100.0%) 
 MO    85 (   38) HAS LZ(WEIGHT)= 0.00(100.0%) 
 MO    86 (   39) HAS LZ(WEIGHT)=-2.50( 50.0%)  2.50( 50.0%) 
 MO    87 (   39) HAS LZ(WEIGHT)=-2.50( 50.0%)  2.50( 50.0%) 
 MO    88 (   39) HAS LZ(WEIGHT)= 0.00(100.0%) 
 MO    89 (   40) HAS LZ(WEIGHT)= 0.00(100.0%) 
 MO    90 (   40) HAS LZ(WEIGHT)= 0.00(100.0%) 
 MO    91 (   41) HAS LZ(WEIGHT)= 0.00(100.0%) 
 MO    92 (   41) HAS LZ(WEIGHT)=-1.00( 50.0%)  1.00( 50.0%) 
 MO    93 (   41) HAS LZ(WEIGHT)=-1.00( 50.0%)  1.00( 50.0%) 
 MO    94 (   42) HAS LZ(WEIGHT)= 0.00(100.0%) 
 MO    95 (   43) HAS LZ(WEIGHT)=-1.00( 50.0%)  1.00( 50.0%) 
 MO    96 (   43) HAS LZ(WEIGHT)= 0.00(100.0%) 
 MO    97 (   43) HAS LZ(WEIGHT)=-1.00( 50.0%)  1.00( 50.0%) 
 MO    98 (   44) HAS LZ(WEIGHT)= 0.00(100.0%) 
 MO    99 (   44) HAS LZ(WEIGHT)=-1.50( 50.0%)  1.50( 50.0%) 
 MO   100 (   44) HAS LZ(WEIGHT)=-1.50( 50.0%)  1.50( 50.0%) 
 MO   101 (   45) HAS LZ(WEIGHT)=-0.50( 50.0%)  0.50( 50.0%) 
 MO   102 (   45) HAS LZ(WEIGHT)=-0.50( 50.0%)  0.50( 50.0%) 
 MO   103 (   45) HAS LZ(WEIGHT)= 0.00(100.0%) 
 MO   104 (   46) HAS LZ(WEIGHT)= 0.00(100.0%) 
 MO   105 (   47) HAS LZ(WEIGHT)= 0.00(100.0%) 
 MO   106 (   47) HAS LZ(WEIGHT)= 0.00(100.0%) 
 MO   107 (   48) HAS LZ(WEIGHT)= 0.00(100.0%) 
 MO   108 (   48) HAS LZ(WEIGHT)=-1.00( 50.0%)  1.00( 50.0%) 
 MO   109 (   48) HAS LZ(WEIGHT)=-1.00( 50.0%)  1.00( 50.0%) 
 MO   110 (   49) HAS LZ(WEIGHT)= 0.00(100.0%) 
 MO   111 (   50) HAS LZ(WEIGHT)=-0.50( 50.0%)  0.50( 50.0%) 
 MO   112 (   50) HAS LZ(WEIGHT)=-0.50( 50.0%)  0.50( 50.0%) 
 MO   113 (   50) HAS LZ(WEIGHT)= 0.00(100.0%) 
 MO   114 (   51) HAS LZ(WEIGHT)= 0.00(100.0%) 
 MO   115 (   51) HAS LZ(WEIGHT)= 0.00(100.0%) 
 MO   116 (   52) HAS LZ(WEIGHT)= 0.00(100.0%) 
 MO   117 (   52) HAS LZ(WEIGHT)=-2.50( 50.0%)  2.50( 50.0%) 
 MO   118 (   52) HAS LZ(WEIGHT)=-2.50( 50.0%)  2.50( 50.0%) 
 MO   119 (   53) HAS LZ(WEIGHT)= 0.00(100.0%) 
 MO   120 (   53) HAS LZ(WEIGHT)=-1.00( 50.0%)  1.00( 50.0%) 
 MO   121 (   53) HAS LZ(WEIGHT)=-1.00( 50.0%)  1.00( 50.0%) 
 MO   122 (   54) HAS LZ(WEIGHT)= 0.00(100.0%) 

          ------------
          EIGENVECTORS
          ------------

                      1          2          3          4          5
                   -2.7919    -1.6411    -1.6411    -1.6411    -0.2059
                     A          A          A          A          A   
    1  TI 1  S    0.999868   0.000000   0.000000   0.000000  -0.000165
    2  TI 1  S   -0.000585   0.000000   0.000000   0.000000   0.999306
    3  TI 1  S   -0.000546   0.000000   0.000000   0.000000   0.001975
    4  TI 1  S    0.000091   0.000000   0.000000   0.000000  -0.000064
    5  TI 1  S    0.000163   0.000000   0.000000   0.000000  -0.000015
    6  TI 1  S    0.000667   0.000000   0.000000   0.000000   0.000812
    7  TI 1  X    0.000000   0.000000   0.000000   1.003787   0.000000
    8  TI 1  Y    0.000000   1.003787   0.000000   0.000000   0.000000
    9  TI 1  Z    0.000000   0.000000   1.003787   0.000000   0.000000
   10  TI 1  X    0.000000   0.000000   0.000000   0.050778   0.000000
   11  TI 1  Y    0.000000   0.050778   0.000000   0.000000   0.000000
   12  TI 1  Z    0.000000   0.000000   0.050778   0.000000   0.000000
   13  TI 1  X    0.000000   0.000000   0.000000   0.031176   0.000000
   14  TI 1  Y    0.000000   0.031176   0.000000   0.000000   0.000000
   15  TI 1  Z    0.000000   0.000000   0.031176   0.000000   0.000000
   16  TI 1  X    0.000000   0.000000   0.000000   0.010303   0.000000
   17  TI 1  Y    0.000000   0.010303   0.000000   0.000000   0.000000
   18  TI 1  Z    0.000000   0.000000   0.010303   0.000000   0.000000
   19  TI 1  X    0.000000   0.000000   0.000000  -0.001760   0.000000
   20  TI 1  Y    0.000000  -0.001760   0.000000   0.000000   0.000000
   21  TI 1  Z    0.000000   0.000000  -0.001760   0.000000   0.000000
   22  TI 1  X    0.000000   0.000000   0.000000  -0.024469   0.000000
   23  TI 1  Y    0.000000  -0.024469   0.000000   0.000000   0.000000
   24  TI 1  Z    0.000000   0.000000  -0.024469   0.000000   0.000000
   25  TI 1 XX    0.000000   0.000000   0.000000   0.000000  -0.000000
   26  TI 1 YY    0.000000   0.000000   0.000000   0.000000  -0.000000
   27  TI 1 ZZ   -0.000000   0.000000   0.000000   0.000000   0.000000
   28  TI 1 XY    0.000000   0.000000   0.000000   0.000000   0.000000
   29  TI 1 XZ    0.000000   0.000000   0.000000   0.000000   0.000000
   30  TI 1 YZ    0.000000   0.000000   0.000000   0.000000   0.000000
   31  TI 1 XX   -0.000000   0.000000   0.000000   0.000000  -0.000000
   32  TI 1 YY   -0.000000   0.000000   0.000000   0.000000   0.000000
   33  TI 1 ZZ    0.000000   0.000000   0.000000   0.000000   0.000000
   34  TI 1 XY    0.000000   0.000000   0.000000   0.000000   0.000000
   35  TI 1 XZ    0.000000   0.000000   0.000000   0.000000   0.000000
   36  TI 1 YZ    0.000000   0.000000   0.000000   0.000000   0.000000
   37  TI 1 XX    0.000000   0.000000   0.000000   0.000000  -0.000000
   38  TI 1 YY    0.000000   0.000000   0.000000   0.000000  -0.000000
   39  TI 1 ZZ   -0.000000   0.000000   0.000000   0.000000   0.000000
   40  TI 1 XY    0.000000   0.000000   0.000000   0.000000   0.000000
   41  TI 1 XZ    0.000000   0.000000   0.000000   0.000000   0.000000
   42  TI 1 YZ    0.000000   0.000000   0.000000   0.000000   0.000000
   43  TI 1 XX    0.000000   0.000000   0.000000   0.000000  -0.000000
   44  TI 1 YY    0.000000   0.000000   0.000000   0.000000  -0.000000
   45  TI 1 ZZ   -0.000000   0.000000   0.000000   0.000000   0.000000
   46  TI 1 XY    0.000000   0.000000   0.000000   0.000000   0.000000
   47  TI 1 XZ    0.000000   0.000000   0.000000   0.000000   0.000000
   48  TI 1 YZ    0.000000   0.000000   0.000000   0.000000   0.000000
   49  TI 1 XX   -0.000000   0.000000   0.000000   0.000000   0.000000
   50  TI 1 YY   -0.000000   0.000000   0.000000   0.000000  -0.000000
   51  TI 1 ZZ    0.000000   0.000000   0.000000   0.000000  -0.000000
   52  TI 1 XY    0.000000   0.000000   0.000000   0.000000   0.000000
   53  TI 1 XZ    0.000000   0.000000   0.000000   0.000000   0.000000
   54  TI 1 YZ    0.000000   0.000000   0.000000   0.000000   0.000000
   55  TI 1 XXX   0.000000   0.000000   0.000000  -0.000472   0.000000
   56  TI 1 YYY   0.000000   0.001889   0.000000   0.000000   0.000000
   57  TI 1 ZZZ   0.000000   0.000000  -0.000472   0.000000   0.000000
   58  TI 1 XXY   0.000000  -0.001267   0.000000   0.000000   0.000000
   59  TI 1 XXZ   0.000000   0.000000   0.001901   0.000000   0.000000
   60  TI 1 YYX   0.000000   0.000000   0.000000  -0.001267   0.000000
   61  TI 1 YYZ   0.000000   0.000000  -0.001267   0.000000   0.000000
   62  TI 1 ZZX   0.000000   0.000000   0.000000   0.001901   0.000000
   63  TI 1 ZZY   0.000000  -0.001267   0.000000   0.000000   0.000000
   64  TI 1 XYZ   0.000000   0.000000   0.000000   0.000000   0.000000
   65  TI 1 XXX   0.000000   0.000000   0.000000  -0.001761   0.000000
   66  TI 1 YYY   0.000000   0.007045   0.000000   0.000000   0.000000
   67  TI 1 ZZZ   0.000000   0.000000  -0.001761   0.000000   0.000000
   68  TI 1 XXY   0.000000  -0.004726   0.000000   0.000000   0.000000
   69  TI 1 XXZ   0.000000   0.000000   0.007089   0.000000   0.000000
   70  TI 1 YYX   0.000000   0.000000   0.000000  -0.004726   0.000000
   71  TI 1 YYZ   0.000000   0.000000  -0.004726   0.000000   0.000000
   72  TI 1 ZZX   0.000000   0.000000   0.000000   0.007089   0.000000
   73  TI 1 ZZY   0.000000  -0.004726   0.000000   0.000000   0.000000
   74  TI 1 XYZ   0.000000   0.000000   0.000000   0.000000   0.000000
   75  TI 1 XXX   0.000000   0.000000   0.000000  -0.000694   0.000000
   76  TI 1 YYY   0.000000   0.002775   0.000000   0.000000   0.000000
   77  TI 1 ZZZ   0.000000   0.000000  -0.000694   0.000000   0.000000
   78  TI 1 XXY   0.000000  -0.001861   0.000000   0.000000   0.000000
   79  TI 1 XXZ   0.000000   0.000000   0.002792   0.000000   0.000000
   80  TI 1 YYX   0.000000   0.000000   0.000000  -0.001861   0.000000
   81  TI 1 YYZ   0.000000   0.000000  -0.001861   0.000000   0.000000
   82  TI 1 ZZX   0.000000   0.000000   0.000000   0.002792   0.000000
   83  TI 1 ZZY   0.000000  -0.001861   0.000000   0.000000   0.000000
   84  TI 1 XYZ   0.000000   0.000000   0.000000   0.000000   0.000000
   85  TI 1XXXX  -0.000248   0.000000   0.000000   0.000000   0.000068
   86  TI 1YYYY   0.000990   0.000000   0.000000   0.000000  -0.000271
   87  TI 1ZZZZ  -0.000248   0.000000   0.000000   0.000000   0.000068
   88  TI 1XXXY   0.000000   0.000000   0.000000   0.000000   0.000000
   89  TI 1XXXZ   0.000000   0.000000   0.000000   0.000000   0.000000
   90  TI 1YYYX   0.000000   0.000000   0.000000   0.000000   0.000000
   91  TI 1YYYZ   0.000000   0.000000   0.000000   0.000000   0.000000
   92  TI 1ZZZX   0.000000   0.000000   0.000000   0.000000   0.000000
   93  TI 1ZZZY   0.000000   0.000000   0.000000   0.000000   0.000000
   94  TI 1XXYY  -0.000870   0.000000   0.000000   0.000000   0.000238
   95  TI 1XXZZ   0.001305   0.000000   0.000000   0.000000  -0.000357
   96  TI 1YYZZ  -0.000870   0.000000   0.000000   0.000000   0.000238
   97  TI 1XXYZ   0.000000   0.000000   0.000000   0.000000   0.000000
   98  TI 1YYXZ   0.000000   0.000000   0.000000   0.000000   0.000000
   99  TI 1ZZXY   0.000000   0.000000   0.000000   0.000000   0.000000
  100  TI 1XXXX  -0.000186   0.000000   0.000000   0.000000  -0.000070
  101  TI 1YYYY   0.000743   0.000000   0.000000   0.000000   0.000282
  102  TI 1ZZZZ  -0.000186   0.000000   0.000000   0.000000  -0.000070
  103  TI 1XXXY   0.000000   0.000000   0.000000   0.000000   0.000000
  104  TI 1XXXZ   0.000000   0.000000   0.000000   0.000000   0.000000
  105  TI 1YYYX   0.000000   0.000000   0.000000   0.000000   0.000000
  106  TI 1YYYZ   0.000000   0.000000   0.000000   0.000000   0.000000
  107  TI 1ZZZX   0.000000   0.000000   0.000000   0.000000   0.000000
  108  TI 1ZZZY   0.000000   0.000000   0.000000   0.000000   0.000000
  109  TI 1XXYY  -0.000652   0.000000   0.000000   0.000000  -0.000248
  110  TI 1XXZZ   0.000978   0.000000   0.000000   0.000000   0.000371
  111  TI 1YYZZ  -0.000652   0.000000   0.000000   0.000000  -0.000248
  112  TI 1XXYZ   0.000000   0.000000   0.000000   0.000000   0.000000
  113  TI 1YYXZ   0.000000   0.000000   0.000000   0.000000   0.000000
  114  TI 1ZZXY   0.000000   0.000000   0.000000   0.000000   0.000000
  115  TI 1  S    0.000093   0.000000   0.000000   0.000000   0.000085
  116  TI 1  S   -0.000110   0.000000   0.000000   0.000000  -0.000111
  117  TI 1  X    0.000000   0.000000   0.000000  -0.001785   0.000000
  118  TI 1  Y    0.000000  -0.001785   0.000000   0.000000   0.000000
  119  TI 1  Z    0.000000   0.000000  -0.001785   0.000000   0.000000
  120  TI 1  X    0.000000   0.000000   0.000000   0.000330   0.000000
  121  TI 1  Y    0.000000   0.000330   0.000000   0.000000   0.000000
  122  TI 1  Z    0.000000   0.000000   0.000330   0.000000   0.000000
  123  TI 1 XX   -0.000000   0.000000   0.000000   0.000000   0.000000
  124  TI 1 YY   -0.000000   0.000000   0.000000   0.000000  -0.000000
  125  TI 1 ZZ    0.000000   0.000000   0.000000   0.000000  -0.000000
  126  TI 1 XY    0.000000   0.000000   0.000000   0.000000   0.000000
  127  TI 1 XZ    0.000000   0.000000   0.000000   0.000000   0.000000
  128  TI 1 YZ    0.000000   0.000000   0.000000   0.000000   0.000000
  129  TI 1 XX   -0.000000   0.000000   0.000000   0.000000  -0.000000
  130  TI 1 YY    0.000000   0.000000   0.000000   0.000000   0.000000
  131  TI 1 ZZ    0.000000   0.000000   0.000000   0.000000   0.000000
  132  TI 1 XY    0.000000   0.000000   0.000000   0.000000   0.000000
  133  TI 1 XZ    0.000000   0.000000   0.000000   0.000000   0.000000
  134  TI 1 YZ    0.000000   0.000000   0.000000   0.000000   0.000000
  135  TI 1 XXX   0.000000   0.000000   0.000000  -0.000265   0.000000
  136  TI 1 YYY   0.000000   0.001061   0.000000   0.000000   0.000000
  137  TI 1 ZZZ   0.000000   0.000000  -0.000265   0.000000   0.000000
  138  TI 1 XXY   0.000000  -0.000712   0.000000   0.000000   0.000000
  139  TI 1 XXZ   0.000000   0.000000   0.001067   0.000000   0.000000
  140  TI 1 YYX   0.000000   0.000000   0.000000  -0.000712   0.000000
  141  TI 1 YYZ   0.000000   0.000000  -0.000712   0.000000   0.000000
  142  TI 1 ZZX   0.000000   0.000000   0.000000   0.001067   0.000000
  143  TI 1 ZZY   0.000000  -0.000712   0.000000   0.000000   0.000000
  144  TI 1 XYZ   0.000000   0.000000   0.000000   0.000000   0.000000
  145  TI 1XXXX  -0.000041   0.000000   0.000000   0.000000  -0.000002
  146  TI 1YYYY   0.000165   0.000000   0.000000   0.000000   0.000009
  147  TI 1ZZZZ  -0.000041   0.000000   0.000000   0.000000  -0.000002
  148  TI 1XXXY   0.000000   0.000000   0.000000   0.000000   0.000000
  149  TI 1XXXZ   0.000000   0.000000   0.000000   0.000000   0.000000
  150  TI 1YYYX   0.000000   0.000000   0.000000   0.000000   0.000000
  151  TI 1YYYZ   0.000000   0.000000   0.000000   0.000000   0.000000
  152  TI 1ZZZX   0.000000   0.000000   0.000000   0.000000   0.000000
  153  TI 1ZZZY   0.000000   0.000000   0.000000   0.000000   0.000000
  154  TI 1XXYY  -0.000145   0.000000   0.000000   0.000000  -0.000008
  155  TI 1XXZZ   0.000217   0.000000   0.000000   0.000000   0.000012
  156  TI 1YYZZ  -0.000145   0.000000   0.000000   0.000000  -0.000008
  157  TI 1XXYZ   0.000000   0.000000   0.000000   0.000000   0.000000
  158  TI 1YYXZ   0.000000   0.000000   0.000000   0.000000   0.000000
  159  TI 1ZZXY   0.000000   0.000000   0.000000   0.000000   0.000000

                      6          7          8          9         10
                   -0.0879    -0.0879     0.0217     0.0217     0.0217
                     A          A          A          A          A   
    1  TI 1  S   -0.000000   0.000000   0.000000   0.000000   0.000000
    2  TI 1  S    0.000000   0.000000   0.000000   0.000000   0.000000
    3  TI 1  S   -0.000000   0.000000   0.000000   0.000000   0.000000
    4  TI 1  S   -0.000000   0.000000   0.000000   0.000000   0.000000
    5  TI 1  S   -0.000000   0.000000   0.000000   0.000000   0.000000
    6  TI 1  S    0.000000   0.000000   0.000000   0.000000   0.000000
    7  TI 1  X    0.000000   0.000000   0.000000  -0.043306   0.000000
    8  TI 1  Y    0.000000   0.000000  -0.043306   0.000000   0.000000
    9  TI 1  Z    0.000000   0.000000   0.000000   0.000000  -0.043306
   10  TI 1  X    0.000000   0.000000   0.000000   0.218157   0.000000
   11  TI 1  Y    0.000000   0.000000   0.218157   0.000000   0.000000
   12  TI 1  Z    0.000000   0.000000   0.000000   0.000000   0.218157
   13  TI 1  X    0.000000   0.000000   0.000000   0.066078   0.000000
   14  TI 1  Y    0.000000   0.000000   0.066077   0.000000   0.000000
   15  TI 1  Z    0.000000   0.000000   0.000000   0.000000   0.066077
   16  TI 1  X    0.000000   0.000000   0.000000  -0.048217   0.000000
   17  TI 1  Y    0.000000   0.000000  -0.048217   0.000000   0.000000
   18  TI 1  Z    0.000000   0.000000   0.000000   0.000000  -0.048217
   19  TI 1  X    0.000000   0.000000   0.000000  -0.018388   0.000000
   20  TI 1  Y    0.000000   0.000000  -0.018388   0.000000   0.000000
   21  TI 1  Z    0.000000   0.000000   0.000000   0.000000  -0.018388
   22  TI 1  X    0.000000   0.000000   0.000000   0.842594   0.000000
   23  TI 1  Y    0.000000   0.000000   0.842593   0.000000   0.000000
   24  TI 1  Z    0.000000   0.000000   0.000000   0.000000   0.842593
   25  TI 1 XX   -0.494576   0.000000   0.000000   0.000000   0.000000
   26  TI 1 YY    0.989152   0.000000   0.000000   0.000000   0.000000
   27  TI 1 ZZ   -0.494576   0.000000   0.000000   0.000000   0.000000
   28  TI 1 XY    0.000000   0.000000   0.000000   0.000000   0.000000
   29  TI 1 XZ    0.000000   0.989152   0.000000   0.000000   0.000000
   30  TI 1 YZ    0.000000   0.000000   0.000000   0.000000   0.000000
   31  TI 1 XX    0.080114   0.000000   0.000000   0.000000   0.000000
   32  TI 1 YY   -0.160228   0.000000   0.000000   0.000000   0.000000
   33  TI 1 ZZ    0.080114   0.000000   0.000000   0.000000   0.000000
   34  TI 1 XY    0.000000   0.000000   0.000000   0.000000   0.000000
   35  TI 1 XZ    0.000000  -0.160228   0.000000   0.000000   0.000000
   36  TI 1 YZ    0.000000   0.000000   0.000000   0.000000   0.000000
   37  TI 1 XX    0.006384   0.000000   0.000000   0.000000   0.000000
   38  TI 1 YY   -0.012768   0.000000   0.000000   0.000000   0.000000
   39  TI 1 ZZ    0.006384   0.000000   0.000000   0.000000   0.000000
   40  TI 1 XY    0.000000   0.000000   0.000000   0.000000   0.000000
   41  TI 1 XZ    0.000000  -0.012768   0.000000   0.000000   0.000000
   42  TI 1 YZ    0.000000   0.000000   0.000000   0.000000   0.000000
   43  TI 1 XX   -0.001601   0.000000   0.000000   0.000000   0.000000
   44  TI 1 YY    0.003202   0.000000   0.000000   0.000000   0.000000
   45  TI 1 ZZ   -0.001601   0.000000   0.000000   0.000000   0.000000
   46  TI 1 XY    0.000000   0.000000   0.000000   0.000000   0.000000
   47  TI 1 XZ    0.000000   0.003202   0.000000   0.000000   0.000000
   48  TI 1 YZ    0.000000   0.000000   0.000000   0.000000   0.000000
   49  TI 1 XX   -0.001897   0.000000   0.000000   0.000000   0.000000
   50  TI 1 YY    0.003793   0.000000   0.000000   0.000000   0.000000
   51  TI 1 ZZ   -0.001897   0.000000   0.000000   0.000000   0.000000
   52  TI 1 XY    0.000000   0.000000   0.000000   0.000000   0.000000
   53  TI 1 XZ    0.000000   0.003793   0.000000   0.000000   0.000000
   54  TI 1 YZ    0.000000   0.000000   0.000000   0.000000   0.000000
   55  TI 1 XXX   0.000000   0.000000   0.000000  -0.002157   0.000000
   56  TI 1 YYY   0.000000   0.000000   0.008628   0.000000   0.000000
   57  TI 1 ZZZ   0.000000   0.000000   0.000000   0.000000  -0.002157
   58  TI 1 XXY   0.000000   0.000000  -0.005788   0.000000   0.000000
   59  TI 1 XXZ   0.000000   0.000000   0.000000   0.000000   0.008681
   60  TI 1 YYX   0.000000   0.000000   0.000000  -0.005788   0.000000
   61  TI 1 YYZ   0.000000   0.000000   0.000000   0.000000  -0.005788
   62  TI 1 ZZX   0.000000   0.000000   0.000000   0.008681   0.000000
   63  TI 1 ZZY   0.000000   0.000000  -0.005788   0.000000   0.000000
   64  TI 1 XYZ   0.000000   0.000000   0.000000   0.000000   0.000000
   65  TI 1 XXX   0.000000   0.000000   0.000000  -0.000680   0.000000
   66  TI 1 YYY   0.000000   0.000000   0.002718   0.000000   0.000000
   67  TI 1 ZZZ   0.000000   0.000000   0.000000   0.000000  -0.000680
   68  TI 1 XXY   0.000000   0.000000  -0.001824   0.000000   0.000000
   69  TI 1 XXZ   0.000000   0.000000   0.000000   0.000000   0.002735
   70  TI 1 YYX   0.000000   0.000000   0.000000  -0.001824   0.000000
   71  TI 1 YYZ   0.000000   0.000000   0.000000   0.000000  -0.001824
   72  TI 1 ZZX   0.000000   0.000000   0.000000   0.002735   0.000000
   73  TI 1 ZZY   0.000000   0.000000  -0.001824   0.000000   0.000000
   74  TI 1 XYZ   0.000000   0.000000   0.000000   0.000000   0.000000
   75  TI 1 XXX   0.000000   0.000000   0.000000   0.000132   0.000000
   76  TI 1 YYY   0.000000   0.000000  -0.000527   0.000000   0.000000
   77  TI 1 ZZZ   0.000000   0.000000   0.000000   0.000000   0.000132
   78  TI 1 XXY   0.000000   0.000000   0.000353   0.000000   0.000000
   79  TI 1 XXZ   0.000000   0.000000   0.000000   0.000000  -0.000530
   80  TI 1 YYX   0.000000   0.000000   0.000000   0.000353   0.000000
   81  TI 1 YYZ   0.000000   0.000000   0.000000   0.000000   0.000353
   82  TI 1 ZZX   0.000000   0.000000   0.000000  -0.000530   0.000000
   83  TI 1 ZZY   0.000000   0.000000   0.000353   0.000000   0.000000
   84  TI 1 XYZ   0.000000   0.000000   0.000000   0.000000   0.000000
   85  TI 1XXXX   0.003901   0.000000   0.000000   0.000000   0.000000
   86  TI 1YYYY   0.003121   0.000000   0.000000   0.000000   0.000000
   87  TI 1ZZZZ   0.003901   0.000000   0.000000   0.000000   0.000000
   88  TI 1XXXY   0.000000   0.000000   0.000000   0.000000   0.000000
   89  TI 1XXXZ   0.000000   0.002043   0.000000   0.000000   0.000000
   90  TI 1YYYX   0.000000   0.000000   0.000000   0.000000   0.000000
   91  TI 1YYYZ   0.000000   0.000000   0.000000   0.000000   0.000000
   92  TI 1ZZZX   0.000000   0.002043   0.000000   0.000000   0.000000
   93  TI 1ZZZY   0.000000   0.000000   0.000000   0.000000   0.000000
   94  TI 1XXYY  -0.002741   0.000000   0.000000   0.000000   0.000000
   95  TI 1XXZZ  -0.004111   0.000000   0.000000   0.000000   0.000000
   96  TI 1YYZZ  -0.002741   0.000000   0.000000   0.000000   0.000000
   97  TI 1XXYZ   0.000000   0.000000   0.000000   0.000000   0.000000
   98  TI 1YYXZ   0.000000  -0.005482   0.000000   0.000000   0.000000
   99  TI 1ZZXY   0.000000   0.000000   0.000000   0.000000   0.000000
  100  TI 1XXXX   0.002460   0.000000   0.000000   0.000000   0.000000
  101  TI 1YYYY   0.001968   0.000000   0.000000   0.000000   0.000000
  102  TI 1ZZZZ   0.002460   0.000000   0.000000   0.000000   0.000000
  103  TI 1XXXY   0.000000   0.000000   0.000000   0.000000   0.000000
  104  TI 1XXXZ   0.000000   0.001288   0.000000   0.000000   0.000000
  105  TI 1YYYX   0.000000   0.000000   0.000000   0.000000   0.000000
  106  TI 1YYYZ   0.000000   0.000000   0.000000   0.000000   0.000000
  107  TI 1ZZZX   0.000000   0.001288   0.000000   0.000000   0.000000
  108  TI 1ZZZY   0.000000   0.000000   0.000000   0.000000   0.000000
  109  TI 1XXYY  -0.001728   0.000000   0.000000   0.000000   0.000000
  110  TI 1XXZZ  -0.002592   0.000000   0.000000   0.000000   0.000000
  111  TI 1YYZZ  -0.001728   0.000000   0.000000   0.000000   0.000000
  112  TI 1XXYZ   0.000000   0.000000   0.000000   0.000000   0.000000
  113  TI 1YYXZ   0.000000  -0.003457   0.000000   0.000000   0.000000
  114  TI 1ZZXY   0.000000   0.000000   0.000000   0.000000   0.000000
  115  TI 1  S   -0.000000   0.000000   0.000000   0.000000   0.000000
  116  TI 1  S    0.000000   0.000000   0.000000   0.000000   0.000000
  117  TI 1  X    0.000000   0.000000   0.000000  -0.042512   0.000000
  118  TI 1  Y    0.000000   0.000000  -0.042512   0.000000   0.000000
  119  TI 1  Z    0.000000   0.000000   0.000000   0.000000  -0.042512
  120  TI 1  X    0.000000   0.000000   0.000000   0.005573   0.000000
  121  TI 1  Y    0.000000   0.000000   0.005573   0.000000   0.000000
  122  TI 1  Z    0.000000   0.000000   0.000000   0.000000   0.005573
  123  TI 1 XX   -0.000113   0.000000   0.000000   0.000000   0.000000
  124  TI 1 YY    0.000226   0.000000   0.000000   0.000000   0.000000
  125  TI 1 ZZ   -0.000113   0.000000   0.000000   0.000000   0.000000
  126  TI 1 XY    0.000000   0.000000   0.000000   0.000000   0.000000
  127  TI 1 XZ    0.000000   0.000226   0.000000   0.000000   0.000000
  128  TI 1 YZ    0.000000   0.000000   0.000000   0.000000   0.000000
  129  TI 1 XX   -0.000010   0.000000   0.000000   0.000000   0.000000
  130  TI 1 YY    0.000021   0.000000   0.000000   0.000000   0.000000
  131  TI 1 ZZ   -0.000010   0.000000   0.000000   0.000000   0.000000
  132  TI 1 XY    0.000000   0.000000   0.000000   0.000000   0.000000
  133  TI 1 XZ    0.000000   0.000021   0.000000   0.000000   0.000000
  134  TI 1 YZ    0.000000   0.000000   0.000000   0.000000   0.000000
  135  TI 1 XXX   0.000000   0.000000   0.000000   0.000045   0.000000
  136  TI 1 YYY   0.000000   0.000000  -0.000179   0.000000   0.000000
  137  TI 1 ZZZ   0.000000   0.000000   0.000000   0.000000   0.000045
  138  TI 1 XXY   0.000000   0.000000   0.000120   0.000000   0.000000
  139  TI 1 XXZ   0.000000   0.000000   0.000000   0.000000  -0.000180
  140  TI 1 YYX   0.000000   0.000000   0.000000   0.000120   0.000000
  141  TI 1 YYZ   0.000000   0.000000   0.000000   0.000000   0.000120
  142  TI 1 ZZX   0.000000   0.000000   0.000000  -0.000180   0.000000
  143  TI 1 ZZY   0.000000   0.000000   0.000120   0.000000   0.000000
  144  TI 1 XYZ   0.000000   0.000000   0.000000   0.000000   0.000000
  145  TI 1XXXX   0.000483   0.000000   0.000000   0.000000   0.000000
  146  TI 1YYYY   0.000386   0.000000   0.000000   0.000000   0.000000
  147  TI 1ZZZZ   0.000483   0.000000   0.000000   0.000000   0.000000
  148  TI 1XXXY   0.000000   0.000000   0.000000   0.000000   0.000000
  149  TI 1XXXZ   0.000000   0.000253   0.000000   0.000000   0.000000
  150  TI 1YYYX   0.000000   0.000000   0.000000   0.000000   0.000000
  151  TI 1YYYZ   0.000000   0.000000   0.000000   0.000000   0.000000
  152  TI 1ZZZX   0.000000   0.000253   0.000000   0.000000   0.000000
  153  TI 1ZZZY   0.000000   0.000000   0.000000   0.000000   0.000000
  154  TI 1XXYY  -0.000339   0.000000   0.000000   0.000000   0.000000
  155  TI 1XXZZ  -0.000509   0.000000   0.000000   0.000000   0.000000
  156  TI 1YYZZ  -0.000339   0.000000   0.000000   0.000000   0.000000
  157  TI 1XXYZ   0.000000   0.000000   0.000000   0.000000   0.000000
  158  TI 1YYXZ   0.000000  -0.000679   0.000000   0.000000   0.000000
  159  TI 1ZZXY   0.000000   0.000000   0.000000   0.000000   0.000000

                     11         12         13         14         15
                    0.0573     0.0765     0.0765     0.0765     0.0851
                     A          A          A          A          A   
    1  TI 1  S   -1.048386   0.000000   0.000000   0.000001   0.000000
    2  TI 1  S   -5.557824   0.000000   0.000000   0.000004   0.000002
    3  TI 1  S   -1.766637   0.000000   0.000000   0.000001   0.000001
    4  TI 1  S   -0.834193   0.000000   0.000000   0.000001   0.000000
    5  TI 1  S    0.135669   0.000000   0.000000  -0.000000  -0.000000
    6  TI 1  S    6.375370   0.000000   0.000000  -0.000005  -0.000002
    7  TI 1  X    0.000000   0.000000   0.000000   0.000000   0.000000
    8  TI 1  Y    0.000000   0.000000   0.000000   0.000000   0.000000
    9  TI 1  Z    0.000000   0.000000   0.000000   0.000000   0.000000
   10  TI 1  X    0.000000   0.000000   0.000000   0.000000   0.000000
   11  TI 1  Y    0.000000   0.000000   0.000000   0.000000   0.000000
   12  TI 1  Z    0.000000   0.000000   0.000000   0.000000   0.000000
   13  TI 1  X    0.000000   0.000000   0.000000   0.000000   0.000000
   14  TI 1  Y    0.000000   0.000000   0.000000   0.000000   0.000000
   15  TI 1  Z    0.000000   0.000000   0.000000   0.000000   0.000000
   16  TI 1  X    0.000000   0.000000   0.000000   0.000000   0.000000
   17  TI 1  Y    0.000000   0.000000   0.000000   0.000000   0.000000
   18  TI 1  Z    0.000000   0.000000   0.000000   0.000000   0.000000
   19  TI 1  X    0.000000   0.000000   0.000000   0.000000   0.000000
   20  TI 1  Y    0.000000   0.000000   0.000000   0.000000   0.000000
   21  TI 1  Z    0.000000   0.000000   0.000000   0.000000   0.000000
   22  TI 1  X    0.000000   0.000000   0.000000   0.000000   0.000000
   23  TI 1  Y    0.000000   0.000000   0.000000   0.000000   0.000000
   24  TI 1  Z    0.000000   0.000000   0.000000   0.000000   0.000000
   25  TI 1 XX    0.000000   0.000000   0.000000   0.201615   0.125022
   26  TI 1 YY   -0.000000   0.000000   0.000000   0.000000  -0.250043
   27  TI 1 ZZ   -0.000000   0.000000   0.000000  -0.201615   0.125021
   28  TI 1 XY    0.000000   0.232805   0.000000   0.000000   0.000000
   29  TI 1 XZ    0.000000   0.000000   0.000000   0.000000   0.000000
   30  TI 1 YZ    0.000000   0.000000   0.232805   0.000000   0.000000
   31  TI 1 XX   -0.000000   0.000000   0.000000  -0.164781   0.169519
   32  TI 1 YY   -0.000000   0.000000   0.000000   0.000000  -0.339038
   33  TI 1 ZZ    0.000000   0.000000   0.000000   0.164781   0.169519
   34  TI 1 XY    0.000000  -0.190273   0.000000   0.000000   0.000000
   35  TI 1 XZ    0.000000   0.000000   0.000000   0.000000   0.000000
   36  TI 1 YZ    0.000000   0.000000  -0.190273   0.000000   0.000000
   37  TI 1 XX   -0.000000   0.000000   0.000000  -0.194356   0.164654
   38  TI 1 YY   -0.000000   0.000000   0.000000   0.000000  -0.329308
   39  TI 1 ZZ    0.000000   0.000000   0.000000   0.194356   0.164654
   40  TI 1 XY    0.000000  -0.224423   0.000000   0.000000   0.000000
   41  TI 1 XZ    0.000000   0.000000   0.000000   0.000000   0.000000
   42  TI 1 YZ    0.000000   0.000000  -0.224423   0.000000   0.000000
   43  TI 1 XX   -0.000000   0.000000   0.000000  -0.093098   0.076116
   44  TI 1 YY   -0.000000   0.000000   0.000000   0.000000  -0.152232
   45  TI 1 ZZ    0.000000   0.000000   0.000000   0.093098   0.076116
   46  TI 1 XY    0.000000  -0.107501   0.000000   0.000000   0.000000
   47  TI 1 XZ    0.000000   0.000000   0.000000   0.000000   0.000000
   48  TI 1 YZ    0.000000   0.000000  -0.107501   0.000000   0.000000
   49  TI 1 XX    0.000000   0.000000   0.000000   1.035954  -0.753279
   50  TI 1 YY    0.000000   0.000000   0.000000  -0.000001   1.506559
   51  TI 1 ZZ   -0.000001   0.000000   0.000000  -1.035954  -0.753280
   52  TI 1 XY    0.000000   1.196217   0.000000   0.000000   0.000000
   53  TI 1 XZ    0.000000   0.000000   0.000000   0.000000   0.000000
   54  TI 1 YZ    0.000000   0.000000   1.196217   0.000000   0.000000
   55  TI 1 XXX   0.000000   0.000000   0.000000   0.000000   0.000000
   56  TI 1 YYY   0.000000   0.000000   0.000000   0.000000   0.000000
   57  TI 1 ZZZ   0.000000   0.000000   0.000000   0.000000   0.000000
   58  TI 1 XXY   0.000000   0.000000   0.000000   0.000000   0.000000
   59  TI 1 XXZ   0.000000   0.000000   0.000000   0.000000   0.000000
   60  TI 1 YYX   0.000000   0.000000   0.000000   0.000000   0.000000
   61  TI 1 YYZ   0.000000   0.000000   0.000000   0.000000   0.000000
   62  TI 1 ZZX   0.000000   0.000000   0.000000   0.000000   0.000000
   63  TI 1 ZZY   0.000000   0.000000   0.000000   0.000000   0.000000
   64  TI 1 XYZ   0.000000   0.000000   0.000000   0.000000   0.000000
   65  TI 1 XXX   0.000000   0.000000   0.000000   0.000000   0.000000
   66  TI 1 YYY   0.000000   0.000000   0.000000   0.000000   0.000000
   67  TI 1 ZZZ   0.000000   0.000000   0.000000   0.000000   0.000000
   68  TI 1 XXY   0.000000   0.000000   0.000000   0.000000   0.000000
   69  TI 1 XXZ   0.000000   0.000000   0.000000   0.000000   0.000000
   70  TI 1 YYX   0.000000   0.000000   0.000000   0.000000   0.000000
   71  TI 1 YYZ   0.000000   0.000000   0.000000   0.000000   0.000000
   72  TI 1 ZZX   0.000000   0.000000   0.000000   0.000000   0.000000
   73  TI 1 ZZY   0.000000   0.000000   0.000000   0.000000   0.000000
   74  TI 1 XYZ   0.000000   0.000000   0.000000   0.000000   0.000000
   75  TI 1 XXX   0.000000   0.000000   0.000000   0.000000   0.000000
   76  TI 1 YYY   0.000000   0.000000   0.000000   0.000000   0.000000
   77  TI 1 ZZZ   0.000000   0.000000   0.000000   0.000000   0.000000
   78  TI 1 XXY   0.000000   0.000000   0.000000   0.000000   0.000000
   79  TI 1 XXZ   0.000000   0.000000   0.000000   0.000000   0.000000
   80  TI 1 YYX   0.000000   0.000000   0.000000   0.000000   0.000000
   81  TI 1 YYZ   0.000000   0.000000   0.000000   0.000000   0.000000
   82  TI 1 ZZX   0.000000   0.000000   0.000000   0.000000   0.000000
   83  TI 1 ZZY   0.000000   0.000000   0.000000   0.000000   0.000000
   84  TI 1 XYZ   0.000000   0.000000   0.000000   0.000000   0.000000
   85  TI 1XXXX   0.000516   0.000000   0.000000   0.000991  -0.000192
   86  TI 1YYYY  -0.002065   0.000000   0.000000   0.000000  -0.000154
   87  TI 1ZZZZ   0.000516   0.000000   0.000000  -0.000991  -0.000192
   88  TI 1XXXY   0.000000  -0.001874   0.000000   0.000000   0.000000
   89  TI 1XXXZ   0.000000   0.000000   0.000000   0.000000   0.000000
   90  TI 1YYYX   0.000000   0.000749   0.000000   0.000000   0.000000
   91  TI 1YYYZ   0.000000   0.000000   0.000749   0.000000   0.000000
   92  TI 1ZZZX   0.000000   0.000000   0.000000   0.000000   0.000000
   93  TI 1ZZZY   0.000000   0.000000  -0.001874   0.000000   0.000000
   94  TI 1XXYY   0.001814   0.000000   0.000000  -0.001741   0.000135
   95  TI 1XXZZ  -0.002720   0.000000   0.000000  -0.000000   0.000202
   96  TI 1YYZZ   0.001814   0.000000   0.000000   0.001741   0.000135
   97  TI 1XXYZ   0.000000   0.000000   0.001508   0.000000   0.000000
   98  TI 1YYXZ   0.000000   0.000000   0.000000   0.000000   0.000000
   99  TI 1ZZXY   0.000000   0.001508   0.000000   0.000000   0.000000
  100  TI 1XXXX   0.000086   0.000000   0.000000   0.000485  -0.000333
  101  TI 1YYYY  -0.000345   0.000000   0.000000   0.000000  -0.000266
  102  TI 1ZZZZ   0.000086   0.000000   0.000000  -0.000485  -0.000333
  103  TI 1XXXY   0.000000  -0.000917   0.000000   0.000000   0.000000
  104  TI 1XXXZ   0.000000   0.000000   0.000000   0.000000   0.000000
  105  TI 1YYYX   0.000000   0.000367   0.000000   0.000000   0.000000
  106  TI 1YYYZ   0.000000   0.000000   0.000367   0.000000   0.000000
  107  TI 1ZZZX   0.000000   0.000000   0.000000   0.000000   0.000000
  108  TI 1ZZZY   0.000000   0.000000  -0.000917   0.000000   0.000000
  109  TI 1XXYY   0.000303   0.000000   0.000000  -0.000852   0.000234
  110  TI 1XXZZ  -0.000455   0.000000   0.000000  -0.000000   0.000351
  111  TI 1YYZZ   0.000303   0.000000   0.000000   0.000852   0.000234
  112  TI 1XXYZ   0.000000   0.000000   0.000738   0.000000   0.000000
  113  TI 1YYXZ   0.000000   0.000000   0.000000   0.000000   0.000000
  114  TI 1ZZXY   0.000000   0.000738   0.000000   0.000000   0.000000
  115  TI 1  S   -1.125733   0.000000   0.000000   0.000001   0.000000
  116  TI 1  S    0.782995   0.000000   0.000000  -0.000001  -0.000000
  117  TI 1  X    0.000000   0.000000   0.000000   0.000000   0.000000
  118  TI 1  Y    0.000000   0.000000   0.000000   0.000000   0.000000
  119  TI 1  Z    0.000000   0.000000   0.000000   0.000000   0.000000
  120  TI 1  X    0.000000   0.000000   0.000000   0.000000   0.000000
  121  TI 1  Y    0.000000   0.000000   0.000000   0.000000   0.000000
  122  TI 1  Z    0.000000   0.000000   0.000000   0.000000   0.000000
  123  TI 1 XX    0.000000   0.000000   0.000000   0.029375  -0.022224
  124  TI 1 YY    0.000000   0.000000   0.000000  -0.000000   0.044448
  125  TI 1 ZZ   -0.000000   0.000000   0.000000  -0.029375  -0.022224
  126  TI 1 XY    0.000000   0.033920   0.000000   0.000000   0.000000
  127  TI 1 XZ    0.000000   0.000000   0.000000   0.000000   0.000000
  128  TI 1 YZ    0.000000   0.000000   0.033920   0.000000   0.000000
  129  TI 1 XX   -0.000000   0.000000   0.000000  -0.014121   0.010708
  130  TI 1 YY   -0.000000   0.000000   0.000000   0.000000  -0.021416
  131  TI 1 ZZ    0.000000   0.000000   0.000000   0.014121   0.010708
  132  TI 1 XY    0.000000  -0.016305   0.000000   0.000000   0.000000
  133  TI 1 XZ    0.000000   0.000000   0.000000   0.000000   0.000000
  134  TI 1 YZ    0.000000   0.000000  -0.016305   0.000000   0.000000
  135  TI 1 XXX   0.000000   0.000000   0.000000   0.000000   0.000000
  136  TI 1 YYY   0.000000   0.000000   0.000000   0.000000   0.000000
  137  TI 1 ZZZ   0.000000   0.000000   0.000000   0.000000   0.000000
  138  TI 1 XXY   0.000000   0.000000   0.000000   0.000000   0.000000
  139  TI 1 XXZ   0.000000   0.000000   0.000000   0.000000   0.000000
  140  TI 1 YYX   0.000000   0.000000   0.000000   0.000000   0.000000
  141  TI 1 YYZ   0.000000   0.000000   0.000000   0.000000   0.000000
  142  TI 1 ZZX   0.000000   0.000000   0.000000   0.000000   0.000000
  143  TI 1 ZZY   0.000000   0.000000   0.000000   0.000000   0.000000
  144  TI 1 XYZ   0.000000   0.000000   0.000000   0.000000   0.000000
  145  TI 1XXXX  -0.000056   0.000000   0.000000   0.000076  -0.000091
  146  TI 1YYYY   0.000223   0.000000   0.000000  -0.000000  -0.000072
  147  TI 1ZZZZ  -0.000056   0.000000   0.000000  -0.000076  -0.000091
  148  TI 1XXXY   0.000000  -0.000144   0.000000   0.000000   0.000000
  149  TI 1XXXZ   0.000000   0.000000   0.000000   0.000000   0.000000
  150  TI 1YYYX   0.000000   0.000057   0.000000   0.000000   0.000000
  151  TI 1YYYZ   0.000000   0.000000   0.000057   0.000000   0.000000
  152  TI 1ZZZX   0.000000   0.000000   0.000000   0.000000   0.000000
  153  TI 1ZZZY   0.000000   0.000000  -0.000144   0.000000   0.000000
  154  TI 1XXYY  -0.000196   0.000000   0.000000  -0.000133   0.000064
  155  TI 1XXZZ   0.000294   0.000000   0.000000  -0.000000   0.000095
  156  TI 1YYZZ  -0.000196   0.000000   0.000000   0.000133   0.000064
  157  TI 1XXYZ   0.000000   0.000000   0.000116   0.000000   0.000000
  158  TI 1YYXZ   0.000000   0.000000   0.000000   0.000000   0.000000
  159  TI 1ZZXY   0.000000   0.000116   0.000000   0.000000   0.000000

                     16         17         18         19         20
                    0.0851     0.1341     0.1341     0.1341     0.1372
                     A          A          A          A          A   
    1  TI 1  S    0.000000   0.000000   0.000000   0.000000   0.000000
    2  TI 1  S    0.000000   0.000000   0.000000   0.000001   0.000000
    3  TI 1  S    0.000000   0.000000   0.000000   0.000000   0.000000
    4  TI 1  S    0.000000   0.000000   0.000000   0.000000   0.000000
    5  TI 1  S    0.000000   0.000000   0.000000  -0.000000   0.000000
    6  TI 1  S    0.000000   0.000000   0.000000  -0.000001   0.000000
    7  TI 1  X    0.000000   0.000000   0.000000   0.000000   0.000000
    8  TI 1  Y    0.000000   0.000000   0.000000   0.000000  -0.025329
    9  TI 1  Z    0.000000   0.000000   0.000000   0.000000   0.000000
   10  TI 1  X    0.000000   0.000000   0.000000   0.000000   0.000000
   11  TI 1  Y    0.000000   0.000000   0.000000   0.000000  -3.408960
   12  TI 1  Z    0.000000   0.000000   0.000000   0.000000   0.000000
   13  TI 1  X    0.000000   0.000000   0.000000   0.000000   0.000000
   14  TI 1  Y    0.000000   0.000000   0.000000   0.000000   0.526446
   15  TI 1  Z    0.000000   0.000000   0.000000   0.000000   0.000000
   16  TI 1  X    0.000000   0.000000   0.000000   0.000000   0.000000
   17  TI 1  Y    0.000000   0.000000   0.000000   0.000000  -0.317955
   18  TI 1  Z    0.000000   0.000000   0.000000   0.000000   0.000000
   19  TI 1  X    0.000000   0.000000   0.000000   0.000000   0.000000
   20  TI 1  Y    0.000000   0.000000   0.000000   0.000000  -0.112772
   21  TI 1  Z    0.000000   0.000000   0.000000   0.000000   0.000000
   22  TI 1  X    0.000000   0.000000   0.000000   0.000000   0.000000
   23  TI 1  Y    0.000000   0.000000   0.000000   0.000000   3.647870
   24  TI 1  Z    0.000000   0.000000   0.000000   0.000000   0.000000
   25  TI 1 XX    0.000000   0.000000   0.000000   0.967867   0.000000
   26  TI 1 YY    0.000000   0.000000   0.000000   0.000000   0.000000
   27  TI 1 ZZ    0.000000   0.000000   0.000000  -0.967867   0.000000
   28  TI 1 XY    0.000000  -1.117596   0.000000   0.000000   0.000000
   29  TI 1 XZ   -0.250043   0.000000   0.000000   0.000000   0.000000
   30  TI 1 YZ    0.000000   0.000000  -1.117596   0.000000   0.000000
   31  TI 1 XX    0.000000   0.000000   0.000000   0.642830   0.000000
   32  TI 1 YY    0.000000   0.000000   0.000000   0.000000   0.000000
   33  TI 1 ZZ    0.000000   0.000000   0.000000  -0.642830   0.000000
   34  TI 1 XY    0.000000  -0.742277   0.000000   0.000000   0.000000
   35  TI 1 XZ   -0.339038   0.000000   0.000000   0.000000   0.000000
   36  TI 1 YZ    0.000000   0.000000  -0.742276   0.000000   0.000000
   37  TI 1 XX    0.000000   0.000000   0.000000   0.422659   0.000000
   38  TI 1 YY    0.000000   0.000000   0.000000   0.000000   0.000000
   39  TI 1 ZZ    0.000000   0.000000   0.000000  -0.422659   0.000000
   40  TI 1 XY    0.000000  -0.488044   0.000000   0.000000   0.000000
   41  TI 1 XZ   -0.329308   0.000000   0.000000   0.000000   0.000000
   42  TI 1 YZ    0.000000   0.000000  -0.488044   0.000000   0.000000
   43  TI 1 XX    0.000000   0.000000   0.000000   0.175209   0.000000
   44  TI 1 YY    0.000000   0.000000   0.000000   0.000000   0.000000
   45  TI 1 ZZ    0.000000   0.000000   0.000000  -0.175209   0.000000
   46  TI 1 XY    0.000000  -0.202313   0.000000   0.000000   0.000000
   47  TI 1 XZ   -0.152232   0.000000   0.000000   0.000000   0.000000
   48  TI 1 YZ    0.000000   0.000000  -0.202313   0.000000   0.000000
   49  TI 1 XX    0.000000   0.000000   0.000000  -1.159671   0.000000
   50  TI 1 YY    0.000000   0.000000   0.000000  -0.000000   0.000000
   51  TI 1 ZZ    0.000000   0.000000   0.000000   1.159671   0.000000
   52  TI 1 XY    0.000000   1.339073   0.000000   0.000000   0.000000
   53  TI 1 XZ    1.506559   0.000000   0.000000   0.000000   0.000000
   54  TI 1 YZ    0.000000   0.000000   1.339073   0.000000   0.000000
   55  TI 1 XXX   0.000000   0.000000   0.000000   0.000000   0.000000
   56  TI 1 YYY   0.000000   0.000000   0.000000   0.000000  -0.013328
   57  TI 1 ZZZ   0.000000   0.000000   0.000000   0.000000   0.000000
   58  TI 1 XXY   0.000000   0.000000   0.000000   0.000000   0.008940
   59  TI 1 XXZ   0.000000   0.000000   0.000000   0.000000   0.000000
   60  TI 1 YYX   0.000000   0.000000   0.000000   0.000000   0.000000
   61  TI 1 YYZ   0.000000   0.000000   0.000000   0.000000   0.000000
   62  TI 1 ZZX   0.000000   0.000000   0.000000   0.000000   0.000000
   63  TI 1 ZZY   0.000000   0.000000   0.000000   0.000000   0.008940
   64  TI 1 XYZ   0.000000   0.000000   0.000000   0.000000   0.000000
[...]
  149  TI 1XXXZ   0.000000   0.000000   0.000000   0.000000   0.000000
  150  TI 1YYYX   0.000000   0.000000  -0.565810   0.000000   0.000000
  151  TI 1YYYZ  -0.565809   0.000000   0.000000   0.000000   0.000000
  152  TI 1ZZZX   0.000000   0.000000   0.000000   0.000000   0.000000
  153  TI 1ZZZY   1.414524   0.000000   0.000000   0.000000   0.000000
  154  TI 1XXYY   0.000000   1.314824   0.000000   0.000000   0.000000
  155  TI 1XXZZ   0.000000   0.000000   0.000000   0.000000   0.000000
  156  TI 1YYZZ   0.000000  -1.314823   0.000000   0.000000   0.000000
  157  TI 1XXYZ  -1.138671   0.000000   0.000000   0.000000   0.000000
  158  TI 1YYXZ   0.000000   0.000000   0.000000   0.000000   0.000000
  159  TI 1ZZXY   0.000000   0.000000  -1.138670   0.000000   0.000000

                    121        122
                   37.2174    52.3582
                     A          A   
    1  TI 1  S    0.000000  -6.782779
    2  TI 1  S    0.000000  -0.631844
    3  TI 1  S    0.000000  -1.439135
    4  TI 1  S    0.000000   0.443631
    5  TI 1  S    0.000000   0.488099
    6  TI 1  S    0.000000   1.483824
    7  TI 1  X  -13.913908   0.000000
    8  TI 1  Y    0.000000   0.000000
    9  TI 1  Z    0.000000   0.000000
   10  TI 1  X    3.477850   0.000000
   11  TI 1  Y    0.000000   0.000000
   12  TI 1  Z    0.000000   0.000000
   13  TI 1  X    2.289681   0.000000
   14  TI 1  Y    0.000000   0.000000
   15  TI 1  Z    0.000000   0.000000
   16  TI 1  X    1.375301   0.000000
   17  TI 1  Y    0.000000   0.000000
   18  TI 1  Z    0.000000   0.000000
   19  TI 1  X    0.016358   0.000000
   20  TI 1  Y    0.000000   0.000000
   21  TI 1  Z    0.000000   0.000000
   22  TI 1  X   -2.219364   0.000000
   23  TI 1  Y    0.000000   0.000000
   24  TI 1  Z    0.000000   0.000000
   25  TI 1 XX    0.000000   0.000000
   26  TI 1 YY    0.000000   0.000000
   27  TI 1 ZZ    0.000000  -0.000000
   28  TI 1 XY    0.000000   0.000000
   29  TI 1 XZ    0.000000   0.000000
   30  TI 1 YZ    0.000000   0.000000
   31  TI 1 XX    0.000000  -0.000000
   32  TI 1 YY    0.000000   0.000000
   33  TI 1 ZZ    0.000000   0.000000
   34  TI 1 XY    0.000000   0.000000
   35  TI 1 XZ    0.000000   0.000000
   36  TI 1 YZ    0.000000   0.000000
   37  TI 1 XX    0.000000   0.000000
   38  TI 1 YY    0.000000   0.000000
   39  TI 1 ZZ    0.000000  -0.000000
   40  TI 1 XY    0.000000   0.000000
   41  TI 1 XZ    0.000000   0.000000
   42  TI 1 YZ    0.000000   0.000000
   43  TI 1 XX    0.000000  -0.000000
   44  TI 1 YY    0.000000   0.000000
   45  TI 1 ZZ    0.000000   0.000000
   46  TI 1 XY    0.000000   0.000000
   47  TI 1 XZ    0.000000   0.000000
   48  TI 1 YZ    0.000000   0.000000
   49  TI 1 XX    0.000000   0.000000
   50  TI 1 YY    0.000000  -0.000000
   51  TI 1 ZZ    0.000000  -0.000000
   52  TI 1 XY    0.000000   0.000000
   53  TI 1 XZ    0.000000   0.000000
   54  TI 1 YZ    0.000000   0.000000
   55  TI 1 XXX  -0.000013   0.000000
   56  TI 1 YYY   0.000000   0.000000
   57  TI 1 ZZZ   0.000000   0.000000
   58  TI 1 XXY   0.000000   0.000000
   59  TI 1 XXZ   0.000000   0.000000
   60  TI 1 YYX  -0.000035   0.000000
   61  TI 1 YYZ   0.000000   0.000000
   62  TI 1 ZZX   0.000052   0.000000
   63  TI 1 ZZY   0.000000   0.000000
   64  TI 1 XYZ   0.000000   0.000000
   65  TI 1 XXX   0.000049   0.000000
   66  TI 1 YYY   0.000000   0.000000
   67  TI 1 ZZZ   0.000000   0.000000
   68  TI 1 XXY   0.000000   0.000000
   69  TI 1 XXZ   0.000000   0.000000
   70  TI 1 YYX   0.000131   0.000000
   71  TI 1 YYZ   0.000000   0.000000
   72  TI 1 ZZX  -0.000197   0.000000
   73  TI 1 ZZY   0.000000   0.000000
   74  TI 1 XYZ   0.000000   0.000000
   75  TI 1 XXX  -0.000253   0.000000
   76  TI 1 YYY   0.000000   0.000000
   77  TI 1 ZZZ   0.000000   0.000000
   78  TI 1 XXY   0.000000   0.000000
   79  TI 1 XXZ   0.000000   0.000000
   80  TI 1 YYX  -0.000679   0.000000
   81  TI 1 YYZ   0.000000   0.000000
   82  TI 1 ZZX   0.001018   0.000000
   83  TI 1 ZZY   0.000000   0.000000
   84  TI 1 XYZ   0.000000   0.000000
   85  TI 1XXXX   0.000000   0.000005
   86  TI 1YYYY   0.000000  -0.000020
   87  TI 1ZZZZ   0.000000   0.000005
   88  TI 1XXXY   0.000000   0.000000
   89  TI 1XXXZ   0.000000   0.000000
   90  TI 1YYYX   0.000000   0.000000
   91  TI 1YYYZ   0.000000   0.000000
   92  TI 1ZZZX   0.000000   0.000000
   93  TI 1ZZZY   0.000000   0.000000
   94  TI 1XXYY   0.000000   0.000017
   95  TI 1XXZZ   0.000000  -0.000026
   96  TI 1YYZZ   0.000000   0.000017
   97  TI 1XXYZ   0.000000   0.000000
   98  TI 1YYXZ   0.000000   0.000000
   99  TI 1ZZXY   0.000000   0.000000
  100  TI 1XXXX   0.000000  -0.000019
  101  TI 1YYYY   0.000000   0.000077
  102  TI 1ZZZZ   0.000000  -0.000019
  103  TI 1XXXY   0.000000   0.000000
  104  TI 1XXXZ   0.000000   0.000000
  105  TI 1YYYX   0.000000   0.000000
  106  TI 1YYYZ   0.000000   0.000000
  107  TI 1ZZZX   0.000000   0.000000
  108  TI 1ZZZY   0.000000   0.000000
  109  TI 1XXYY   0.000000  -0.000068
  110  TI 1XXZZ   0.000000   0.000101
  111  TI 1YYZZ   0.000000  -0.000068
  112  TI 1XXYZ   0.000000   0.000000
  113  TI 1YYXZ   0.000000   0.000000
  114  TI 1ZZXY   0.000000   0.000000
  115  TI 1  S    0.000000  44.427807
  116  TI 1  S    0.000000 -38.392695
  117  TI 1  X   14.235619   0.000000
  118  TI 1  Y    0.000000   0.000000
  119  TI 1  Z    0.000000   0.000000
  120  TI 1  X    0.537621   0.000000
  121  TI 1  Y    0.000000   0.000000
  122  TI 1  Z    0.000000   0.000000
  123  TI 1 XX    0.000000   0.000000
  124  TI 1 YY    0.000000  -0.000000
  125  TI 1 ZZ    0.000000   0.000000
  126  TI 1 XY    0.000000   0.000000
  127  TI 1 XZ    0.000000   0.000000
  128  TI 1 YZ    0.000000   0.000000
  129  TI 1 XX    0.000000  -0.000000
  130  TI 1 YY    0.000000   0.000000
  131  TI 1 ZZ    0.000000   0.000000
  132  TI 1 XY    0.000000   0.000000
  133  TI 1 XZ    0.000000   0.000000
  134  TI 1 YZ    0.000000   0.000000
  135  TI 1 XXX   0.000259   0.000000
  136  TI 1 YYY   0.000000   0.000000
  137  TI 1 ZZZ   0.000000   0.000000
  138  TI 1 XXY   0.000000   0.000000
  139  TI 1 XXZ   0.000000   0.000000
  140  TI 1 YYX   0.000696   0.000000
  141  TI 1 YYZ   0.000000   0.000000
  142  TI 1 ZZX  -0.001043   0.000000
  143  TI 1 ZZY   0.000000   0.000000
  144  TI 1 XYZ   0.000000   0.000000
  145  TI 1XXXX   0.000000   0.000016
  146  TI 1YYYY   0.000000  -0.000066
  147  TI 1ZZZZ   0.000000   0.000016
  148  TI 1XXXY   0.000000   0.000000
  149  TI 1XXXZ   0.000000   0.000000
  150  TI 1YYYX   0.000000   0.000000
  151  TI 1YYYZ   0.000000   0.000000
  152  TI 1ZZZX   0.000000   0.000000
  153  TI 1ZZZY   0.000000   0.000000
  154  TI 1XXYY   0.000000   0.000058
  155  TI 1XXZZ   0.000000  -0.000087
  156  TI 1YYZZ   0.000000   0.000058
  157  TI 1XXYZ   0.000000   0.000000
  158  TI 1YYXZ   0.000000   0.000000
  159  TI 1ZZXY   0.000000   0.000000
 ...... END OF ROHF CALCULATION ......
 STEP CPU TIME =     3.56 TOTAL CPU TIME =       63.0 (    1.0 MIN)
 TOTAL WALL CLOCK TIME=       63.9 SECONDS, CPU UTILIZATION IS  98.50%

     ----------------------------------------------------------------
     PROPERTY VALUES FOR THE ROHF  SELF-CONSISTENT FIELD WAVEFUNCTION
     ----------------------------------------------------------------

          -----------------
          ENERGY COMPONENTS
          -----------------

         WAVEFUNCTION NORMALIZATION =       1.0000000000

                ONE ELECTRON ENERGY =     -97.1810731045
                TWO ELECTRON ENERGY =      39.5713852644
           NUCLEAR REPULSION ENERGY =       0.0000000000
                                      ------------------
                       TOTAL ENERGY =     -57.6096878401

 ELECTRON-ELECTRON POTENTIAL ENERGY =      39.5713852644
  NUCLEUS-ELECTRON POTENTIAL ENERGY =    -123.0475401219
   NUCLEUS-NUCLEUS POTENTIAL ENERGY =       0.0000000000
                                      ------------------
             TOTAL POTENTIAL ENERGY =     -83.4761548575
               TOTAL KINETIC ENERGY =      25.8664670174
                 VIRIAL RATIO (V/T) =       3.2271958440

          ---------------------------------------
          MULLIKEN AND LOWDIN POPULATION ANALYSES
          ---------------------------------------

     ATOMIC MULLIKEN POPULATION IN EACH MOLECULAR ORBITAL

                      1          2          3          4          5

                  2.000000   2.000000   2.000000   2.000000   2.000000

    1             2.000000   2.000000   2.000000   2.000000   2.000000

                      6          7

                  1.000000   1.000000

    1             1.000000   1.000000

          MULLIKEN SPHERICAL HARMONIC POPULATIONS
       ATOM           S       P       D      F      G      H      I    TOTAL
    1 TI            2.00    3.00    2.00   0.00   0.00   0.00   0.00    7.00

          MULLIKEN SPHERICAL HARMONIC POPULATIONS
       ATOM           S       P       D      F      G      H      I    TOTAL
    1 TI            2.00    3.00    0.00   0.00   0.00   0.00   0.00    5.00

     ATOMIC SPIN POPULATION (ALPHA MINUS BETA)
       ATOM         MULL.POP.                    LOW.POP.
    1 TI            2.000000                     2.000000

               ----- POPULATIONS IN EACH AO -----
                             MULLIKEN      LOWDIN
              1  TI 1  S      1.99973     0.22125
              2  TI 1  S      1.99861     0.39740
              3  TI 1  S     -0.00002     0.00034
              4  TI 1  S     -0.00000     0.00450
              5  TI 1  S     -0.00000     0.00929
              6  TI 1  S      0.00169     0.28678
              7  TI 1  X      2.00554     0.38735
              8  TI 1  Y      2.00554     0.38842
              9  TI 1  Z      2.00554     0.38735
             10  TI 1  X      0.00231     0.00000
             11  TI 1  Y      0.00231     0.00000
             12  TI 1  Z      0.00231     0.00000
             13  TI 1  X     -0.00047     0.00217
             14  TI 1  Y     -0.00047     0.00222
             15  TI 1  Z     -0.00047     0.00217
             16  TI 1  X     -0.00003     0.00258
             17  TI 1  Y     -0.00003     0.00260
             18  TI 1  Z     -0.00003     0.00258
             19  TI 1  X      0.00000     0.00211
             20  TI 1  Y      0.00000     0.00212
             21  TI 1  Z      0.00000     0.00211
             22  TI 1  X     -0.00446     0.00218
             23  TI 1  Y     -0.00446     0.00219
             24  TI 1  Z     -0.00446     0.00218
             25  TI 1 XX      0.24416     0.18743
             26  TI 1 YY      0.73247     0.34638
             27  TI 1 ZZ      0.00000     0.18743
             28  TI 1 XY      0.97662     0.00000
             29  TI 1 XZ      0.00000     0.30167
             30  TI 1 YZ      0.00000     0.00000
             31  TI 1 XX      0.00562     0.19022
             32  TI 1 YY      0.01687     0.19185
             33  TI 1 ZZ      0.00000     0.19022
             34  TI 1 XY      0.02249     0.00000
             35  TI 1 XZ      0.00000     0.00343
             36  TI 1 YZ      0.00000     0.00000
             37  TI 1 XX      0.00004     0.00265
             38  TI 1 YY      0.00013     0.00274
             39  TI 1 ZZ      0.00000     0.00265
             40  TI 1 XY      0.00017     0.00000
             41  TI 1 XZ      0.00000     0.00006
             42  TI 1 YZ      0.00000     0.00000
             43  TI 1 XX      0.00001     0.00439
             44  TI 1 YY      0.00002     0.00439
             45  TI 1 ZZ      0.00000     0.00439
             46  TI 1 XY      0.00002     0.00000
             47  TI 1 XZ      0.00000     0.00001
             48  TI 1 YZ      0.00000     0.00000
             49  TI 1 XX      0.00011     0.05730
             50  TI 1 YY      0.00033     0.05852
             51  TI 1 ZZ      0.00000     0.05730
             52  TI 1 XY      0.00044     0.00000
             53  TI 1 XZ      0.00000     0.00234
             54  TI 1 YZ      0.00000     0.00000
             55  TI 1 XXX     0.00000     0.01156
             56  TI 1 YYY     0.00002     0.01244
             57  TI 1 ZZZ     0.00002     0.01156
             58  TI 1 XXY     0.00000     0.00435
             59  TI 1 XXZ     0.00001     0.00526
             60  TI 1 YYX     0.00000     0.00433
             61  TI 1 YYZ     0.00001     0.00433
             62  TI 1 ZZX     0.00000     0.00526
             63  TI 1 ZZY     0.00000     0.00435
             64  TI 1 XYZ     0.00000     0.00000
             65  TI 1 XXX     0.00002     0.20265
             66  TI 1 YYY     0.00012     0.21050
             67  TI 1 ZZZ     0.00011     0.20265
             68  TI 1 XXY     0.00001     0.08052
             69  TI 1 XXZ     0.00005     0.08931
             70  TI 1 YYX     0.00000     0.08052
             71  TI 1 YYZ     0.00008     0.08052
             72  TI 1 ZZX     0.00000     0.08931
             73  TI 1 ZZY     0.00000     0.08052
             74  TI 1 XYZ     0.00000     0.00000
             75  TI 1 XXX     0.00001     0.24769
             76  TI 1 YYY     0.00004     0.25252
             77  TI 1 ZZZ     0.00003     0.24769
             78  TI 1 XXY     0.00000     0.10218
             79  TI 1 XXZ     0.00001     0.10769
             80  TI 1 YYX     0.00000     0.10219
             81  TI 1 YYZ     0.00002     0.10219
             82  TI 1 ZZX     0.00000     0.10769
             83  TI 1 ZZY     0.00000     0.10218
             84  TI 1 XYZ     0.00000     0.00000
             85  TI 1XXXX     0.00001     0.09955
             86  TI 1YYYY     0.00002     0.17559
             87  TI 1ZZZZ     0.00000     0.09955
             88  TI 1XXXY     0.00000     0.00000
             89  TI 1XXXZ     0.00002     0.07963
             90  TI 1YYYX     0.00000     0.00000
             91  TI 1YYYZ     0.00000     0.00000
             92  TI 1ZZZX     0.00000     0.07963
             93  TI 1ZZZY     0.00000     0.00000
             94  TI 1XXYY     0.00000     0.08384
             95  TI 1XXZZ     0.00000     0.10230
             96  TI 1YYZZ     0.00000     0.08384
             97  TI 1XXYZ     0.00000     0.00000
             98  TI 1YYXZ     0.00000     0.03184
             99  TI 1ZZXY     0.00000     0.00000
            100  TI 1XXXX     0.00001     0.08382
            101  TI 1YYYY     0.00001     0.16790
            102  TI 1ZZZZ     0.00000     0.08382
            103  TI 1XXXY     0.00000     0.00000
            104  TI 1XXXZ     0.00001     0.08900
            105  TI 1YYYX     0.00000     0.00000
            106  TI 1YYYZ     0.00000     0.00000
            107  TI 1ZZZX     0.00000     0.08900
            108  TI 1ZZZY     0.00000     0.00000
            109  TI 1XXYY     0.00000     0.06457
            110  TI 1XXZZ     0.00000     0.08604
            111  TI 1YYZZ     0.00000     0.06457
            112  TI 1XXYZ     0.00000     0.00000
            113  TI 1YYXZ     0.00000     0.03721
            114  TI 1ZZXY     0.00000     0.00000
            115  TI 1  S      0.00013     0.09577
            116  TI 1  S     -0.00014     0.08426
            117  TI 1  X     -0.00345     0.33427
            118  TI 1  Y     -0.00345     0.33501
            119  TI 1  Z     -0.00345     0.33427
            120  TI 1  X      0.00035     0.07247
            121  TI 1  Y      0.00035     0.07252
            122  TI 1  Z      0.00035     0.07247
            123  TI 1 XX      0.00005     0.10983
            124  TI 1 YY      0.00014     0.16042
            125  TI 1 ZZ      0.00000     0.10983
            126  TI 1 XY      0.00019     0.00000
            127  TI 1 XZ      0.00000     0.09433
            128  TI 1 YZ      0.00000     0.00000
            129  TI 1 XX      0.00000     0.11151
            130  TI 1 YY      0.00001     0.16083
            131  TI 1 ZZ      0.00000     0.11151
            132  TI 1 XY      0.00002     0.00000
            133  TI 1 XZ      0.00000     0.09479
            134  TI 1 YZ      0.00000     0.00000
            135  TI 1 XXX     0.00000     0.18815
            136  TI 1 YYY     0.00001     0.19114
            137  TI 1 ZZZ     0.00001     0.18815
            138  TI 1 XXY     0.00000     0.07712
            139  TI 1 XXZ     0.00000     0.08041
            140  TI 1 YYX     0.00000     0.07710
            141  TI 1 YYZ     0.00001     0.07710
            142  TI 1 ZZX     0.00000     0.08041
            143  TI 1 ZZY     0.00000     0.07712
            144  TI 1 XYZ     0.00000     0.00000
            145  TI 1XXXX     0.00000     0.07087
            146  TI 1YYYY     0.00000     0.10719
            147  TI 1ZZZZ     0.00000     0.07087
            148  TI 1XXXY     0.00000     0.00000
            149  TI 1XXXZ     0.00000     0.03955
            150  TI 1YYYX     0.00000     0.00000
            151  TI 1YYYZ     0.00000     0.00000
            152  TI 1ZZZX     0.00000     0.03955
            153  TI 1ZZZY     0.00000     0.00000
            154  TI 1XXYY     0.00000     0.06476
            155  TI 1XXZZ     0.00000     0.07477
            156  TI 1YYZZ     0.00000     0.06476
            157  TI 1XXYZ     0.00000     0.00000
            158  TI 1YYXZ     0.00000     0.01797
            159  TI 1ZZXY     0.00000     0.00000

          ----- MULLIKEN ATOMIC OVERLAP POPULATIONS -----
          (OFF-DIAGONAL ELEMENTS NEED TO BE MULTIPLIED BY 2)

             1

    1   12.0000000

          TOTAL MULLIKEN AND LOWDIN ATOMIC POPULATIONS
       ATOM         MULL.POP.    CHARGE          LOW.POP.     CHARGE
    1 TI           12.000000    0.000000        12.000000   -0.000000

          MULLIKEN SPHERICAL HARMONIC POPULATIONS
       ATOM           S       P       D      F      G      H      I    TOTAL
    1 TI            4.00    6.00    2.00   0.00   0.00   0.00   0.00   12.00

          -------------------------------
          BOND ORDER AND VALENCE ANALYSIS     BOND ORDER THRESHOLD=0.050
          -------------------------------

                   BOND                       BOND                       BOND
  ATOM PAIR DIST  ORDER      ATOM PAIR DIST  ORDER      ATOM PAIR DIST  ORDER

                       TOTAL       BONDED        FREE
      ATOM            VALENCE     VALENCE     VALENCE
    1 TI                2.000       0.000       2.000

          -----------------------------------------
          ATOMIC SPIN DENSITY AT THE NUCLEUS (A.U.)
          -----------------------------------------
                            SPIN DENS    ALPHA DENS     BETA DENS
    1  TI          12.0     0.0000000       0.00059       0.00059

          ---------------------
          ELECTROSTATIC MOMENTS
          ---------------------

 POINT   1           X           Y           Z (BOHR)    CHARGE
                 0.000000    0.000000    0.000000        0.00 (A.U.)
         DX          DY          DZ         /D/  (DEBYE)
     0.000000    0.000000    0.000000    0.000000
 ...... END OF PROPERTY EVALUATION ......
 STEP CPU TIME =     0.07 TOTAL CPU TIME =       63.0 (    1.1 MIN)
 TOTAL WALL CLOCK TIME=       64.0 SECONDS, CPU UTILIZATION IS  98.42%
                809342  WORDS OF DYNAMIC MEMORY USED
 EXECUTION OF GAMESS TERMINATED NORMALLY Thu Dec  6 13:36:07 2018
 DDI: 263624 bytes (0.3 MB / 0 MWords) used by master data server.

 ----------------------------------------
 CPU timing information for all processes
 ========================================
 0: 62.440 + 0.612 = 63.53
 ----------------------------------------
 ddikick.x: exited gracefully.
----- accounting info -----
Files used on the master node c506-094.stampede2.tacc.utexas.edu were:
-rw------- 1 aannabe G-801537    321212 Dec  6 13:35 /tmp/Ti.F05
-rw------- 1 aannabe G-801537 124931104 Dec  6 13:36 /tmp/Ti.F08
-rw------- 1 aannabe G-801537  10437680 Dec  6 13:36 /tmp/Ti.F10
Thu Dec  6 13:36:10 CST 2018
0.232u 0.179s 1:07.73 0.5%	0+0k 6264+664io 30pf+0w
