
 Primary working directories    : /global/cscratch1/sd/aannabe
 Secondary working directories  : /global/cscratch1/sd/aannabe
 Wavefunction directory         : /global/homes/a/aannabe/wfu/
 Main file repository           : /global/cscratch1/sd/aannabe/

 SHA1      : 19cd028119e0e09f93f0674bd8af7968d9b3eff6
 NAME      : 2015.1.36
 ARCHNAME  : linux/x86_64
 FC        : /opt/cray/pe/craype/2.5.14/bin/ftn
 BLASLIB   : -L/opt/intel/compilers_and_libraries_2018.1.163/linux/mkl/lib/intel64 -Wl,-_start-group -lmkl_intel_ilp64 -lmkl_intel_thread -lmkl_core -Wl,-_end-group -liomp5
 id        : lbl

 Nodes     nprocs
 nid00511     1

 Using customized tuning parameters: mindgm=7; mindgv=16; mindgc=1; mindgr=1; noblas=0; minvec=7
 default implementation of scratch files=df  

 ***,Ni
 memory,8,g
 gthresh,twoint=1.e-12
 
 gprint,basis,orbitals
 gexpec,ekin,pot
 
 angstrom
 geometry={
 1                                                                               ! Number of atoms
 Ni 0.0 0.0 0.0
 }
 
 basis={
 Including file /global/homes/a/aannabe/docs/accurate/STU_natural/pps/Ni.pp
 Including file /global/homes/a/aannabe/docs/accurate/STU_natural/basis/Ni_dz.basis
 }
 
 {rhf
  start,atden
  print,orbitals=2
  wf,18,6,2
  occ,4,1,1,1,1,1,1,0
  open,1.4,1.7
  sym,1,1,1,3,2
  orbital,4202.2
 }
 pop
 {multi
  start,4202.2
  occ,4,1,1,1,1,1,1,0
  closed,2,1,1,0,1,0,0
  wf,18,1,2;state,1
  wf,18,4,2;state,3
  wf,18,6,2;state,3
  wf,18,7,2;state,3
  natorb,ci,print
  orbital,5202.2
 }
 {rhf,nitord=1,maxit=0
  start,5202.2
  wf,18,1,2
  occ,4,1,1,1,1,1,1,0
  open,3.1,4.1
  sym,1,1,1,3,2
 }
 
 scf(i)=energy
 
 _CC_NORM_MAX=2.0
  !NOTE: Perturbative MRCC works only with UHF reference. So, here we will trick MRCC by doing zero UHF iteration right after ROHF.
 
 {uhf
 maxit,0
  wf,18,1,2
  occ,4,1,1,1,1,1,1,0
  open,3.1,4.1
  sym,1,1,1,3,2
 
 }
 scf(i)=energy
 
 {mrcc,method=CCSDT(Q)
 orbital,ignore_error=1                                                          !Ignore the fact that UHF WF is not converged
 maxit,100
 core
 }
 posthf(i)=energy
 
 table,scf,posthf,ekin,pot
 save,2.csv,new
 
 

 Variables initialized (889), CPU time= 0.00 sec
 Commands  initialized (702), CPU time= 0.01 sec, 572 directives.
 Default parameters read. Elapsed time= 0.15 sec

 Checking input...
 Passed
1


                                         ***  PROGRAM SYSTEM MOLPRO  ***
                                       Copyright, TTI GmbH Stuttgart, 2015
                                    Version 2015.1 linked Dec 29 2018 15:55:43


 **********************************************************************************************************************************
 LABEL *   Ni                                                                            
  64 bit serial version                                                                  DATE: 17-Feb-19          TIME: 18:26:14  
 **********************************************************************************************************************************

 SHA1:             19cd028119e0e09f93f0674bd8af7968d9b3eff6
 **********************************************************************************************************************************

 THRESHOLDS:

 ZERO    =  1.00D-12  ONEINT  =  1.00D-12  TWOINT  =  1.00D-12  PREFAC  =  1.00D-14  LOCALI  =  1.00D-09  EORDER  =  1.00D-04
 ENERGY  =  0.00D+00  ETEST   =  0.00D+00  EDENS   =  0.00D+00  THRDEDEF=  1.00D-06  GRADIENT=  1.00D-02  STEP    =  1.00D-03
 ORBITAL =  1.00D-05  CIVEC   =  1.00D-05  COEFF   =  1.00D-04  PRINTCI =  5.00D-02  PUNCHCI =  9.90D+01  OPTGRAD =  3.00D-04
 OPTENERG=  1.00D-06  OPTSTEP =  3.00D-04  THRGRAD =  1.00D-10  COMPRESS=  1.00D-11  VARMIN  =  1.00D-07  VARMAX  =  1.00D-03
 THRDOUB =  0.00D+00  THRDIV  =  1.00D-05  THRRED  =  1.00D-07  THRPSP  =  1.00D+00  THRDC   =  1.00D-10  THRCS   =  1.00D-10
 THRNRM  =  1.00D-08  THREQ   =  0.00D+00  THRDE   =  1.00D+00  THRREF  =  1.00D-05  SPARFAC =  1.00D+00  THRDLP  =  1.00D-07
 THRDIA  =  1.00D-10  THRDLS  =  1.00D-07  THRGPS  =  0.00D+00  THRKEX  =  0.00D+00  THRDIS  =  2.00D-01  THRVAR  =  1.00D-10
 THRLOC  =  1.00D-06  THRGAP  =  1.00D-06  THRLOCT = -1.00D+00  THRGAPT = -1.00D+00  THRORB  =  1.00D-06  THRMLTP =  0.00D+00
 THRCPQCI=  1.00D-10  KEXTA   =  0.00D+00  THRCOARS=  0.00D+00  SYMTOL  =  1.00D-06  GRADTOL =  1.00D-06  THROVL  =  1.00D-08
 THRORTH =  1.00D-08  GRID    =  1.00D-06  GRIDMAX =  1.00D-03  DTMAX   =  0.00D+00  THROCCDE=  1.00D-01  THROCCDE=  1.00D-01



 ZUNIT=ANG
 

Geometry recognized as XYZ


 Variable memory set to 8000000000 words,  buffer space   230000 words

 SETTING BASIS          =    USERDEF


 Recomputing integrals since basis changed


 Using spherical harmonics



 PROGRAM * SEWARD (Integral evaluation for generally contracted gaussian basis sets)     Author: Roland Lindh, 1990

 Geometry written to block  1 of record 700

 Orientation using atomic masses  
 Molecule type: Atom
 Symmetry elements: X,Y,Z
 Rotational constants:       0.0000000      0.0000000      0.0000000 GHz  (calculated with average atomic masses)

 Point group  D2h 



 ATOMIC COORDINATES

 NR  ATOM    CHARGE       X              Y              Z

   1  NI     18.00    0.000000000    0.000000000    0.000000000


          NI  CORE POTENTIAL

          f POTENTIAL

 POWERS             2
 EXPONENTIALS   1.000000    
 COEFFICIENTS   0.000000    

          s - f POTENTIAL

 POWERS             2              2
 EXPONENTIALS   26.74000       11.86000    
 COEFFICIENTS   317.6823       58.25539    

          p - f POTENTIAL

 POWERS             2              2
 EXPONENTIALS   28.80000       11.79000    
 COEFFICIENTS   252.4744       36.08150    

          d - f POTENTIAL

 POWERS             2              2
 EXPONENTIALS   33.70000       11.66000    
 COEFFICIENTS  -18.52295      -4.557668    


 BASIS DATA

   Nr Sym  Nuc  Type         Exponents   Contraction coefficients

    1.1 Ag    1  1s       10201.992670     0.000018   -0.000004
    2.1 Ag                 2550.498168     0.000078   -0.000019
                            728.713763     0.000243   -0.000058
                            242.904587     0.000821   -0.000200
                             97.161835    -0.000522    0.000154
                             51.187866    -0.005724    0.001116
                             26.996725     0.108264   -0.025210
                             15.523536    -0.151401    0.037685
                              8.916168    -0.329232    0.080252
                              4.795806    -0.024291    0.000867
                              2.619926     0.506913   -0.136055
                              1.330111     0.560034   -0.211236
                              0.668901     0.189622   -0.158046
                              0.230439     0.008846    0.141936
                              0.121518    -0.002605    0.442281
                              0.057951     0.000835    0.473675
                              0.027201    -0.000186    0.111323
    3.1 Ag    1  1s          97.161835     0.000121    0.000000
    4.1 Ag                   51.187866     0.003322    0.000000
                             26.996725    -0.045785    0.000000
                             15.523536     0.053415    0.000000
                              8.916168     0.222270    0.000000
                              4.795806    -0.073065    0.000000
                              2.619926    -0.293998    0.000000
                              1.330111    -0.668938    0.000000
                              0.668901     0.297504    0.000000
                              0.230439     1.233748    0.000000
                              0.121518     0.129317    0.000000
                              0.057951    -0.603407    0.000000
                              0.027201    -0.533062    1.000000
    5.1 Ag    1  1s           1.099912     1.000000
    6.1 Ag    1  1s           4.266474     1.000000
    7.1 Ag    1  3d0        355.800250     0.000005
                            177.900125     0.001336
                             57.372112     0.008382
                             29.881432     0.029484
                             13.971757     0.097636
                              6.841152     0.188792
                              3.379983     0.278000
                              1.651827     0.299448
                              0.799251     0.250265
                              0.388057     0.146577
                              0.191191     0.055882
                              0.093358     0.009558
    8.1 Ag    1  3d2+       355.800250     0.000005
                            177.900125     0.001336
                             57.372112     0.008382
                             29.881432     0.029484
                             13.971757     0.097636
                              6.841152     0.188792
                              3.379983     0.278000
                              1.651827     0.299448
                              0.799251     0.250265
                              0.388057     0.146577
                              0.191191     0.055882
                              0.093358     0.009558
    9.1 Ag    1  3d0        177.900125    -0.000053
                             57.372112    -0.008850
                             29.881432    -0.041916
                             13.971757    -0.104691
                              6.841152    -0.219464
                              3.379983    -0.283712
                              1.651827    -0.122127
                              0.799251     0.190123
                              0.388057     0.376598
                              0.191191     0.295122
                              0.093358     0.178252
   10.1 Ag    1  3d2+       177.900125    -0.000053
                             57.372112    -0.008850
                             29.881432    -0.041916
                             13.971757    -0.104691
                              6.841152    -0.219464
                              3.379983    -0.283712
                              1.651827    -0.122127
                              0.799251     0.190123
                              0.388057     0.376598
                              0.191191     0.295122
                              0.093358     0.178252
   11.1 Ag    1  3d0        177.900125     0.000000
                             57.372112     0.000000
                             29.881432     0.000000
                             13.971757     0.000000
                              6.841152     0.000000
                              3.379983     0.000000
                              1.651827     0.000000
                              0.799251     0.000000
                              0.388057     0.000000
                              0.191191     0.000000
                              0.093358     1.000000
   12.1 Ag    1  3d2+       177.900125     0.000000
                             57.372112     0.000000
                             29.881432     0.000000
                             13.971757     0.000000
                              6.841152     0.000000
                              3.379983     0.000000
                              1.651827     0.000000
                              0.799251     0.000000
                              0.388057     0.000000
                              0.191191     0.000000
                              0.093358     1.000000
   13.1 Ag    1  3d0          1.406397     1.000000
   14.1 Ag    1  3d2+         1.406397     1.000000
   15.1 Ag    1  3d0          3.410393     1.000000
   16.1 Ag    1  3d2+         3.410393     1.000000
    1.2 B3u   1  2px        370.219075     0.000133    0.000051
    2.2 B3u                 148.087630     0.000184   -0.000060
                             77.452187    -0.000171    0.000387
                             40.915636     0.012864    0.002261
                             22.575667    -0.043275   -0.009122
                             13.218268    -0.073470   -0.026366
                              7.232093     0.037020    0.023521
                              4.054870     0.287407    0.071181
                              2.122089     0.417209    0.159270
                              1.092769     0.306664    0.074081
                              0.548240     0.098195    0.033197
                              0.238886     0.008483   -0.601421
                              0.084667     0.000400   -0.517750
                              0.038921     0.000036   -0.009842
    3.2 B3u   1  2px        148.087630    -0.000237    0.000000
    4.2 B3u                  77.452187     0.001456    0.000000
                             40.915636    -0.009745    0.000000
                             22.575667     0.037799    0.000000
                             13.218268     0.052521    0.000000
                              7.232093    -0.035006    0.000000
                              4.054870    -0.455577    0.000000
                              2.122089    -0.368306    0.000000
                              1.092769     0.100392    0.000000
                              0.548240     1.076652    0.000000
                              0.238886    -0.045326    0.000000
                              0.084667    -0.703186    0.000000
                              0.038921     0.004580    1.000000
    5.2 B3u   1  2px          1.398024     1.000000
    6.2 B3u   1  2px          6.294441     1.000000
    7.2 B3u   1  4f1+         2.317543     1.000000
    8.2 B3u   1  4f3+         2.317543     1.000000
    9.2 B3u   1  4f1+         6.722827     1.000000
   10.2 B3u   1  4f3+         6.722827     1.000000
    1.3 B2u   1  2py        370.219075     0.000133    0.000051
    2.3 B2u                 148.087630     0.000184   -0.000060
                             77.452187    -0.000171    0.000387
                             40.915636     0.012864    0.002261
                             22.575667    -0.043275   -0.009122
                             13.218268    -0.073470   -0.026366
                              7.232093     0.037020    0.023521
                              4.054870     0.287407    0.071181
                              2.122089     0.417209    0.159270
                              1.092769     0.306664    0.074081
                              0.548240     0.098195    0.033197
                              0.238886     0.008483   -0.601421
                              0.084667     0.000400   -0.517750
                              0.038921     0.000036   -0.009842
    3.3 B2u   1  2py        148.087630    -0.000237    0.000000
    4.3 B2u                  77.452187     0.001456    0.000000
                             40.915636    -0.009745    0.000000
                             22.575667     0.037799    0.000000
                             13.218268     0.052521    0.000000
                              7.232093    -0.035006    0.000000
                              4.054870    -0.455577    0.000000
                              2.122089    -0.368306    0.000000
                              1.092769     0.100392    0.000000
                              0.548240     1.076652    0.000000
                              0.238886    -0.045326    0.000000
                              0.084667    -0.703186    0.000000
                              0.038921     0.004580    1.000000
    5.3 B2u   1  2py          1.398024     1.000000
    6.3 B2u   1  2py          6.294441     1.000000
    7.3 B2u   1  4f1-         2.317543     1.000000
    8.3 B2u   1  4f3-         2.317543     1.000000
    9.3 B2u   1  4f1-         6.722827     1.000000
   10.3 B2u   1  4f3-         6.722827     1.000000
    1.4 B1g   1  3d2-       355.800250     0.000005
                            177.900125     0.001336
                             57.372112     0.008382
                             29.881432     0.029484
                             13.971757     0.097636
                              6.841152     0.188792
                              3.379983     0.278000
                              1.651827     0.299448
                              0.799251     0.250265
                              0.388057     0.146577
                              0.191191     0.055882
                              0.093358     0.009558
    2.4 B1g   1  3d2-       177.900125    -0.000053    0.000000
    3.4 B1g                  57.372112    -0.008850    0.000000
                             29.881432    -0.041916    0.000000
                             13.971757    -0.104691    0.000000
                              6.841152    -0.219464    0.000000
                              3.379983    -0.283712    0.000000
                              1.651827    -0.122127    0.000000
                              0.799251     0.190123    0.000000
                              0.388057     0.376598    0.000000
                              0.191191     0.295122    0.000000
                              0.093358     0.178252    1.000000
    4.4 B1g   1  3d2-         1.406397     1.000000
    5.4 B1g   1  3d2-         3.410393     1.000000
    1.5 B1u   1  2pz        370.219075     0.000133    0.000051
    2.5 B1u                 148.087630     0.000184   -0.000060
                             77.452187    -0.000171    0.000387
                             40.915636     0.012864    0.002261
                             22.575667    -0.043275   -0.009122
                             13.218268    -0.073470   -0.026366
                              7.232093     0.037020    0.023521
                              4.054870     0.287407    0.071181
                              2.122089     0.417209    0.159270
                              1.092769     0.306664    0.074081
                              0.548240     0.098195    0.033197
                              0.238886     0.008483   -0.601421
                              0.084667     0.000400   -0.517750
                              0.038921     0.000036   -0.009842
    3.5 B1u   1  2pz        148.087630    -0.000237    0.000000
    4.5 B1u                  77.452187     0.001456    0.000000
                             40.915636    -0.009745    0.000000
                             22.575667     0.037799    0.000000
                             13.218268     0.052521    0.000000
                              7.232093    -0.035006    0.000000
                              4.054870    -0.455577    0.000000
                              2.122089    -0.368306    0.000000
                              1.092769     0.100392    0.000000
                              0.548240     1.076652    0.000000
                              0.238886    -0.045326    0.000000
                              0.084667    -0.703186    0.000000
                              0.038921     0.004580    1.000000
    5.5 B1u   1  2pz          1.398024     1.000000
    6.5 B1u   1  2pz          6.294441     1.000000
    7.5 B1u   1  4f0          2.317543     1.000000
    8.5 B1u   1  4f2+         2.317543     1.000000
    9.5 B1u   1  4f0          6.722827     1.000000
   10.5 B1u   1  4f2+         6.722827     1.000000
    1.6 B2g   1  3d1+       355.800250     0.000005
                            177.900125     0.001336
                             57.372112     0.008382
                             29.881432     0.029484
                             13.971757     0.097636
                              6.841152     0.188792
                              3.379983     0.278000
                              1.651827     0.299448
                              0.799251     0.250265
                              0.388057     0.146577
                              0.191191     0.055882
                              0.093358     0.009558
    2.6 B2g   1  3d1+       177.900125    -0.000053    0.000000
    3.6 B2g                  57.372112    -0.008850    0.000000
                             29.881432    -0.041916    0.000000
                             13.971757    -0.104691    0.000000
                              6.841152    -0.219464    0.000000
                              3.379983    -0.283712    0.000000
                              1.651827    -0.122127    0.000000
                              0.799251     0.190123    0.000000
                              0.388057     0.376598    0.000000
                              0.191191     0.295122    0.000000
                              0.093358     0.178252    1.000000
    4.6 B2g   1  3d1+         1.406397     1.000000
    5.6 B2g   1  3d1+         3.410393     1.000000
    1.7 B3g   1  3d1-       355.800250     0.000005
                            177.900125     0.001336
                             57.372112     0.008382
                             29.881432     0.029484
                             13.971757     0.097636
                              6.841152     0.188792
                              3.379983     0.278000
                              1.651827     0.299448
                              0.799251     0.250265
                              0.388057     0.146577
                              0.191191     0.055882
                              0.093358     0.009558
    2.7 B3g   1  3d1-       177.900125    -0.000053    0.000000
    3.7 B3g                  57.372112    -0.008850    0.000000
                             29.881432    -0.041916    0.000000
                             13.971757    -0.104691    0.000000
                              6.841152    -0.219464    0.000000
                              3.379983    -0.283712    0.000000
                              1.651827    -0.122127    0.000000
                              0.799251     0.190123    0.000000
                              0.388057     0.376598    0.000000
                              0.191191     0.295122    0.000000
                              0.093358     0.178252    1.000000
    4.7 B3g   1  3d1-         1.406397     1.000000
    5.7 B3g   1  3d1-         3.410393     1.000000
    1.8 Au    1  4f2-         2.317543     1.000000
    2.8 Au    1  4f2-         6.722827     1.000000

 NUCLEAR CHARGE:                   18
 NUMBER OF PRIMITIVE AOS:         289
 NUMBER OF SYMMETRY AOS:          258
 NUMBER OF CONTRACTIONS:           63   (  16Ag  +  10B3u +  10B2u +   5B1g +  10B1u +   5B2g +   5B3g +   2Au  )
 NUMBER OF CORE ORBITALS:           4   (   1Ag  +   1B3u +   1B2u +   0B1g +   1B1u +   0B2g +   0B3g +   0Au  )
 NUMBER OF VALENCE ORBITALS:        6   (   3Ag  +   0B3u +   0B2u +   1B1g +   0B1u +   1B2g +   1B3g +   0Au  )


 NUCLEAR REPULSION ENERGY    0.00000000

 EXTRA SYMMETRY OF AOS IN SYMMETRY 1:   1 1 1 1 1 1 2 3 2 3   2 3 2 3 2 3
 EXTRA SYMMETRY OF AOS IN SYMMETRY 2:   1 1 1 1 1 1 2 3 2 3
 EXTRA SYMMETRY OF AOS IN SYMMETRY 3:   1 1 1 1 1 1 2 3 2 3
 EXTRA SYMMETRY OF AOS IN SYMMETRY 5:   1 1 1 1 1 1 2 3 2 3

 Eigenvalues of metric

         1 0.116E-01 0.424E-01 0.424E-01 0.450E-01 0.100E+00 0.100E+00 0.337E+00 0.502E+00
         2 0.877E-02 0.181E+00 0.323E+00 0.457E+00 0.457E+00 0.120E+01 0.154E+01 0.154E+01
         3 0.877E-02 0.181E+00 0.323E+00 0.457E+00 0.457E+00 0.120E+01 0.154E+01 0.154E+01
         4 0.424E-01 0.100E+00 0.502E+00 0.166E+01 0.269E+01
         5 0.877E-02 0.181E+00 0.323E+00 0.457E+00 0.457E+00 0.120E+01 0.154E+01 0.154E+01
         6 0.424E-01 0.100E+00 0.502E+00 0.166E+01 0.269E+01
         7 0.424E-01 0.100E+00 0.502E+00 0.166E+01 0.269E+01
         8 0.457E+00 0.154E+01


 Contracted 2-electron integrals neglected if value below      1.0D-12
 AO integral compression algorithm  1   Integral accuracy      1.0D-12

     3.408 MB (compressed) written to integral file ( 75.4%)


 NUMBER OF SORTED TWO-ELECTRON INTEGRALS:     280021.     BUFFER LENGTH:  32768
 NUMBER OF SEGMENTS:   1  SEGMENT LENGTH:     280021      RECORD LENGTH: 524288

 Memory used in sort:       0.84 MW

 SORT1 READ      606445. AND WROTE      231448. INTEGRALS IN      1 RECORDS. CPU TIME:     0.00 SEC, REAL TIME:     0.03 SEC
 SORT2 READ      231448. AND WROTE      280021. INTEGRALS IN     13 RECORDS. CPU TIME:     0.04 SEC, REAL TIME:     0.07 SEC

 FILE SIZES:   FILE 1:    23.4 MBYTE,  FILE 4:     4.2 MBYTE,   TOTAL:     27.7 MBYTE

 OPERATOR DM      FOR CENTER  0  COORDINATES:    0.000000    0.000000    0.000000
 OPERATOR EKIN    FOR CENTER  0  COORDINATES:    0.000000    0.000000    0.000000
 OPERATOR POT     FOR CENTER  0  COORDINATES:    0.000000    0.000000    0.000000


 **********************************************************************************************************************************
 DATASETS  * FILE   NREC   LENGTH (MB)   RECORD NAMES
              1      20       21.62       500      610      700      900      950      970     1000      129      960     1100   
                                          VAR    BASINP    GEOM    SYMINP    ZMAT    AOBASIS   BASIS     P2S    ABASIS      S 
                                         1400     1410     1420     1200     1210     1080     1600     1650     1300     1700   
                                         EKIN       V       ECP      H0       H01     AOSYM     SMH    MOLCAS    ERIS     OPER   

 PROGRAMS   *        TOTAL       INT
 CPU TIMES  *        18.25     18.10
 REAL TIME  *        30.81 SEC
 DISK USED  *        27.97 MB      
 **********************************************************************************************************************************


 PROGRAM * RHF-SCF (OPEN SHELL)       Authors: W. Meyer, H.-J. Werner


 NUMBER OF ELECTRONS:      10+    8-    SPACE SYMMETRY=6    SPIN SYMMETRY: Triplet 
 CONVERGENCE THRESHOLDS:    1.00E-05 (Density)    1.00E-07 (Energy)
 MAX. NUMBER OF ITERATIONS:       60
 INTERPOLATION TYPE:            DIIS
 INTERPOLATION STEPS:              2 (START)      1 (STEP)
 LEVEL SHIFTS:                 -0.60 (CLOSED) -0.30 (OPEN) 


 Singly occupied orbitals:      1.4       1.7
 
 Extra symmetries of mos in symmetry 1:   1   1   3   2

   Atom=NI basis=ECP10MDF_GUESS    lmin=0  lmax=2

 Orbital guess generated from atomic densities. Full valence occupancy:    4   1   1   1   1   1   1   0


 Molecular orbital dump at record        4202.2

 ITERATION    DDIFF          GRAD             ENERGY        2-EL.EN.            DIPOLE MOMENTS         DIIS   ORB.
    1      0.000D+00      0.000D+00      -168.81025506    235.597671    0.00000    0.00000    0.00000    0    start
    2      0.000D+00      0.175D+00      -169.54986055    278.312348    0.00000    0.00000    0.00000    1    diag,B
    3      0.610D-01      0.136D+00      -169.90805298    266.758094    0.00000    0.00000    0.00000    2    diag,B
    4      0.317D-01      0.188D-01      -169.92312443    266.035136    0.00000    0.00000    0.00000    3    diag,B
    5      0.167D-01      0.365D-02      -169.92685539    266.535330    0.00000    0.00000    0.00000    4    diag,B
    6      0.167D-01      0.151D-02      -169.92789566    266.872393    0.00000    0.00000    0.00000    5    diag,B
    7      0.133D-01      0.663D-03      -169.92816426    267.022022    0.00000    0.00000    0.00000    6    fixocc
    8      0.903D-02      0.192D-03      -169.92818073    267.060351    0.00000    0.00000    0.00000    7    diag,B
    9      0.188D-02      0.448D-04      -169.92818119    267.063632    0.00000    0.00000    0.00000    8    diag,B
   10      0.111D-03      0.101D-04      -169.92818121    267.064170    0.00000    0.00000    0.00000    9    orth
   11      0.276D-04      0.156D-05      -169.92818121    267.064168    0.00000    0.00000    0.00000    9    diag,B
   12      0.206D-05      0.555D-06      -169.92818121    267.064148    0.00000    0.00000    0.00000    0    orth

 Final alpha occupancy:   4   1   1   1   1   1   1   0
 Final beta  occupancy:   4   1   1   0   1   1   0   0

 !RHF STATE 1.6 Energy               -169.928181210589
 Nuclear energy                         0.00000000
 One-electron energy                 -303.46025502
 Two-electron energy                  133.53207380
 Virial quotient                       -1.55755179
 !RHF STATE 1.6 Dipole moment           0.00000000     0.00000000     0.00000000
 Dipole moment /Debye                   0.00000000     0.00000000     0.00000000
 

 !RHF expec          <1.6|EKIN|1.6>   109.099538138138
 
 !RHF expec           <1.6|POT|1.6>   -23.758705093872

 ELECTRON ORBITALS
 =================


   Orb  Occ    Energy  Couls-En    Coefficients

                                   1 1s      1 1s      1 1s      1 1s      1 1s      1 1s      1 3d0     1 3d2+    1 3d0     1 3d2+ 
                                   1 3d0     1 3d2+    1 3d0     1 3d2+    1 3d0     1 3d2+ 

   1.1   2    -5.0620  -26.5677  0.999902 -0.000005  0.000011  0.000011  0.000101 -0.000041 -0.002056 -0.003561  0.001024  0.001774
                                -0.000293 -0.000507 -0.000264 -0.000457 -0.000936 -0.001622

   2.1   2    -0.2807   -7.0797  0.000101  1.000116  0.000098 -0.000230 -0.000084  0.000036 -0.002256 -0.003908 -0.004462 -0.007729
                                -0.002366 -0.004097  0.001693  0.002932  0.000307  0.000531

   3.1   2    -0.7107  -16.8424  0.005817  0.000747  0.001068  0.000672  0.000697 -0.000289  0.499358  0.864913 -0.001653 -0.002862
                                -0.000300 -0.000520  0.000618  0.001071  0.000056  0.000096

   4.1   2    -0.6488  -16.6687  0.000000 -0.000000  0.000000  0.000000 -0.000000  0.000000  0.870010 -0.502301  0.009479 -0.005473
                                 0.001697 -0.000980 -0.003566  0.002059 -0.000820  0.000473

   5.1   0     0.0905   -3.2157  0.147288  1.889588 -0.296645 -2.292458  0.255794 -0.040325 -0.001278 -0.002214 -0.003183 -0.005514
                                -0.001315 -0.002278  0.001083  0.001875  0.000177  0.000306

   6.1   0     0.2774   -4.0618 -0.000183  0.026090 -0.005010 -0.019257  0.002836 -0.000588 -0.119502 -0.206984 -0.035886 -0.062157
                                 0.532764  0.922775  0.026477  0.045860 -0.005981 -0.010360

                                   1 2px     1 2px     1 2px     1 2px     1 2px     1 2px     1 4f1+    1 4f3+    1 4f1+    1 4f3+ 


   1.2   2    -3.3527  -23.0146  1.000257 -0.000756  0.000772  0.000081 -0.000433  0.000234  0.000380  0.001472  0.000107  0.000414

   2.2   0     0.0461   -4.0120 -0.040286 -0.157931  0.014600  0.895736 -0.021655  0.001189  0.000042  0.000161  0.000071  0.000273

   3.2   0     0.2710   -5.1976  0.168628  1.399575  0.281834  1.168849 -0.255336  0.032898 -0.000071 -0.000274 -0.000145 -0.000563

                                   1 2py     1 2py     1 2py     1 2py     1 2py     1 2py     1 4f1-    1 4f3-    1 4f1-    1 4f3- 


   1.3   2    -3.3641  -23.0365  0.999258  0.001449 -0.001464 -0.000147  0.001056 -0.000482 -0.004884 -0.006305 -0.001606 -0.002074

   2.3   0     0.0417   -4.1091 -0.040517 -0.192760  0.012335  0.868152 -0.018738  0.000928 -0.000014 -0.000018  0.000052  0.000067

   3.3   0     0.2605   -5.1579  0.157434  1.392962  0.269501  1.184850 -0.245875  0.031437  0.000022  0.000028 -0.000099 -0.000128

                                   1 3d2-    1 3d2-    1 3d2-    1 3d2-    1 3d2- 

   1.4   +    -0.7775  -17.0354  0.990223 -0.020460 -0.001729  0.007699  0.002254

   2.4   0     0.2763   -4.0410 -0.224632 -0.067768  1.062933  0.051265 -0.012073

   3.4   0     1.3294   -6.9791  0.872723  1.392062 -0.894080 -0.766389  0.078489

                                   1 2pz     1 2pz     1 2pz     1 2pz     1 2pz     1 2pz     1 4f0     1 4f2+    1 4f0     1 4f2+ 


   1.5   2    -3.3527  -23.0146  1.000257 -0.000756  0.000772  0.000081 -0.000433  0.000234  0.000931  0.001202  0.000262  0.000338

   2.5   0     0.0461   -4.0120 -0.040286 -0.157931  0.014600  0.895736 -0.021655  0.001189  0.000102  0.000132  0.000173  0.000223

   3.5   0     0.2710   -5.1976  0.168628  1.399575  0.281834  1.168849 -0.255336  0.032898 -0.000173 -0.000223 -0.000356 -0.000459

                                   1 3d1+    1 3d1+    1 3d1+    1 3d1+    1 3d1+ 

   1.6   2    -0.6488  -16.6687  1.004601  0.010945  0.001960 -0.004118 -0.000947

   2.6   0     0.2811   -4.0753 -0.254233 -0.078185  1.069655  0.056153 -0.012148

   3.6   0     1.3633   -7.1041  0.850389  1.393768 -0.887362 -0.775379  0.082694

                                   1 3d1-    1 3d1-    1 3d1-    1 3d1-    1 3d1- 

   1.7   +    -0.7775  -17.0354  0.990223 -0.020460 -0.001729  0.007699  0.002254

   2.7   0     0.2763   -4.0410 -0.224632 -0.067768  1.062933  0.051265 -0.012073

   3.7   0     1.3294   -6.9791  0.872723  1.392062 -0.894080 -0.766389  0.078489

                                   1 4f2-    1 4f2- 

   1.8   0     6.2185   -3.3364  1.001042 -0.001919

   2.8   0    20.8965   21.8975 -0.645660  1.191200

 HOMO      4.1    -0.648809 =     -17.6550eV
 LUMO      2.3     0.041749 =       1.1360eV
 LUMO-HOMO         0.690557 =      18.7910eV


 **********************************************************************************************************************************
 DATASETS  * FILE   NREC   LENGTH (MB)   RECORD NAMES
              1      20       21.62       500      610      700      900      950      970     1000      129      960     1100   
                                          VAR    BASINP    GEOM    SYMINP    ZMAT    AOBASIS   BASIS     P2S    ABASIS      S 
                                         1400     1410     1420     1200     1210     1080     1600     1650     1300     1700   
                                         EKIN       V       ECP      H0       H01     AOSYM     SMH    MOLCAS    ERIS     OPER   

              2       4        2.78       700     1000      520     4202   
                                         GEOM     BASIS   MCVARS     RHF  

 PROGRAMS   *        TOTAL       RHF       INT
 CPU TIMES  *        18.33      0.08     18.10
 REAL TIME  *        31.13 SEC
 DISK USED  *        27.97 MB      
 **********************************************************************************************************************************


 PROGRAM * POP (Mulliken population analysis)

 
 Density matrix read from record         4202.2  Type=RHF/CHARGE (state 1.6)
 
 Population analysis by basis function type

 Unique atom        s        p        d        f        g    Total    Charge
   1  NI      3.99967  5.99980  8.00033  0.00020  0.00000 18.00000  + 0.00000


 **********************************************************************************************************************************
 DATASETS  * FILE   NREC   LENGTH (MB)   RECORD NAMES
              1      20       21.62       500      610      700      900      950      970     1000      129      960     1100   
                                          VAR    BASINP    GEOM    SYMINP    ZMAT    AOBASIS   BASIS     P2S    ABASIS      S 
                                         1400     1410     1420     1200     1210     1080     1600     1650     1300     1700   
                                         EKIN       V       ECP      H0       H01     AOSYM     SMH    MOLCAS    ERIS     OPER   

              2       4        2.78       700     1000      520     4202   
                                         GEOM     BASIS   MCVARS     RHF  

 PROGRAMS   *        TOTAL       POP       RHF       INT
 CPU TIMES  *        18.34      0.00      0.08     18.10
 REAL TIME  *        31.15 SEC
 DISK USED  *        27.97 MB      
 **********************************************************************************************************************************


 PROGRAM * MULTI (Direct Multiconfiguration SCF)       Authors: P.J. Knowles, H.-J. Werner (1984)     S.T. Elbert (1988)


 Number of closed-shell orbitals:   5 (   2   1   1   0   1   0   0   0 )
 Number of active  orbitals:        5 (   2   0   0   1   0   1   1   0 )
 Number of external orbitals:      53 (  12   9   9   4   9   4   4   2 )

 State symmetry 1

 Number of electrons:     8    Spin symmetry=Triplet   Space symmetry=1
 Number of states:        1
 Number of CSFs:          1   (1 determinants, 10 intermediate states)

 State symmetry 2

 Number of electrons:     8    Spin symmetry=Triplet   Space symmetry=4
 Number of states:        3
 Number of CSFs:          3   (3 determinants, 10 intermediate states)

 State symmetry 3

 Number of electrons:     8    Spin symmetry=Triplet   Space symmetry=6
 Number of states:        3
 Number of CSFs:          3   (3 determinants, 10 intermediate states)

 State symmetry 4

 Number of electrons:     8    Spin symmetry=Triplet   Space symmetry=7
 Number of states:        3
 Number of CSFs:          3   (3 determinants, 10 intermediate states)

 Molecular orbitals read from record     4202.2  Type=RHF/CANONICAL (state 1.6)
 *** IN SYMMETRY 1 ORBITAL  1 SYMMETRY CONTAMINATION OF 0.123D-01 HAS BEEN REMOVED
 *** IN SYMMETRY 1 ORBITAL  2 SYMMETRY CONTAMINATION OF 0.294D-01 HAS BEEN REMOVED
 *** IN SYMMETRY 1 ORBITAL  3 SYMMETRY CONTAMINATION OF 0.370D+00 HAS BEEN REMOVED
 *** IN SYMMETRY 1 ORBITAL  4 SYMMETRY CONTAMINATION OF 0.366D+00 HAS BEEN REMOVED

 EXTRA SYMMETRY OF MOS IN SYMMETRY 1:   1 1 3 2 1 3 2 1 3 2   3 2 1 3 2 1
 *** IN SYMMETRY 2 ORBITAL  1 SYMMETRY CONTAMINATION OF 0.236D-02 HAS BEEN REMOVED
 EXTRA SYMMETRY OF MOS IN SYMMETRY 2:   1 1 1 1 3 2 1 3 2 1
 *** IN SYMMETRY 3 ORBITAL  1 SYMMETRY CONTAMINATION OF 0.146D-01 HAS BEEN REMOVED
 EXTRA SYMMETRY OF MOS IN SYMMETRY 3:   1 1 1 1 2 3 1 2 3 1
 *** IN SYMMETRY 5 ORBITAL  1 SYMMETRY CONTAMINATION OF 0.272D-02 HAS BEEN REMOVED
 EXTRA SYMMETRY OF MOS IN SYMMETRY 5:   1 1 1 1 3 2 1 3 2 1

 Wavefunction dump at record             5202.2

 Convergence thresholds  0.10E-01 (gradient)  0.10E-05 (energy)  0.10E-02 (step length)

 Weight factors for state symmetry  1:    0.10000
 Weight factors for state symmetry  2:    0.10000   0.10000   0.10000
 Weight factors for state symmetry  3:    0.10000   0.10000   0.10000
 Weight factors for state symmetry  4:    0.10000   0.10000   0.10000

 Number of orbital rotations:       91   (     4 Core/Active     51 Core/Virtual   0 Active/Active     36 Active/Virtual)
 Total number of variables:        119


 ITER. MIC  NCI  NEG     ENERGY(VAR)     ENERGY(PROJ)   ENERGY CHANGE     GRAD(0)  GRAD(ORB)   GRAD(CI)     STEP       TIME

   1   31   16    0    -169.91264965    -169.91516768   -0.00251804    0.09256112 0.00000000 0.00000000  0.36D-01      0.02
   2   26   20    0    -169.91517524    -169.91517545   -0.00000022    0.00085225 0.00000000 0.00000000  0.49D-03      0.04
   3   83   48    0    -169.91517545    -169.91517545   -0.00000000    0.00000011 0.00000000 0.00000000  0.74D-07      0.05

 ** WVFN ****  CONVERGENCE REACHED, FINAL GRADIENT:  0.24D-12



 Results for state 1.1
 =====================

 !MCSCF STATE 1.1 Energy             -169.941986765672
 Nuclear energy                         0.00000000
 Kinetic energy                       109.07509909
 One electron energy                 -303.45561119
 Two electron energy                  133.51362442
 Virial ratio                           2.55802734

 !MCSCF STATE 1.1 Dipole moment         0.00000000     0.00000000     0.00000000
 Dipole moment /Debye                   0.00000000     0.00000000     0.00000000



 Results for state 1.4
 =====================

 !MCSCF STATE 1.4 Energy             -169.941986765672
 Nuclear energy                         0.00000000
 Kinetic energy                       109.07509909
 One electron energy                 -303.45561119
 Two electron energy                  133.51362442
 Virial ratio                           2.55802734

 !MCSCF STATE 1.4 Dipole moment         0.00000000     0.00000000     0.00000000
 Dipole moment /Debye                   0.00000000     0.00000000     0.00000000

 Results for state 2.4
 =====================

 !MCSCF STATE 2.4 Energy             -169.941986765672
 Nuclear energy                         0.00000000
 Kinetic energy                       109.07509909
 One electron energy                 -303.45561119
 Two electron energy                  133.51362442
 Virial ratio                           2.55802734

 !MCSCF STATE 2.4 Dipole moment         0.00000000     0.00000000     0.00000000
 Dipole moment /Debye                   0.00000000     0.00000000     0.00000000

 Results for state 3.4
 =====================

 !MCSCF STATE 3.4 Energy             -169.852615724189
 Nuclear energy                         0.00000000
 Kinetic energy                       109.07509909
 One electron energy                 -303.45561119
 Two electron energy                  133.60299547
 Virial ratio                           2.55720799

 !MCSCF STATE 3.4 Dipole moment         0.00000000     0.00000000     0.00000000
 Dipole moment /Debye                   0.00000000     0.00000000     0.00000000



 Results for state 1.6
 =====================

 !MCSCF STATE 1.6 Energy             -169.941986765672
 Nuclear energy                         0.00000000
 Kinetic energy                       109.07509909
 One electron energy                 -303.45561119
 Two electron energy                  133.51362442
 Virial ratio                           2.55802734

 !MCSCF STATE 1.6 Dipole moment         0.00000000     0.00000000     0.00000000
 Dipole moment /Debye                   0.00000000     0.00000000     0.00000000

 Results for state 2.6
 =====================

 !MCSCF STATE 2.6 Energy             -169.941986765672
 Nuclear energy                         0.00000000
 Kinetic energy                       109.07509909
 One electron energy                 -303.45561119
 Two electron energy                  133.51362442
 Virial ratio                           2.55802734

 !MCSCF STATE 2.6 Dipole moment         0.00000000     0.00000000     0.00000000
 Dipole moment /Debye                   0.00000000     0.00000000     0.00000000

 Results for state 3.6
 =====================

 !MCSCF STATE 3.6 Energy             -169.852615724189
 Nuclear energy                         0.00000000
 Kinetic energy                       109.07509909
 One electron energy                 -303.45561119
 Two electron energy                  133.60299547
 Virial ratio                           2.55720799

 !MCSCF STATE 3.6 Dipole moment         0.00000000     0.00000000     0.00000000
 Dipole moment /Debye                   0.00000000     0.00000000     0.00000000



 Results for state 1.7
 =====================

 !MCSCF STATE 1.7 Energy             -169.941986765672
 Nuclear energy                         0.00000000
 Kinetic energy                       109.07509909
 One electron energy                 -303.45561119
 Two electron energy                  133.51362442
 Virial ratio                           2.55802734

 !MCSCF STATE 1.7 Dipole moment         0.00000000     0.00000000     0.00000000
 Dipole moment /Debye                   0.00000000     0.00000000     0.00000000

 Results for state 2.7
 =====================

 !MCSCF STATE 2.7 Energy             -169.941986765672
 Nuclear energy                         0.00000000
 Kinetic energy                       109.07509909
 One electron energy                 -303.45561119
 Two electron energy                  133.51362442
 Virial ratio                           2.55802734

 !MCSCF STATE 2.7 Dipole moment         0.00000000     0.00000000     0.00000000
 Dipole moment /Debye                   0.00000000     0.00000000     0.00000000

 Results for state 3.7
 =====================

 !MCSCF STATE 3.7 Energy             -169.852615724189
 Nuclear energy                         0.00000000
 Kinetic energy                       109.07509909
 One electron energy                 -303.45561119
 Two electron energy                  133.60299547
 Virial ratio                           2.55720799

 !MCSCF STATE 3.7 Dipole moment         0.00000000     0.00000000     0.00000000
 Dipole moment /Debye                   0.00000000     0.00000000     0.00000000

 State-averaged charge density matrix saved on record  5202.2 (density set 1)

 !MCSCF expec        <1.1|EKIN|1.1>   109.075099089779
 !MCSCF expec        <1.4|EKIN|1.4>   109.075099089779
 !MCSCF expec        <2.4|EKIN|2.4>   109.075099089780
 !MCSCF expec        <3.4|EKIN|3.4>   109.075099089780
 !MCSCF expec        <1.6|EKIN|1.6>   109.075099089780
 !MCSCF expec        <2.6|EKIN|2.6>   109.075099089780
 !MCSCF expec        <3.6|EKIN|3.6>   109.075099089780
 !MCSCF expec        <1.7|EKIN|1.7>   109.075099089780
 !MCSCF expec        <2.7|EKIN|2.7>   109.075099089780
 !MCSCF expec        <3.7|EKIN|3.7>   109.075099089780

 !MCSCF expec         <1.1|POT|1.1>   -23.757262667997
 !MCSCF expec         <1.4|POT|1.4>   -23.757262667997
 !MCSCF expec         <2.4|POT|2.4>   -23.757262667997
 !MCSCF expec         <3.4|POT|3.4>   -23.757262667997
 !MCSCF expec         <1.6|POT|1.6>   -23.757262667997
 !MCSCF expec         <2.6|POT|2.6>   -23.757262667997
 !MCSCF expec         <3.6|POT|3.6>   -23.757262667997
 !MCSCF expec         <1.7|POT|1.7>   -23.757262667997
 !MCSCF expec         <2.7|POT|2.7>   -23.757262667997
 !MCSCF expec         <3.7|POT|3.7>   -23.757262667997


 NATURAL ORBITALS (state averaged)
 =================================

   Orb     Occ        Energy       Coefficients

                                   1 1s      1 1s      1 1s      1 1s      1 1s      1 1s      1 3d0     1 3d2+    1 3d0     1 3d2+ 
                                   1 3d0     1 3d2+    1 3d0     1 3d2+    1 3d0     1 3d2+ 

   1.1  2.00000    -5.062412     1.000007 -0.000002  0.000002  0.000002 -0.000008  0.000001  0.000000  0.000000  0.000000  0.000000
                                 0.000000  0.000000  0.000000  0.000000  0.000000  0.000000

   2.1  2.00000    -0.280540    -0.000000  0.999997 -0.000006  0.000004 -0.000002  0.000000  0.000000  0.000000  0.000000  0.000000
                                 0.000000  0.000000  0.000000  0.000000  0.000000  0.000000

   3.1  1.60000    -0.496355     0.000000  0.000000  0.000000  0.000000  0.000000  0.000000  0.999965  0.000000 -0.000022  0.000000
                                 0.000020  0.000000  0.000038  0.000000 -0.000005  0.000000

   4.1  1.60000    -0.496355     0.000000  0.000000  0.000000  0.000000  0.000000  0.000000  0.000000  0.999965  0.000000 -0.000022
                                 0.000000  0.000020  0.000000  0.000038  0.000000 -0.000005

                                   1 2px     1 2px     1 2px     1 2px     1 2px     1 2px     1 4f1+    1 4f3+    1 4f1+    1 4f3+ 


   1.2  2.00000    -3.356817     0.999994  0.000000 -0.000001 -0.000000  0.000005  0.000001  0.000000  0.000000  0.000000  0.000000

                                   1 2py     1 2py     1 2py     1 2py     1 2py     1 2py     1 4f1-    1 4f3-    1 4f1-    1 4f3- 


   1.3  2.00000    -3.356817     0.999994  0.000000 -0.000001 -0.000000  0.000005  0.000001  0.000000  0.000000  0.000000  0.000000

                                   1 3d2-    1 3d2-    1 3d2-    1 3d2-    1 3d2- 

   1.4  1.60000    -0.496355     0.999965 -0.000022  0.000020  0.000038 -0.000005

                                   1 2pz     1 2pz     1 2pz     1 2pz     1 2pz     1 2pz     1 4f0     1 4f2+    1 4f0     1 4f2+ 


   1.5  2.00000    -3.356817     0.999994  0.000000 -0.000001 -0.000000  0.000005  0.000001  0.000000  0.000000  0.000000  0.000000

                                   1 3d1+    1 3d1+    1 3d1+    1 3d1+    1 3d1+ 

   1.6  1.60000    -0.496355     0.999965 -0.000022  0.000020  0.000038 -0.000005

                                   1 3d1-    1 3d1-    1 3d1-    1 3d1-    1 3d1- 

   1.7  1.60000    -0.496355     0.999965 -0.000022  0.000020  0.000038 -0.000005
 

 EXTRA SYMMETRY OF MOS IN SYMMETRY 1:   1 1 2 3 1 3 2 1 3 2   3 2 1 2 3 1
 EXTRA SYMMETRY OF MOS IN SYMMETRY 3:   1 1 1 1 3 2 1 2 3 1
 EXTRA SYMMETRY OF MOS IN SYMMETRY 5:   1 1 1 1 2 3 1 2 3 1

 Natural orbital dump (state averaged) at molpro section  5202.2    (Orbital set 2)


 CI vector for state symmetry 1
 ==============================

 aa 2 2 2          1.0000000

 TOTAL ENERGIES                      -169.94198677

 CI vector for state symmetry 2
 ==============================

 a2 a 2 2          1.0000000   0.0000000   0.0000000
 2a a 2 2          0.0000000  -0.4472136   0.8944272
 22 2 a a          0.0000000   0.8944272   0.4472136

 TOTAL ENERGIES                      -169.94198677  -169.94198677  -169.85261572

 CI vector for state symmetry 3
 ==============================

 2a 2 a 2          0.8933777  -0.0433155  -0.4472136
 22 a 2 a         -0.1814044   0.8758381  -0.4472136
 a2 2 a 2          0.4110580   0.4806572   0.7745967

 TOTAL ENERGIES                      -169.94198677  -169.94198677  -169.85261572

 CI vector for state symmetry 4
 ==============================

 2a 2 2 a          0.8928920   0.0523826   0.4472136
 22 a a 2          0.1725038   0.8776346  -0.4472136
 a2 2 2 a         -0.4159163   0.4764595   0.7745967

 TOTAL ENERGIES                      -169.94198677  -169.94198677  -169.85261572



 **********************************************************************************************************************************
 DATASETS  * FILE   NREC   LENGTH (MB)   RECORD NAMES
              1      21       21.99       500      610      700      900      950      970     1000      129      960     1100   
                                          VAR    BASINP    GEOM    SYMINP    ZMAT    AOBASIS   BASIS     P2S    ABASIS      S 
                                         1400     1410     1420     1200     1210     1080     1600     1650     1300     1700   
                                         EKIN       V       ECP      H0       H01     AOSYM     SMH    MOLCAS    ERIS     OPER   
                                         1380   
                                         JKOP   

              2       5        5.29       700     1000      520     4202     5202   
                                         GEOM     BASIS   MCVARS     RHF     MCSCF   

 PROGRAMS   *        TOTAL     MULTI       POP       RHF       INT
 CPU TIMES  *        18.46      0.11      0.00      0.08     18.10
 REAL TIME  *        32.97 SEC
 DISK USED  *        40.44 MB      
 **********************************************************************************************************************************


 PROGRAM * RHF-SCF (OPEN SHELL)       Authors: W. Meyer, H.-J. Werner


 NUMBER OF ELECTRONS:      10+    8-    SPACE SYMMETRY=1    SPIN SYMMETRY: Triplet 
 CONVERGENCE THRESHOLDS:    1.00E-05 (Density)    1.00E-07 (Energy)
 MAX. NUMBER OF ITERATIONS:        0
 INTERPOLATION TYPE:            DIIS
 INTERPOLATION STEPS:              2 (START)      1 (STEP)
 LEVEL SHIFTS:                 -0.60 (CLOSED) -0.30 (OPEN) 


 Singly occupied orbitals:      3.1       4.1
 
 Extra symmetries of mos in symmetry 1:   1   1   3   2
 Molecular orbitals read from record     5202.2  Type=MCSCF/NATURAL (state averaged)

 Molecular orbital dump at record        2101.2

 ITERATION    DDIFF          GRAD             ENERGY        2-EL.EN.            DIPOLE MOMENTS         DIIS   ORB.
    1      0.000D+00      0.000D+00      -169.94198677    267.027249    0.00000    0.00000    0.00000    0    start

 Final alpha occupancy:   4   1   1   1   1   1   1   0
 Final beta  occupancy:   2   1   1   1   1   1   1   0

 !RHF STATE 1.1 Energy               -169.941986765672
 Nuclear energy                         0.00000000
 One-electron energy                 -303.45561119
 Two-electron energy                  133.51362442
 Virial quotient                       -1.55802734
 !RHF STATE 1.1 Dipole moment           0.00000000     0.00000000     0.00000000
 Dipole moment /Debye                   0.00000000     0.00000000     0.00000000
 

 !RHF expec          <1.1|EKIN|1.1>   109.075099089779
 
 !RHF expec           <1.1|POT|1.1>   -23.757262667997

 ELECTRON ORBITALS
 =================


   Orb  Occ    Energy  Couls-En    Coefficients

                                   1 1s      1 1s      1 1s      1 1s      1 1s      1 1s      1 3d0     1 3d2+    1 3d0     1 3d2+ 
                                   1 3d0     1 3d2+    1 3d0     1 3d2+    1 3d0     1 3d2+ 

   1.1   2    -5.0624  -26.5685  1.000007 -0.000002  0.000002  0.000002 -0.000008  0.000001  0.000000  0.000000  0.000000  0.000000
                                 0.000000  0.000000  0.000000  0.000000  0.000000  0.000000

   2.1   2    -0.2805   -7.0788 -0.000000  0.999997 -0.000006  0.000004 -0.000002  0.000000  0.000000  0.000000  0.000000  0.000000
                                 0.000000  0.000000  0.000000  0.000000  0.000000  0.000000

   3.1   +    -0.4964  -16.6027  0.000000  0.000000  0.000000  0.000000  0.000000  0.000000  0.000000  0.999965  0.000000 -0.000022
                                 0.000000  0.000020  0.000000  0.000038  0.000000 -0.000005

   4.1   +    -0.4964  -16.6027  0.000000  0.000000  0.000000  0.000000  0.000000  0.000000  0.999965  0.000000 -0.000022  0.000000
                                 0.000020  0.000000  0.000038  0.000000 -0.000005  0.000000

                                   1 2px     1 2px     1 2px     1 2px     1 2px     1 2px     1 4f1+    1 4f3+    1 4f1+    1 4f3+ 


   1.2   2    -3.3568  -23.0228  0.999994  0.000000 -0.000001 -0.000000  0.000005  0.000001  0.000000  0.000000  0.000000  0.000000

                                   1 2py     1 2py     1 2py     1 2py     1 2py     1 2py     1 4f1-    1 4f3-    1 4f1-    1 4f3- 


   1.3   2    -3.3568  -23.0228  0.999994  0.000000 -0.000001 -0.000000  0.000005  0.000001  0.000000  0.000000  0.000000  0.000000

                                   1 3d2-    1 3d2-    1 3d2-    1 3d2-    1 3d2- 

   1.4   2    -0.4964  -16.6027  0.999965 -0.000022  0.000020  0.000038 -0.000005

                                   1 2pz     1 2pz     1 2pz     1 2pz     1 2pz     1 2pz     1 4f0     1 4f2+    1 4f0     1 4f2+ 


   1.5   2    -3.3568  -23.0228  0.999994  0.000000 -0.000001 -0.000000  0.000005  0.000001  0.000000  0.000000  0.000000  0.000000

                                   1 3d1+    1 3d1+    1 3d1+    1 3d1+    1 3d1+ 

   1.6   2    -0.4964  -16.6027  0.999965 -0.000022  0.000020  0.000038 -0.000005

                                   1 3d1-    1 3d1-    1 3d1-    1 3d1-    1 3d1- 

   1.7   2    -0.4964  -16.6027  0.999965 -0.000022  0.000020  0.000038 -0.000005

 HOMO      4.1    -0.496355 =     -13.5065eV
 LUMO      2.2     0.046140 =       1.2555eV
 LUMO-HOMO         0.542495 =      14.7620eV


 **********************************************************************************************************************************
 DATASETS  * FILE   NREC   LENGTH (MB)   RECORD NAMES
              1      21       21.99       500      610      700      900      950      970     1000      129      960     1100   
                                          VAR    BASINP    GEOM    SYMINP    ZMAT    AOBASIS   BASIS     P2S    ABASIS      S 
                                         1400     1410     1420     1200     1210     1080     1600     1650     1300     1700   
                                         EKIN       V       ECP      H0       H01     AOSYM     SMH    MOLCAS    ERIS     OPER   
                                         1380   
                                         JKOP   

              2       6        7.83       700     1000      520     4202     5202     2101   
                                         GEOM     BASIS   MCVARS     RHF     MCSCF     RHF  

 PROGRAMS   *        TOTAL       RHF     MULTI       POP       RHF       INT
 CPU TIMES  *        18.49      0.03      0.11      0.00      0.08     18.10
 REAL TIME  *        33.12 SEC
 DISK USED  *        40.44 MB      
 **********************************************************************************************************************************
 SETTING SCF(I)         =      -169.94198677  AU                              
 SETTING _CC_NORM_MAX   =         2.00000000                                  


 PROGRAM * UHF-SCF       Authors: W. Meyer, H.-J. Werner


 NUMBER OF ELECTRONS:      10+    8-    SPACE SYMMETRY=1    SPIN SYMMETRY: Triplet 
 CONVERGENCE THRESHOLDS:    1.00E-05 (Density)    1.00E-07 (Energy)
 MAX. NUMBER OF ITERATIONS:        0
 INTERPOLATION TYPE:            DIIS
 INTERPOLATION STEPS:              2 (START)      1 (STEP)
 LEVEL SHIFTS:                  0.20 (ALPHA)   0.20 (BETA) 


 Singly occupied orbitals:      3.1       4.1
 
 Extra symmetries of mos in symmetry 1:   1   1   3   2
 Molecular orbitals read from record     2101.2  Type=RHF/CANONICAL (state 1.1)

 Molecular orbital dump at record        2200.2

 Initial alpha occupation   4   1   1   1   1   1   1   0
 Initial beta  occupation   2   1   1   1   1   1   1   0

 ITERATION    DDIFF          GRAD             ENERGY        2-EL.EN.            DIPOLE MOMENTS         DIIS
    1      0.000D+00      0.000D+00      -169.94198677    267.027249    0.00000    0.00000    0.00000    0
 
 Final alpha occupancy:   4   1   1   1   1   1   1   0
 Final beta  occupancy:   2   1   1   1   1   1   1   0

 !UHF STATE 1.1 Energy               -169.941986765672
 Nuclear energy                         0.00000000
 One-electron energy                 -303.45561119
 Two-electron energy                  133.51362442
 Virial quotient                       -1.55802734
 !UHF STATE 1.1 Dipole moment           0.00000000     0.00000000     0.00000000
 Dipole moment /Debye                   0.00000000     0.00000000     0.00000000
 

 !UHF expec          <1.1|EKIN|1.1>   109.075099089779
 
 !UHF expec           <1.1|POT|1.1>   -23.757262667997

 ELECTRON ORBITALS FOR POSITIVE SPIN
 ===================================


   Orb  Occ    Energy  Couls-En    Coefficients

                                   1 1s      1 1s      1 1s      1 1s      1 1s      1 1s      1 3d0     1 3d2+    1 3d0     1 3d2+ 
                                   1 3d0     1 3d2+    1 3d0     1 3d2+    1 3d0     1 3d2+ 

   1.1   +    -5.0624  -26.5685  1.000007 -0.000002  0.000002  0.000002 -0.000008  0.000001  0.000000  0.000000  0.000000  0.000000
                                 0.000000  0.000000  0.000000  0.000000  0.000000  0.000000

   2.1   +    -0.2805   -7.0788 -0.000000  0.999997 -0.000006  0.000004 -0.000002  0.000000  0.000000  0.000000  0.000000  0.000000
                                 0.000000  0.000000  0.000000  0.000000  0.000000  0.000000

   3.1   +    -0.4964  -16.6027  0.000000  0.000000  0.000000  0.000000  0.000000  0.000000  0.000000  0.999965  0.000000 -0.000022
                                 0.000000  0.000020  0.000000  0.000038  0.000000 -0.000005

   4.1   +    -0.4964  -16.6027  0.000000  0.000000  0.000000  0.000000  0.000000  0.000000  0.999965  0.000000 -0.000022  0.000000
                                 0.000020  0.000000  0.000038  0.000000 -0.000005  0.000000

                                   1 2px     1 2px     1 2px     1 2px     1 2px     1 2px     1 4f1+    1 4f3+    1 4f1+    1 4f3+ 


   1.2   +    -3.3568  -23.0228  0.999994  0.000000 -0.000001 -0.000000  0.000005  0.000001  0.000000  0.000000  0.000000  0.000000

                                   1 2py     1 2py     1 2py     1 2py     1 2py     1 2py     1 4f1-    1 4f3-    1 4f1-    1 4f3- 


   1.3   +    -3.3568  -23.0228  0.999994  0.000000 -0.000001 -0.000000  0.000005  0.000001  0.000000  0.000000  0.000000  0.000000

                                   1 3d2-    1 3d2-    1 3d2-    1 3d2-    1 3d2- 

   1.4   +    -0.4964  -16.6027  0.999965 -0.000022  0.000020  0.000038 -0.000005

                                   1 2pz     1 2pz     1 2pz     1 2pz     1 2pz     1 2pz     1 4f0     1 4f2+    1 4f0     1 4f2+ 


   1.5   +    -3.3568  -23.0228  0.999994  0.000000 -0.000001 -0.000000  0.000005  0.000001  0.000000  0.000000  0.000000  0.000000

                                   1 3d1+    1 3d1+    1 3d1+    1 3d1+    1 3d1+ 

   1.6   +    -0.4964  -16.6027  0.999965 -0.000022  0.000020  0.000038 -0.000005

                                   1 3d1-    1 3d1-    1 3d1-    1 3d1-    1 3d1- 

   1.7   +    -0.4964  -16.6027  0.999965 -0.000022  0.000020  0.000038 -0.000005

 ELECTRON ORBITALS FOR NEGATIVE SPIN
 ===================================


   Orb  Occ    Energy  Couls-En    Coefficients

                                   1 1s      1 1s      1 1s      1 1s      1 1s      1 1s      1 3d0     1 3d2+    1 3d0     1 3d2+ 
                                   1 3d0     1 3d2+    1 3d0     1 3d2+    1 3d0     1 3d2+ 

   1.1   -    -5.0624  -26.5685  1.000007 -0.000002  0.000002  0.000002 -0.000008  0.000001  0.000000  0.000000  0.000000  0.000000
                                 0.000000  0.000000  0.000000  0.000000  0.000000  0.000000

   2.1   -    -0.2805   -7.0788 -0.000000  0.999997 -0.000006  0.000004 -0.000002  0.000000  0.000000  0.000000  0.000000  0.000000
                                 0.000000  0.000000  0.000000  0.000000  0.000000  0.000000

                                   1 2px     1 2px     1 2px     1 2px     1 2px     1 2px     1 4f1+    1 4f3+    1 4f1+    1 4f3+ 


   1.2   -    -3.3568  -23.0228  0.999994  0.000000 -0.000001 -0.000000  0.000005  0.000001  0.000000  0.000000  0.000000  0.000000

                                   1 2py     1 2py     1 2py     1 2py     1 2py     1 2py     1 4f1-    1 4f3-    1 4f1-    1 4f3- 


   1.3   -    -3.3568  -23.0228  0.999994  0.000000 -0.000001 -0.000000  0.000005  0.000001  0.000000  0.000000  0.000000  0.000000

                                   1 3d2-    1 3d2-    1 3d2-    1 3d2-    1 3d2- 

   1.4   -    -0.4964  -16.6027  0.999965 -0.000022  0.000020  0.000038 -0.000005

                                   1 2pz     1 2pz     1 2pz     1 2pz     1 2pz     1 2pz     1 4f0     1 4f2+    1 4f0     1 4f2+ 


   1.5   -    -3.3568  -23.0228  0.999994  0.000000 -0.000001 -0.000000  0.000005  0.000001  0.000000  0.000000  0.000000  0.000000

                                   1 3d1+    1 3d1+    1 3d1+    1 3d1+    1 3d1+ 

   1.6   -    -0.4964  -16.6027  0.999965 -0.000022  0.000020  0.000038 -0.000005

                                   1 3d1-    1 3d1-    1 3d1-    1 3d1-    1 3d1- 

   1.7   -    -0.4964  -16.6027  0.999965 -0.000022  0.000020  0.000038 -0.000005

 HOMO     -2.1    -0.280540 =      -7.6339eV
 LUMO     -3.1    -0.496355 =     -13.5065eV
 LUMO-HOMO        -0.215816 =      -5.8726eV

 EXPECTATION VALUE OF S**2:             2.00000000

 Occupation number threshold for canonical orbitals:  1.999000 (occupied),  0.001000 (virtual)

 Number of pseudo-canonical orbitals per symmetry:    2   1   1   1   1   1   1   0
 Number of active natural orbitals per symmetry:      2   0   0   0   0   0   0   0

 NATURAL CHARGE ORBITALS
 =======================


   Orb     Occ        Energy       Coefficients

                                   1 1s      1 1s      1 1s      1 1s      1 1s      1 1s      1 3d0     1 3d2+    1 3d0     1 3d2+ 
                                   1 3d0     1 3d2+    1 3d0     1 3d2+    1 3d0     1 3d2+ 

   1.1  2.00000    -5.062412     1.000007 -0.000002  0.000002  0.000002 -0.000008  0.000001  0.000000  0.000000  0.000000  0.000000
                                 0.000000  0.000000  0.000000  0.000000  0.000000  0.000000

   2.1  2.00000    -0.280540    -0.000000  0.999997 -0.000006  0.000004 -0.000002  0.000000  0.000000  0.000000  0.000000  0.000000
                                 0.000000  0.000000  0.000000  0.000000  0.000000  0.000000

   3.1  1.00000    -0.219720     0.000000  0.000000  0.000000  0.000000  0.000000  0.000000  0.966847 -0.255218 -0.000022  0.000006
                                 0.000019 -0.000005  0.000037 -0.000010 -0.000005  0.000001

   4.1  1.00000    -0.219720     0.000000  0.000000  0.000000  0.000000  0.000000  0.000000  0.255218  0.966847 -0.000006 -0.000022
                                 0.000005  0.000019  0.000010  0.000037 -0.000001 -0.000005

                                   1 2px     1 2px     1 2px     1 2px     1 2px     1 2px     1 4f1+    1 4f3+    1 4f1+    1 4f3+ 


   1.2  2.00000    -3.356817     0.999994  0.000000 -0.000001 -0.000000  0.000005  0.000001  0.000000  0.000000  0.000000  0.000000

                                   1 2py     1 2py     1 2py     1 2py     1 2py     1 2py     1 4f1-    1 4f3-    1 4f1-    1 4f3- 


   1.3  2.00000    -3.356817     0.999994  0.000000 -0.000001 -0.000000  0.000005  0.000001  0.000000  0.000000  0.000000  0.000000

                                   1 3d2-    1 3d2-    1 3d2-    1 3d2-    1 3d2- 

   1.4  2.00000    -0.496355     0.999965 -0.000022  0.000020  0.000038 -0.000005

                                   1 2pz     1 2pz     1 2pz     1 2pz     1 2pz     1 2pz     1 4f0     1 4f2+    1 4f0     1 4f2+ 


   1.5  2.00000    -3.356817     0.999994  0.000000 -0.000001 -0.000000  0.000005  0.000001  0.000000  0.000000  0.000000  0.000000

                                   1 3d1+    1 3d1+    1 3d1+    1 3d1+    1 3d1+ 

   1.6  2.00000    -0.496355     0.999965 -0.000022  0.000020  0.000038 -0.000005

                                   1 3d1-    1 3d1-    1 3d1-    1 3d1-    1 3d1- 

   1.7  2.00000    -0.496355     0.999965 -0.000022  0.000020  0.000038 -0.000005

 Natural orbitals saved to record    2200.2 (Orbital set 3)

 Orbital spaces for UNO-CAS (Min. occupation: 0.020  Max. occupation: 1.980):

 Closed:        2   1   1   1   1   1   1   0
 Active:        2   0   0   0   0   0   0   0

 No convergence



 **********************************************************************************************************************************
 DATASETS  * FILE   NREC   LENGTH (MB)   RECORD NAMES
              1      21       21.99       500      610      700      900      950      970     1000      129      960     1100   
                                          VAR    BASINP    GEOM    SYMINP    ZMAT    AOBASIS   BASIS     P2S    ABASIS      S 
                                         1400     1410     1420     1200     1210     1080     1600     1650     1300     1700   
                                         EKIN       V       ECP      H0       H01     AOSYM     SMH    MOLCAS    ERIS     OPER   
                                         1380   
                                         JKOP   

              2       7       10.36       700     1000      520     4202     5202     2101     2200   
                                         GEOM     BASIS   MCVARS     RHF     MCSCF     RHF      UHF  

 PROGRAMS   *        TOTAL       UHF       RHF     MULTI       POP       RHF       INT
 CPU TIMES  *        18.51      0.02      0.03      0.11      0.00      0.08     18.10
 REAL TIME  *        33.31 SEC
 DISK USED  *        40.44 MB      
 **********************************************************************************************************************************
 SETTING SCF(I)         =      -169.94198677  AU                              


 PROGRAM * MRCC (General Multireference Coupled Cluster)    Author: M. Kallay, 2000-2005

 ***  Initialisation ***

   0 Spin projections
 
 Molecular orbitals read from record     2200.2  Type=UHF/ALPHA (state 1.1)

 ?Warning: UHF not converged
 Molecular orbitals read from record     2200.2  Type=UHF/BETA (state 1.1)

 ?Warning: UHF not converged
 
 Frozen orbitals:              0 (  0  0  0  0  0  0  0  0)
 Active orbitals:             63 ( 16 10 10  5 10  5  5  2)
 Active electrons:            18
 Spin quantum number:          1.0

 Transformed integrals will be written to file mrcc_60281/fort.55

 Load integrals               18.5 sec
 Transform integrals          18.7 sec
 Storage for integrals:        1597106
 Remaining memory:           *********

 Core energy:               0.00000000
 
 MRCC Input:
     4     0     0     0     3     0     0     1     0     0     0     1     1     0     0     7     0     0   0.000     0   64000
  ex.lev,nsing,ntrip, rest,method,dens,conver,symm, diag, CS ,spatial, HF, ndoub,nacto,nactv, tol, maxex, sacc, freq,  dboc,   mem
  2  2  1  1  0  0  0  0  0  0  0  0  0  0  0  0  2  0  0  0  0  0  0  0  0  0  2  0  0  0  0  0  0  0  0  0  2  0  0  0  0  2  0  0  0  0  0  0  0  0  0  2  0  0  0  0  2  0  0  0  0  0  0
 MRCC Input end
 Variable memory released
 MRCC now being run, temporary output in /global/cscratch1/sd/aannabe/mrcc_60281/mrcc.out
 **********************************************************************
                          MRCC program system
 **********************************************************************

                              Written by
  Mihaly Kallay, Zoltan Rolik, Jozsef Csontos, Peter Nagy, Gyula Samu,
      David Mester, Jozsef Csoka, Bernat Szabo, Istvan Ladjanszki,
       Lorant Szegedy, Bence Ladoczki, Klara Petrov, Mate Farkas,
                    Pal D. Mezei, and Bence Hegely

        Department of Physical Chemistry and Materials Science
            Budapest University of Technology and Economics
                  Budapest P.O.Box 91, H-1521 Hungary

                              www.mrcc.hu

                       Release date: May 23, 2018

 ************************ 2019-02-17 18:27:14 *************************
 Executing goldstone...

 Generation of CC equations in terms of H and T...
 Generation of antisymmetrized Goldstone diagrams...
 Number of diagrams in T^1 equations:    15
 Number of diagrams in T^2 equations:    38
 Number of diagrams in T^3 equations:    49
 Number of diagrams in T^4 equations:     5
 Translation of diagrams to factorized equations...
 Optimizing intermediate calculation...
 Number of floating-point operations per iteration step:   1.3256E+12
 Probable CPU time per iteration step (hours):     13.26
 Required memory (Mbytes):   15639.1
 Number of intermediates:                                  80
 Number of intermediates to be stored:                     31
 Length of intermediate file (Mbytes):     126.4

 ************************ 2019-02-17 18:27:15 *************************
 Executing xmrcc...

 **********************************************************************
 CC(3)(4) calculation


 Allocation of****** Mbytes of memory...
 Number of spinorbitals:                   126
 Number of alpha electrons:                       10
 Number of beta electrons:                         8
 Spin multiplicity:                     2
 z-component of spin:  1.0
 Spatial symmetry:                      1
 Convergence criterion:  1.0E-07
 Construction of occupation graphs...
 Number of                     0 -fold excitations:                      1
 Number of                     1 -fold excitations:                    154
 Number of                     2 -fold excitations:                  42952
 Number of                     3 -fold excitations:                6696867
 Total number of configurations:                6739974
 Calculation of coupling coefficients...
 Length of intermediate file (Mbytes):      87.0

 ======================================================================

 Spin case  1   Alpha:  0   Beta:  4
 Number of excitations:                2984787
 Spin case  2   Alpha:  1   Beta:  3
 Number of excitations:               97284810
 Spin case  3   Alpha:  2   Beta:  2
 Number of excitations:              322276785
 Spin case  4   Alpha:  3   Beta:  1
 Number of excitations:              154594920
 Spin case  5   Alpha:  4   Beta:  0
 Number of excitations:                7689238
 Number of                     4 -fold excitations:              584830540

 Memory requirements /Mbyte/:
               Minimal        Optimal
 Real*8:        119.7321       120.2500
 Integer:        16.7430
 Total:         136.4750       136.9930


 ************************ 2019-02-17 18:27:20 *************************
 Executing mrcc...

 **********************************************************************
 CCSDT(Q) calculation


 Allocation of  120.3 Mbytes of memory...
 Number of spinorbitals: 126
 Number of alpha electrons: 10
 Number of beta  electrons:  8
 Spin multiplicity: 2
 z-component of spin:  1.0
 Spatial symmetry: 1
 Convergence criterion:  1.0E-07
 Construction of occupation graphs...
 Number of 0-fold excitations: 1
 Number of 1-fold excitations: 154
 Number of 2-fold excitations: 42952
 Number of 3-fold excitations: 6696867
 Total number of determinants: 6739974
 Calculation of coupling coefficients...
 Initial cluster amplitudes are generated.
 Length of intermediate file (Mbytes):      87.0
 Reading integral list from unit 55...
 Sorting integrals...
 Sorting integrals...
 Sorting integrals...
 Sorting integrals...
 Energy of reference determinant [au]:    -169.941986765672
 Calculation of MP denominators...

 Starting CC iteration...
 ======================================================================
 Norm of residual vector:     3.14860265
 CPU time [min]:     1.566                   Wall time [min]:     1.573

 Iteration  1  CC energy:  -170.62522114  Energy decrease:   0.68323438
 ======================================================================
 Norm of residual vector:     0.65908929
 CPU time [min]:     3.074                   Wall time [min]:     3.094

 Iteration  2  CC energy:  -170.58099540  Energy decrease:   0.04422574
 ======================================================================
 Norm of residual vector:     0.16076969
 CPU time [min]:     4.729                   Wall time [min]:     4.757

 Iteration  3  CC energy:  -170.60301512  Energy decrease:   0.02201971
 ======================================================================
 Norm of residual vector:     0.06914165
 CPU time [min]:     6.456                   Wall time [min]:     6.494

 Iteration  4  CC energy:  -170.61510473  Energy decrease:   0.01208961
 ======================================================================
 Norm of residual vector:     0.03357124
 CPU time [min]:     8.123                   Wall time [min]:     8.176

 Iteration  5  CC energy:  -170.61394192  Energy decrease:   0.00116281
 ======================================================================
 Norm of residual vector:     0.01513986
 CPU time [min]:     9.799                   Wall time [min]:     9.858

 Iteration  6  CC energy:  -170.61316816  Energy decrease:   0.00077376
 ======================================================================
 Norm of residual vector:     0.00685058
 CPU time [min]:    11.523                   Wall time [min]:    11.589

 Iteration  7  CC energy:  -170.61334806  Energy decrease:   0.00017989
 ======================================================================
 Norm of residual vector:     0.00364530
 CPU time [min]:    13.270                   Wall time [min]:    13.348

 Iteration  8  CC energy:  -170.61357682  Energy decrease:   0.00022876
 ======================================================================
 Norm of residual vector:     0.00218247
 CPU time [min]:    14.974                   Wall time [min]:    15.060

 Iteration  9  CC energy:  -170.61364870  Energy decrease:   0.00007187
 ======================================================================
 Norm of residual vector:     0.00132519
 CPU time [min]:    16.719                   Wall time [min]:    16.815

 Iteration 10  CC energy:  -170.61362498  Energy decrease:   0.00002372
 ======================================================================
 Norm of residual vector:     0.00082359
 CPU time [min]:    18.453                   Wall time [min]:    18.565

 Iteration 11  CC energy:  -170.61361158  Energy decrease:   0.00001341
 ======================================================================
 Norm of residual vector:     0.00048753
 CPU time [min]:    20.227                   Wall time [min]:    20.430

 Iteration 12  CC energy:  -170.61362586  Energy decrease:   0.00001429
 ======================================================================
 Norm of residual vector:     0.00030750
 CPU time [min]:    22.024                   Wall time [min]:    22.357

 Iteration 13  CC energy:  -170.61362560  Energy decrease:   0.00000026
 ======================================================================
 Norm of residual vector:     0.00020043
 CPU time [min]:    23.793                   Wall time [min]:    24.135

 Iteration 14  CC energy:  -170.61361993  Energy decrease:   0.00000567
 ======================================================================
 Norm of residual vector:     0.00010972
 CPU time [min]:    25.529                   Wall time [min]:    25.890

 Iteration 15  CC energy:  -170.61362118  Energy decrease:   0.00000125
 ======================================================================
 Norm of residual vector:     0.00005724
 CPU time [min]:    27.287                   Wall time [min]:    27.655

 Iteration 16  CC energy:  -170.61362236  Energy decrease:   0.00000118
 ======================================================================
 Norm of residual vector:     0.00002608
 CPU time [min]:    29.134                   Wall time [min]:    29.632

 Iteration 17  CC energy:  -170.61362210  Energy decrease:   0.00000026
 ======================================================================
 Norm of residual vector:     0.00001142
 CPU time [min]:    30.924                   Wall time [min]:    31.603

 Iteration 18  CC energy:  -170.61362217  Energy decrease:   0.00000007
 ======================================================================
 Norm of residual vector:     0.00000580
 CPU time [min]:    32.706                   Wall time [min]:    33.405

 Iteration 19  CC energy:  -170.61362225  Energy decrease:   0.00000009
 ======================================================================
 Norm of residual vector:     0.00000301
 CPU time [min]:    34.514                   Wall time [min]:    35.220

 Iteration 20  CC energy:  -170.61362223  Energy decrease:   0.00000002
 ======================================================================
 Norm of residual vector:     0.00000151
 CPU time [min]:    36.316                   Wall time [min]:    37.028

 Iteration 21  CC energy:  -170.61362220  Energy decrease:   0.00000003
 ======================================================================
 Norm of residual vector:     0.00000070
 CPU time [min]:    38.130                   Wall time [min]:    38.850

 Iteration 22  CC energy:  -170.61362220  Energy decrease:   3.2674E-10
 ======================================================================
 Norm of residual vector:     0.00000034
 CPU time [min]:    39.970                   Wall time [min]:    40.698

 Iteration 23  CC energy:  -170.61362220  Energy decrease:   1.0159E-09
 ======================================================================
 Norm of residual vector:     0.00000015
 CPU time [min]:    41.787                   Wall time [min]:    42.520

 Iteration 24  CC energy:  -170.61362220  Energy decrease:   7.6909E-11
 ======================================================================
 Norm of residual vector:     0.00000007
 CPU time [min]:    43.345                   Wall time [min]:    44.090

 Iteration 25  CC energy:  -170.61362221  Energy decrease:   1.8211E-09
 ======================================================================

 Iteration has converged in 25 steps.

 Final results:
 Total CCSDT energy [au]:           -170.613622205513
 Total MP2 energy [au]:             -170.625221141717

 Perturbative corrections are calculated...
 ======================================================================
 Spin case  1   Alpha:  0   Beta:  4
 Number of excitations:        2984787
 CPU time [min]:    46.036                   Wall time [min]:    46.796
 ======================================================================
 Spin case  2   Alpha:  1   Beta:  3
 Number of excitations:        97284810
 CPU time [min]:    85.132                   Wall time [min]:    85.893
 ======================================================================
 Spin case  3   Alpha:  2   Beta:  2
 Number of excitations:        322276785
 CPU time [min]:   168.431                   Wall time [min]:   169.258
 ======================================================================
 Spin case  4   Alpha:  3   Beta:  1
 Number of excitations:        154594920
 CPU time [min]:   206.805                   Wall time [min]:   207.649
 ======================================================================
 Spin case  5   Alpha:  4   Beta:  0
 Number of excitations:        7689238
 CPU time [min]:   209.375                   Wall time [min]:   210.229
 ======================================================================
 Number of 4-fold excitations: 584830540
 CPU time [min]:   209.375                   Wall time [min]:   210.230

 Total CCSDT[Q] energy [au]:        -170.612816194224
 Total CCSDT(Q) energy [au]:        -170.613895212144

 ************************ 2019-02-17 21:57:34 *************************
                      Normal termination of mrcc.
 **********************************************************************
 !CCSDT STATE 1.1 Energy             -170.613622205513
 !MP2 STATE 1.1 Energy               -170.625221141717
 !CCSDT[Q] STATE 1.1 Energy          -170.612816194224
 !CCSDT(Q) STATE 1.1 Energy          -170.613895212144
 
 CPU-time for MRCC:          12562.5 sec
 Elapsed-time for MRCC:      12622.6 sec

 Variable memory set to 8000000000 words,  buffer space   230000 words



 **********************************************************************************************************************************
 DATASETS  * FILE   NREC   LENGTH (MB)   RECORD NAMES
              1      21       21.99       500      610      700      900      950      970     1000      129      960     1100   
                                          VAR    BASINP    GEOM    SYMINP    ZMAT    AOBASIS   BASIS     P2S    ABASIS      S 
                                         1400     1410     1420     1200     1210     1080     1600     1650     1300     1700   
                                         EKIN       V       ECP      H0       H01     AOSYM     SMH    MOLCAS    ERIS     OPER   
                                         1380   
                                         JKOP   

              2       7       10.36       700     1000      520     4202     5202     2101     2200   
                                         GEOM     BASIS   MCVARS     RHF     MCSCF     RHF      UHF  

 PROGRAMS   *        TOTAL      MRCC       UHF       RHF     MULTI       POP       RHF       INT
 CPU TIMES  *     12585.90  12567.39      0.02      0.03      0.11      0.00      0.08     18.10
 REAL TIME  *     12681.33 SEC
 DISK USED  *        40.44 MB      
 **********************************************************************************************************************************
 SETTING POSTHF(I)      =      -170.61389521  AU                              
                                                                                                                                                                                                                                                                

         SCF            POSTHF        EKIN          POT
    -169.9419868   -170.6138952   109.0750991   -23.75726267
                                                  

 CCSDT(Q)/USERDEF energy=   -170.613895212144

        CCSDT(Q)        UHF-SCF         RHF-SCF         MULTI           RHF-SCF 
   -170.61389521   -169.94198677   -169.94198677   -169.85261572   -169.92818121
 **********************************************************************************************************************************
 Molpro calculation terminated
 Variable memory released
