
 Primary working directories    : /global/cscratch1/sd/aannabe
 Secondary working directories  : /global/cscratch1/sd/aannabe
 Wavefunction directory         : /global/homes/a/aannabe/wfu/
 Main file repository           : /global/cscratch1/sd/aannabe/

 SHA1      : 19cd028119e0e09f93f0674bd8af7968d9b3eff6
 NAME      : 2015.1.36
 ARCHNAME  : linux/x86_64
 FC        : /opt/cray/pe/craype/2.5.14/bin/ftn
 BLASLIB   : -L/opt/intel/compilers_and_libraries_2018.1.163/linux/mkl/lib/intel64 -Wl,-_start-group -lmkl_intel_ilp64 -lmkl_intel_thread -lmkl_core -Wl,-_end-group -liomp5
 id        : lbl

 Nodes     nprocs
 nid00062     3
 Number of processes for MPI-2 version of Molpro:   nprocs(total)=    4   nprocs(compute)=    3   nprocs(helper)=    1

 Using customized tuning parameters: mindgm=7; mindgv=16; mindgc=1; mindgr=1; noblas=0; minvec=7
 default implementation of scratch files=sf  

 ***,Na
 memory,512,m
 gthresh,twoint=1.e-12
 
 gprint,basis,orbitals
 gexpec,ekin,pot
 
 angstrom
 geometry={
 1                                                                               ! Number of atoms
 Na 0.0 0.0 0.0
 }
 
 basis={
 Including file /global/homes/a/aannabe/repos/pseudopotentiallibrary/recipes/Na/ccECP/Na.ccECP.molpro
 Including file /global/homes/a/aannabe/repos/pseudopotentiallibrary/recipes/Na/ccECP/Na.basis.cc-PVDZ-PP
 }
 
 {hf
 wf,1,1,1
 occ,1,0,0,0,0,0,0,0
 open,1.1
 }
 scf(i)=energy
 
 posthf(i)=energy
 
 table,scf,posthf,ekin,pot
 save,2.csv,new
 
 

 Variables initialized (889), CPU time= 0.00 sec
 Commands  initialized (702), CPU time= 0.01 sec, 572 directives.
 Default parameters read. Elapsed time= 0.16 sec

 Checking input...
 Passed
1


                                         ***  PROGRAM SYSTEM MOLPRO  ***
                                       Copyright, TTI GmbH Stuttgart, 2015
                                    Version 2015.1 linked Dec 29 2018 15:55:43


 **********************************************************************************************************************************
 LABEL *   Na                                                                            
  64 bit mpp version                                                                     DATE: 03-Jan-19          TIME: 11:28:48  
 **********************************************************************************************************************************

 SHA1:             19cd028119e0e09f93f0674bd8af7968d9b3eff6
 **********************************************************************************************************************************

 THRESHOLDS:

 ZERO    =  1.00D-12  ONEINT  =  1.00D-12  TWOINT  =  1.00D-12  PREFAC  =  1.00D-14  LOCALI  =  1.00D-09  EORDER  =  1.00D-04
 ENERGY  =  0.00D+00  ETEST   =  0.00D+00  EDENS   =  0.00D+00  THRDEDEF=  1.00D-06  GRADIENT=  1.00D-02  STEP    =  1.00D-03
 ORBITAL =  1.00D-05  CIVEC   =  1.00D-05  COEFF   =  1.00D-04  PRINTCI =  5.00D-02  PUNCHCI =  9.90D+01  OPTGRAD =  3.00D-04
 OPTENERG=  1.00D-06  OPTSTEP =  3.00D-04  THRGRAD =  1.00D-10  COMPRESS=  1.00D-11  VARMIN  =  1.00D-07  VARMAX  =  1.00D-03
 THRDOUB =  0.00D+00  THRDIV  =  1.00D-05  THRRED  =  1.00D-07  THRPSP  =  1.00D+00  THRDC   =  1.00D-10  THRCS   =  1.00D-10
 THRNRM  =  1.00D-08  THREQ   =  0.00D+00  THRDE   =  1.00D+00  THRREF  =  1.00D-05  SPARFAC =  1.00D+00  THRDLP  =  1.00D-07
 THRDIA  =  1.00D-10  THRDLS  =  1.00D-07  THRGPS  =  0.00D+00  THRKEX  =  0.00D+00  THRDIS  =  2.00D-01  THRVAR  =  1.00D-10
 THRLOC  =  1.00D-06  THRGAP  =  1.00D-06  THRLOCT = -1.00D+00  THRGAPT = -1.00D+00  THRORB  =  1.00D-06  THRMLTP =  0.00D+00
 THRCPQCI=  1.00D-10  KEXTA   =  0.00D+00  THRCOARS=  0.00D+00  SYMTOL  =  1.00D-06  GRADTOL =  1.00D-06  THROVL  =  1.00D-08
 THRORTH =  1.00D-08  GRID    =  1.00D-06  GRIDMAX =  1.00D-03  DTMAX   =  0.00D+00  THROCCDE=  1.00D-01  THROCCDE=  1.00D-01



 ZUNIT=ANG
 

Geometry recognized as XYZ


 Variable memory set to  512000000 words,  buffer space   230000 words

 SETTING BASIS          =    USERDEF


 Recomputing integrals since basis changed


 Using spherical harmonics



 PROGRAM * SEWARD (Integral evaluation for generally contracted gaussian basis sets)     Author: Roland Lindh, 1990

 Geometry written to block  1 of record 700

 Orientation using atomic masses  
 Molecule type: Atom
 Symmetry elements: X,Y,Z
 Rotational constants:       0.0000000      0.0000000      0.0000000 GHz  (calculated with average atomic masses)

 Point group  D2h 



 ATOMIC COORDINATES

 NR  ATOM    CHARGE       X              Y              Z

   1  NA      1.00    0.000000000    0.000000000    0.000000000


          NA  CORE POTENTIAL

          d POTENTIAL

 POWERS             1              3              2
 EXPONENTIALS   4.311678       1.925689       1.549498    
 COEFFICIENTS   1.000000       4.311678      -2.083137    

          s - d POTENTIAL

 POWERS             2              2
 EXPONENTIALS   5.377666       1.408414    
 COEFFICIENTS   6.234064       9.075931    

          p - d POTENTIAL

 POWERS             2              2
 EXPONENTIALS   1.379949      0.8624530    
 COEFFICIENTS   3.232724       2.494079    


 BASIS DATA

   Nr Sym  Nuc  Type         Exponents   Contraction coefficients

    1.1 Ag    1  1s          22.091548    -0.000064
                              9.660603     0.000452
                              4.224568    -0.002616
                              1.847398     0.024309
                              0.807864    -0.099989
                              0.353278    -0.109801
                              0.154488     0.032993
                              0.067557     0.377630
                              0.029543     0.400459
                              0.012919     0.072453
    2.1 Ag    1  1s           0.120857     1.000000
    3.1 Ag    1  3d0          0.085542     1.000000
    4.1 Ag    1  3d2+         0.085542     1.000000
    1.2 B3u   1  2px          9.294210     0.000011
                              4.233556    -0.000081
                              1.928405     0.000955
                              0.878398    -0.006278
                              0.400114    -0.009165
                              0.182254     0.011214
                              0.083018     0.064076
                              0.037815     0.027336
                              0.017225     0.027603
                              0.007846    -0.005374
    2.2 B3u   1  2px          0.070941     1.000000
    1.3 B2u   1  2py          9.294210     0.000011
                              4.233556    -0.000081
                              1.928405     0.000955
                              0.878398    -0.006278
                              0.400114    -0.009165
                              0.182254     0.011214
                              0.083018     0.064076
                              0.037815     0.027336
                              0.017225     0.027603
                              0.007846    -0.005374
    2.3 B2u   1  2py          0.070941     1.000000
    1.4 B1g   1  3d2-         0.085542     1.000000
    1.5 B1u   1  2pz          9.294210     0.000011
                              4.233556    -0.000081
                              1.928405     0.000955
                              0.878398    -0.006278
                              0.400114    -0.009165
                              0.182254     0.011214
                              0.083018     0.064076
                              0.037815     0.027336
                              0.017225     0.027603
                              0.007846    -0.005374
    2.5 B1u   1  2pz          0.070941     1.000000
    1.6 B2g   1  3d1+         0.085542     1.000000
    1.7 B3g   1  3d1-         0.085542     1.000000

 NUCLEAR CHARGE:                    1
 NUMBER OF PRIMITIVE AOS:          50
 NUMBER OF SYMMETRY AOS:           49
 NUMBER OF CONTRACTIONS:           13   (   4Ag  +   2B3u +   2B2u +   1B1g +   2B1u +   1B2g +   1B3g +   0Au  )
 NUMBER OF CORE ORBITALS:           0   (   0Ag  +   0B3u +   0B2u +   0B1g +   0B1u +   0B2g +   0B3g +   0Au  )
 NUMBER OF VALENCE ORBITALS:        4   (   1Ag  +   1B3u +   1B2u +   0B1g +   1B1u +   0B2g +   0B3g +   0Au  )


 NUCLEAR REPULSION ENERGY    0.00000000

 EXTRA SYMMETRY OF AOS IN SYMMETRY 1:   1 1 2 3

 Eigenvalues of metric

         1 0.265E+00 0.100E+01 0.100E+01 0.174E+01
         2 0.294E-01 0.197E+01
         3 0.294E-01 0.197E+01
         4 0.100E+01
         5 0.294E-01 0.197E+01
         6 0.100E+01
         7 0.100E+01


 Contracted 2-electron integrals neglected if value below      1.0D-12
 AO integral compression algorithm  1   Integral accuracy      1.0D-12

     0.786 MB (compressed) written to integral file (100.0%)

     Node minimum: 0.262 MB, node maximum: 0.262 MB


 NUMBER OF SORTED TWO-ELECTRON INTEGRALS:        255.     BUFFER LENGTH:  32768
 NUMBER OF SEGMENTS:   1  SEGMENT LENGTH:        255      RECORD LENGTH: 524288

 Memory used in sort:       0.56 MW

 SORT1 READ        1437. AND WROTE         237. INTEGRALS IN      1 RECORDS. CPU TIME:     0.00 SEC, REAL TIME:     0.85 SEC
 SORT2 READ         731. AND WROTE         799. INTEGRALS IN      3 RECORDS. CPU TIME:     0.01 SEC, REAL TIME:     0.03 SEC

 Node minimum:         141.  Node maximum:         403. integrals

 OPERATOR DM      FOR CENTER  0  COORDINATES:    0.000000    0.000000    0.000000
 OPERATOR EKIN    FOR CENTER  0  COORDINATES:    0.000000    0.000000    0.000000
 OPERATOR POT     FOR CENTER  0  COORDINATES:    0.000000    0.000000    0.000000


 **********************************************************************************************************************************
 DATASETS  * FILE   NREC   LENGTH (MB)   RECORD NAMES
              1      19       19.86       500      610      700      900      950      970     1000      129      960     1100   
                                          VAR    BASINP    GEOM    SYMINP    ZMAT    AOBASIS   BASIS     P2S    ABASIS      S 
                                         1400     1410     1420     1200     1210     1080     1600     1650     1700   
                                         EKIN       V       ECP      H0       H01     AOSYM     SMH    MOLCAS    OPER   

 PROGRAMS   *        TOTAL       INT
 CPU TIMES  *         0.26      0.15
 REAL TIME  *         5.00 SEC
 DISK USED  *        12.60 MB      
 GA USED    *         0.00 MB       (max)       0.00 MB       (current)
 **********************************************************************************************************************************


 PROGRAM * RHF-SCF (OPEN SHELL)       Authors: W. Meyer, H.-J. Werner


 NUMBER OF ELECTRONS:       1+    0-    SPACE SYMMETRY=1    SPIN SYMMETRY: Doublet 
 CONVERGENCE THRESHOLDS:    1.00E-05 (Density)    1.00E-07 (Energy)
 MAX. NUMBER OF ITERATIONS:       60
 INTERPOLATION TYPE:            DIIS
 INTERPOLATION STEPS:              2 (START)      1 (STEP)
 LEVEL SHIFTS:                 -0.60 (CLOSED) -0.30 (OPEN) 


 Singly occupied orbitals:      1.1

   Atom=NA basis=ECP10SDF_GUESS    lmin=0  lmax=0

 Orbital guess generated from atomic densities. Full valence occupancy:    1   0   0   0   0   0   0   0


 Molecular orbital dump at record        2100.2

 ITERATION    DDIFF          GRAD             ENERGY        2-EL.EN.            DIPOLE MOMENTS         DIIS   ORB.
    1      0.000D+00      0.000D+00        -0.18540770     -0.000000    0.00000    0.00000    0.00000    0    start
    2      0.000D+00      0.618D-02        -0.18578680      0.000000    0.00000    0.00000    0.00000    1    diag,B
    3      0.716D-02      0.200D-02        -0.18583098      0.000000    0.00000    0.00000    0.00000    2    diag,B
    4      0.339D-02      0.801D-17        -0.18583098      0.000000    0.00000    0.00000    0.00000    1    diag,B
    5      0.267D-16      0.157D-18        -0.18583098      0.000000    0.00000    0.00000    0.00000    0    orth

 Final alpha occupancy:   1   0   0   0   0   0   0
 Final beta  occupancy:   0   0   0   0   0   0   0

 !RHF STATE 1.1 Energy                 -0.185830978491
 Nuclear energy                         0.00000000
 One-electron energy                   -0.18583098
 Two-electron energy                    0.00000000
 Virial quotient                       -2.32245640
 !RHF STATE 1.1 Dipole moment           0.00000000     0.00000000     0.00000000
 Dipole moment /Debye                   0.00000000     0.00000000     0.00000000
 

 !RHF expec          <1.1|EKIN|1.1>     0.080014840574
 
 !RHF expec           <1.1|POT|1.1>    -0.293650323737

 ELECTRON ORBITALS
 =================


   Orb  Occ    Energy  Couls-En    Coefficients

                                   1 1s      1 1s      1 3d0     1 3d2+ 

   1.1   +    -0.1858   -0.3717  0.925014  0.098907  0.000000 -0.000000

 HOMO      1.1    -0.185831 =      -5.0567eV
 LUMO      1.2     0.069685 =       1.8962eV
 LUMO-HOMO         0.255516 =       6.9529eV


 **********************************************************************************************************************************
 DATASETS  * FILE   NREC   LENGTH (MB)   RECORD NAMES
              1      19       19.86       500      610      700      900      950      970     1000      129      960     1100   
                                          VAR    BASINP    GEOM    SYMINP    ZMAT    AOBASIS   BASIS     P2S    ABASIS      S 
                                         1400     1410     1420     1200     1210     1080     1600     1650     1700   
                                         EKIN       V       ECP      H0       H01     AOSYM     SMH    MOLCAS    OPER   

              2       4        2.75       700     1000      520     2100   
                                         GEOM     BASIS   MCVARS     RHF  

 PROGRAMS   *        TOTAL        HF       INT
 CPU TIMES  *         0.27      0.01      0.15
 REAL TIME  *         5.84 SEC
 DISK USED  *        80.56 MB      
 SF USED    *         0.00 MB      
 GA USED    *         0.00 MB       (max)       0.00 MB       (current)
 **********************************************************************************************************************************
 SETTING SCF(I)         =        -0.18583098  AU                              
 SETTING POSTHF(I)      =        -0.18583098  AU                              
                                                                                                                                                                                                                                                                

       SCF           POSTHF       EKIN          POT
    -0.18583098   -0.18583098   0.08001484   -0.29365032
                                                  

 HF/USERDEF energy=     -0.185830978491

        HF-SCF  
     -0.18583098
 **********************************************************************************************************************************
 Molpro calculation terminated
 Variable memory released
