TACC:  Starting up job 2697185 
TACC:  Starting parallel tasks... 
  Input file(s): Si.log.qmc.in-wfj.xml 

=====================================================
                    QMCPACK 3.5.0 

       (c) Copyright 2003-  QMCPACK developers

                    Please cite:
 J. Kim et al. J. Phys. Cond. Mat. 30 195901 (2018)
      https://doi.org/10.1088/1361-648X/aab9c3

  Git branch: develop
  Last git commit: ca320f40410f5ef17c38db08d5c54848ef64bfe1
  Last git commit date: Tue Dec 18 15:37:17 2018 +0800
  Last git commit subject: Merge pull request #764 from Paul-St-Young/dat-h5
=====================================================
  Global options 

  MPI Nodes             = 1024
  MPI Nodes per group   = 1024
  MPI Group ID          = 0
  OMP 1st level threads = 1
  OMP nested threading disabled or only 1 thread on the 2nd level

  Precision used in this calculation, see definitions in the manual:
  Base precision      = double
  Full precision      = double

  Structure-of-arrays (SoA) optimization enabled

  Input XML = Si.log.qmc.in-wfj.xml

  Project = Si.log
  date    = 2018-12-27 16:55:20 CST
  host    = c402-131.stampede2.tacc.utexas.edu

 Random Number
 -------------
  Offset for the random number seeds based on time: 88

  Range of prime numbers to use as seeds over processors and threads = 463-8963


 Particle Set 
 ------------
  Name: ion0
  All the species have the same mass 1
  Particle set size: 1

 Particle Set 
 ------------
  Name: e
  All the species have the same mass 1
  Particle set size: 4

 Wavefunction setup: 
 ------------------- 
  Name: psi0
  LCAO: SoaAtomicBasisSet<MultiQuintic,1>

  Distance table for similar particles (A-A):
    source/target: e
    Using structure-of-arrays (SoA) data layout
    Distance computations use open boundary conditions in 3D.


  Distance table for dissimilar particles (A-B):
    source: ion0  target: e
    Using structure-of-arrays (SoA) data layout
    Distance computations use open boundary conditions in 3D.

Reading BasisSet from HDF5 file:Si.log.h5
<input node="atomicBasisSet" name="gaussian" expandYlm="pyscf" angular="spherical" elementType="Si" normalized="no" type="Numerical" expM="0" />
  AO BasisSet for Si
   Spherical Harmonics contain (-1)^m factor
   Angular momentum m expanded as -l, ... ,l, with the exception of L=1 (1,-1,0)
   Grid is created by the input paremters in h5
    Using log grid ri = 1e-06 rf = 100 npts = 1001
   R(n,l,m,s) 0 0 0 0
   R(n,l,m,s) 1 0 0 0
   R(n,l,m,s) 2 0 0 0
   R(n,l,m,s) 3 0 0 0
   R(n,l,m,s) 4 0 0 0
   R(n,l,m,s) 5 1 0 0
   R(n,l,m,s) 6 1 0 0
   R(n,l,m,s) 7 1 0 0
   R(n,l,m,s) 8 1 0 0
   R(n,l,m,s) 9 1 0 0
   R(n,l,m,s) 10 2 0 0
   R(n,l,m,s) 11 2 0 0
   R(n,l,m,s) 12 2 0 0
   R(n,l,m,s) 13 2 0 0
   R(n,l,m,s) 14 3 0 0
   R(n,l,m,s) 15 3 0 0
   R(n,l,m,s) 16 3 0 0
   R(n,l,m,s) 17 4 0 0
   R(n,l,m,s) 18 4 0 0
   R(n,l,m,s) 19 5 0 0
Expanding Ylm as L=1 as (1,-1,0) and L>1 as -l,-l+1,...,l-1,l
   Adding 1 spherical orbitals
   Adding 1 spherical orbitals
   Adding 1 spherical orbitals
   Adding 1 spherical orbitals
   Adding 1 spherical orbitals
   Adding 3 spherical orbitals
   Adding 3 spherical orbitals
   Adding 3 spherical orbitals
   Adding 3 spherical orbitals
   Adding 3 spherical orbitals
   Adding 5 spherical orbitals
   Adding 5 spherical orbitals
   Adding 5 spherical orbitals
   Adding 5 spherical orbitals
   Adding 7 spherical orbitals
   Adding 7 spherical orbitals
   Adding 7 spherical orbitals
   Adding 9 spherical orbitals
   Adding 9 spherical orbitals
   Adding 11 spherical orbitals
   Maximum Angular Momentum  = 5
   Number of Radial functors = 20
   Basis size                = 90

  Created SPOSet builder named 'LCAOBSet' of type molecularorbital
Reuse SPOSetBuilder "LCAOBSet" type MolecularOrbital
  Building SPOSet '' with '' basis set.
Reuse SPOSetBuilder "LCAOBSet" type MolecularOrbital
  Building SPOSet '' with '' basis set.
  Creating a determinant updet group=0 sposet=updet
  Reusing a SPO set updet
Using DiracDeterminant 
Using rank-1 Sherman-Morrison Fahy update

  Creating a determinant downdet group=1 sposet=downdet
  Reusing a SPO set downdet
Using DiracDeterminant 
Using rank-1 Sherman-Morrison Fahy update

  FermionWF = SlaterDet
  RadialJastrowBuilder adds a functor with cusp = -0.25
 size = 10 parameters 
 cusp = -0.25
 rcut = 9.5
Parameter     Name      Value
uu_0 0.730755 1 1  ON 0
uu_1 0.565779 1 1  ON 1
uu_2 0.394175 1 1  ON 2
uu_3 0.264749 1 1  ON 3
uu_4 0.15988 1 1  ON 4
uu_5 0.0754688 1 1  ON 5
uu_6 0.010246 1 1  ON 6
uu_7 -0.0366831 1 1  ON 7
uu_8 -0.0605998 1 1  ON 8
uu_9 -0.0668095 1 1  ON 9
  RadialJastrowBuilder adds a functor with cusp = -0.5
 size = 10 parameters 
 cusp = -0.5
 rcut = 9.5
Parameter     Name      Value
ud_0 1.13346 1 1  ON 0
ud_1 0.769131 1 1  ON 1
ud_2 0.491292 1 1  ON 2
ud_3 0.296428 1 1  ON 3
ud_4 0.154101 1 1  ON 4
ud_5 0.0461444 1 1  ON 5
ud_6 -0.0338147 1 1  ON 6
ud_7 -0.0911521 1 1  ON 7
ud_8 -0.117238 1 1  ON 8
ud_9 -0.126989 1 1  ON 9
 size = 10 parameters 
 cusp = 0
 rcut = 9.5
Parameter     Name      Value
eSi_0 -0.799732 1 1  ON 0
eSi_1 -0.706413 1 1  ON 1
eSi_2 -0.510223 1 1  ON 2
eSi_3 -0.262908 1 1  ON 3
eSi_4 -0.0205794 1 1  ON 4
eSi_5 0.186062 1 1  ON 5
eSi_6 0.343045 1 1  ON 6
eSi_7 0.442628 1 1  ON 7
eSi_8 0.445485 1 1  ON 8
eSi_9 0.384937 1 1  ON 9
Expected 26 parameters, but found 0 in PolynomialFunctor3D.
Parameter     Name      Value
uuSi_0 0 1 1  ON 0
uuSi_1 0 1 1  ON 1
uuSi_2 0 1 1  ON 2
uuSi_3 0 1 1  ON 3
uuSi_4 0 1 1  ON 4
uuSi_5 0 1 1  ON 5
uuSi_6 0 1 1  ON 6
uuSi_7 0 1 1  ON 7
uuSi_8 0 1 1  ON 8
uuSi_9 0 1 1  ON 9
uuSi_10 0 1 1  ON 10
uuSi_11 0 1 1  ON 11
uuSi_12 0 1 1  ON 12
uuSi_13 0 1 1  ON 13
uuSi_14 0 1 1  ON 14
uuSi_15 0 1 1  ON 15
uuSi_16 0 1 1  ON 16
uuSi_17 0 1 1  ON 17
uuSi_18 0 1 1  ON 18
uuSi_19 0 1 1  ON 19
uuSi_20 0 1 1  ON 20
uuSi_21 0 1 1  ON 21
uuSi_22 0 1 1  ON 22
uuSi_23 0 1 1  ON 23
uuSi_24 0 1 1  ON 24
uuSi_25 0 1 1  ON 25
Expected 26 parameters, but found 0 in PolynomialFunctor3D.
Parameter     Name      Value
udSi_0 0 1 1  ON 0
udSi_1 0 1 1  ON 1
udSi_2 0 1 1  ON 2
udSi_3 0 1 1  ON 3
udSi_4 0 1 1  ON 4
udSi_5 0 1 1  ON 5
udSi_6 0 1 1  ON 6
udSi_7 0 1 1  ON 7
udSi_8 0 1 1  ON 8
udSi_9 0 1 1  ON 9
udSi_10 0 1 1  ON 10
udSi_11 0 1 1  ON 11
udSi_12 0 1 1  ON 12
udSi_13 0 1 1  ON 13
udSi_14 0 1 1  ON 14
udSi_15 0 1 1  ON 15
udSi_16 0 1 1  ON 16
udSi_17 0 1 1  ON 17
udSi_18 0 1 1  ON 18
udSi_19 0 1 1  ON 19
udSi_20 0 1 1  ON 20
udSi_21 0 1 1  ON 21
udSi_22 0 1 1  ON 22
udSi_23 0 1 1  ON 23
udSi_24 0 1 1  ON 24
udSi_25 0 1 1  ON 25
  QMCHamiltonian::addOperator Kinetic to H, physical Hamiltonian 
  QMCHamiltonian::addOperator ElecElec to H, physical Hamiltonian 
QMCHamiltonian::addOperatorType added type coulomb named ElecElec
  CoulombAA for ion0 is not created.  Number of particles == 1 and nonPeriodic

  ECPotential builder for pseudopotential 

  Adding pseudopotential for Si
   Linear grid  ri=0 rf=10 npts = 10001
    ECPComponentBuilder::buildSemiLocalAndLocal 
    Assuming Hartree unit
   Number of angular momentum channels 3
   Maximum angular momentum channel 2
   Creating a Linear Grid Rmax=2.69
  Using global grid with delta = 0.001
   Making L=2 a local potential with a radial cutoff of 9.999
    Non-local pseudopotential parameters
    Maximum angular mementum = 1
    Number of non-local channels = 2
       l(0)=0
       l(1)=1
    Cutoff radius = 2.69
    Spherical grids and weights: 
                        1                 0                 0       0.08333333333
                       -1   1.224646799e-16                 0       0.08333333333
             0.4472135955       0.894427191                 0       0.08333333333
            -0.4472135955      0.7236067977      0.5257311121       0.08333333333
             0.4472135955      0.2763932023      0.8506508084       0.08333333333
            -0.4472135955     -0.2763932023      0.8506508084       0.08333333333
             0.4472135955     -0.7236067977      0.5257311121       0.08333333333
            -0.4472135955      -0.894427191   1.095357397e-16       0.08333333333
             0.4472135955     -0.7236067977     -0.5257311121       0.08333333333
            -0.4472135955     -0.2763932023     -0.8506508084       0.08333333333
             0.4472135955      0.2763932023     -0.8506508084       0.08333333333
            -0.4472135955      0.7236067977     -0.5257311121       0.08333333333
    Maximum cutoff radius 2.69
  QMCHamiltonian::addOperator LocalECP to H, physical Hamiltonian 

  Using NonLocalECP potential 
    Maximum grid on a sphere for NonLocalECPotential: 12
  QMCHamiltonian::addOperator NonLocalECP to H, physical Hamiltonian 
QMCHamiltonian::addOperatorType added type pseudo named PseudoPot

  QMCHamiltonian::add2WalkerProperty added
    4 to P::PropertyList 
    0 to P::Collectables 
    starting Index of the observables in P::PropertyList = 9
ParticleSetPool::randomize 
<init source="ion0" target="e">
</init>
  Initialization Execution time = 0.3964 secs
=========================================================
 Summary of QMC systems 
=========================================================
ParticleSetPool has: 

  ParticleSet e : 0 3 4 

    4

    u  1.3304214210e+00  1.2405102638e+00  1.0155185150e+00
    u -1.6187145684e+00 -1.5850285823e-01 -6.0643700382e-01
    u  9.7065313605e-01  2.0889390731e+00  1.0744327909e+00
    d -6.3937921768e-02  4.0119584776e-01 -1.7561771094e+00

  ParticleSet ion0 : 0 1 

    1

    Si  0.0000000000e+00  0.0000000000e+00  0.0000000000e+00

  Hamiltonian h0
  Kinetic         Kinetic energy
  ElecElec        CoulombAA source/target e

  LocalECP        LocalECPotential: ion0
  NonLocalECP     NonLocalECPotential: ion0

=========================================================
  Start VMC
  File Root Si.log.s000 append = no 
=========================================================
  Adding 1 walkers to 0 existing sets
  Total number of walkers: 1.0240000000e+03
  Total weight: 1.0240000000e+03
  Resetting Properties of the walkers 1 x 13

<vmc function="put">
  qmc_counter=0  my_counter=0
  time step      = 1.5000000000e-01
  blocks         = 200
  steps          = 1
  substeps       = 5
  current        = 0
  target samples = 1.0240000000e+03
  walkers/mpi    = 1

  stepsbetweensamples = 200
<parameter name="blocks" condition="int">200</parameter>
<parameter name="blocks_between_recompute" condition="int">0</parameter>
<parameter name="check_properties" condition="int">100</parameter>
<parameter name="checkproperties" condition="int">100</parameter>
<parameter name="current" condition="int">0</parameter>
<parameter name="dmcwalkersperthread" condition="real">1.0000000000e+00</parameter>
<parameter name="maxcpusecs" condition="real">3.6000000000e+05</parameter>
<parameter name="record_configs" condition="int">0</parameter>
<parameter name="record_walkers" condition="int">200</parameter>
<parameter name="recordconfigs" condition="int">0</parameter>
<parameter name="recordwalkers" condition="int">200</parameter>
<parameter name="rewind" condition="int">0</parameter>
<parameter name="samples" condition="real">1.0240000000e+03</parameter>
<parameter name="samplesperthread" condition="real">1.0000000000e+00</parameter>
<parameter name="steps" condition="int">1</parameter>
<parameter name="stepsbetweensamples" condition="int">200</parameter>
<parameter name="store_configs" condition="int">0</parameter>
<parameter name="storeconfigs" condition="int">0</parameter>
<parameter name="sub_steps" condition="int">5</parameter>
<parameter name="substeps" condition="int">5</parameter>
<parameter name="tau" condition="au">1.5000000000e-01</parameter>
<parameter name="time_step" condition="au">1.5000000000e-01</parameter>
<parameter name="timestep" condition="au">1.5000000000e-01</parameter>
<parameter name="use_drift" condition="string">no</parameter>
<parameter name="usedrift" condition="string">no</parameter>
<parameter name="walkers" condition="int">1</parameter>
<parameter name="warmup_steps" condition="int">100</parameter>
<parameter name="warmupsteps" condition="int">100</parameter>
  DumpConfig==false Nothing (configurations, state) will be saved.
  Walker Samples are dumped every 200 steps.
</vmc>
  Initial partition of walkers 0 1 

  Using Particle by Particle moves
  Walker moves without drift
  Total Sample Size   =1024
  Walker distribution on root = 0 1 
  Using Locality Approximation
===== Memory Usage after the buffer registration =====
Available memory on node 0, free + buffers : 84396 MB
Memory footprint by rank 0 on node 0       : 72 MB
==================================================
  Anonymous Buffer size per walker : 1440 Bytes.
MEMORY increase 0 MB VMC::resetRun
====================================================
  SimpleFixedNodeBranch::finalize after a VMC block
    QMC counter        = 0
    time step          = 0.15
    reference energy   = -3.76002
    reference variance = 0.0190752
====================================================
  QMC Execution time = 1.2401e+00 secs 
Loop execution max-interations = 20

=========================================================
  Start QMCFixedSampleLinearOptimize
  File Root Si.log.s001 append = no 
=========================================================
  Skip QMCDriver::putQMCInfo 
  Resetting Properties of the walkers 1 x 13

=========================================================
  Start VMC
  File Root Si.log.s001 append = no 
=========================================================
  Using the current 1 walkers.
  Total number of walkers: 1.0240e+03
  Total weight: 1.0240e+03
  Resetting Properties of the walkers 1 x 13

<vmc function="put">
  qmc_counter=0  my_counter=0
  time step      = 1.5000e-01
  blocks         = 300
  steps          = 2
  substeps       = 5
  current        = 0
  target samples = 5.1200e+05
  walkers/mpi    = 1

  stepsbetweensamples = 1
<parameter name="blocks" condition="int">300</parameter>
<parameter name="blocks_between_recompute" condition="int">0</parameter>
<parameter name="check_properties" condition="int">100</parameter>
<parameter name="checkproperties" condition="int">100</parameter>
<parameter name="current" condition="int">0</parameter>
<parameter name="dmcwalkersperthread" condition="real">5.0000e+02</parameter>
<parameter name="maxcpusecs" condition="real">3.6000e+05</parameter>
<parameter name="record_configs" condition="int">0</parameter>
<parameter name="record_walkers" condition="int">1</parameter>
<parameter name="recordconfigs" condition="int">0</parameter>
<parameter name="recordwalkers" condition="int">1</parameter>
<parameter name="rewind" condition="int">0</parameter>
<parameter name="samples" condition="real">5.1200e+05</parameter>
<parameter name="samplesperthread" condition="real">5.0000e+02</parameter>
<parameter name="steps" condition="int">2</parameter>
<parameter name="stepsbetweensamples" condition="int">1</parameter>
<parameter name="store_configs" condition="int">0</parameter>
<parameter name="storeconfigs" condition="int">0</parameter>
<parameter name="sub_steps" condition="int">5</parameter>
<parameter name="substeps" condition="int">5</parameter>
<parameter name="tau" condition="au">1.5000e-01</parameter>
<parameter name="time_step" condition="au">1.5000e-01</parameter>
<parameter name="timestep" condition="au">1.5000e-01</parameter>
<parameter name="use_drift" condition="string">no</parameter>
<parameter name="usedrift" condition="string">no</parameter>
<parameter name="walkers" condition="int">1</parameter>
<parameter name="warmup_steps" condition="int">0</parameter>
<parameter name="warmupsteps" condition="int">0</parameter>
  DumpConfig==false Nothing (configurations, state) will be saved.
  Walker Samples are dumped every 1 steps.
</vmc>
    Restarting, cummulative properties:
      energy     = -3.7600e+00
      variance   = 0.0000e+00
      r2accepted = 1.0000e-10
      r2proposed = 1.0000e-10
 Using QMCCostFunction::QMCCostFunction
  EstimatorManagerBase::add replace LocalEnergy estimator.
<optimization-report>
<vmc stage="main" blocks="300">
  Cannot make clones again. Use existing 1 clones
  Initial partition of walkers 0 1 

  Using Particle by Particle moves
  Walker moves without drift
  Total Sample Size   =512000
  Walker distribution on root = 0 1 
  Using Locality Approximation
===== Memory Usage after the buffer registration =====
Available memory on node 0, free + buffers : 84391 MB
Memory footprint by rank 0 on node 0       : 72 MB
==================================================
  Anonymous Buffer size per walker : 1440 Bytes.
MEMORY increase 0 MB VMC::resetRun
====================================================
  SimpleFixedNodeBranch::finalize after a VMC block
    QMC counter        = 1
    time step          = 0.15
    reference energy   = -3.76025
    reference variance = 0.0218816
====================================================
  Execution time = 2.8069e+00
</vmc>
<opt stage="setup">
  <log>
   Reading configurations from h5FileRoot Si.log.s001
  QMCCostFunction is created with 1 threads.
  Using Nonlocal PP in Opt: NonLocalECP
   Number of samples loaded to each thread : 500 
  VMC Eavg = -3.7519e+00
  VMC Evar = 2.6158e-02
  Total weights = 5.1200e+05
  Execution time = 1.1146e+00
  </log>
</opt>
<opt stage="main" walkers="512000">
  <log>

*****************************************
Building overlap and Hamiltonian matrices
*****************************************

Among totally 82 optimized parameters, largest LM parameter change : 3.5376e-02 at parameter 21

******************************************************************************
Init Cost =  -3.5630e+00    New Cost =  -3.5676e+00  Delta Cost =  -4.5499e-03
******************************************************************************

The new set of parameters is valid. Updating the trial wave function!

*****************************************************************************
Applying the update for shift_i =   1.0000e-02     and shift_s =   2.5000e-01
*****************************************************************************
  Execution time = 5.1634e+00
  </log>
  <optVariables href="Si.log.s001.opt.xml">
uu_0 7.3216e-01 1 1  ON 0
uu_1 5.4852e-01 1 1  ON 1
uu_2 3.8904e-01 1 1  ON 2
uu_3 2.6314e-01 1 1  ON 3
uu_4 1.6361e-01 1 1  ON 4
uu_5 8.3596e-02 1 1  ON 5
uu_6 1.9678e-02 1 1  ON 6
uu_7 -2.5370e-02 1 1  ON 7
uu_8 -5.0206e-02 1 1  ON 8
uu_9 -5.9648e-02 1 1  ON 9
ud_0 1.1339e+00 1 1  ON 10
ud_1 7.6510e-01 1 1  ON 11
ud_2 5.0889e-01 1 1  ON 12
ud_3 3.1610e-01 1 1  ON 13
ud_4 1.7234e-01 1 1  ON 14
ud_5 5.9631e-02 1 1  ON 15
ud_6 -2.5234e-02 1 1  ON 16
ud_7 -8.3664e-02 1 1  ON 17
ud_8 -1.1359e-01 1 1  ON 18
ud_9 -1.2523e-01 1 1  ON 19
eSi_0 -7.8907e-01 1 1  ON 20
eSi_1 -6.7104e-01 1 1  ON 21
eSi_2 -5.2698e-01 1 1  ON 22
eSi_3 -2.9377e-01 1 1  ON 23
eSi_4 -3.4968e-02 1 1  ON 24
eSi_5 1.7222e-01 1 1  ON 25
eSi_6 3.2728e-01 1 1  ON 26
eSi_7 4.3457e-01 1 1  ON 27
eSi_8 4.4215e-01 1 1  ON 28
eSi_9 3.8955e-01 1 1  ON 29
uuSi_0 -7.8074e-07 1 1  ON 30
uuSi_1 -2.7587e-05 1 1  ON 31
uuSi_2 -6.3751e-05 1 1  ON 32
uuSi_3 6.2244e-05 1 1  ON 33
uuSi_4 2.3000e-05 1 1  ON 34
uuSi_5 3.0027e-07 1 1  ON 35
uuSi_6 -4.3146e-05 1 1  ON 36
uuSi_7 7.9425e-06 1 1  ON 37
uuSi_8 -1.0607e-04 1 1  ON 38
uuSi_9 3.2978e-05 1 1  ON 39
uuSi_10 2.9220e-05 1 1  ON 40
uuSi_11 5.2375e-05 1 1  ON 41
uuSi_12 3.0777e-05 1 1  ON 42
uuSi_13 -9.0734e-05 1 1  ON 43
uuSi_14 -2.7268e-05 1 1  ON 44
uuSi_15 -3.6105e-07 1 1  ON 45
uuSi_16 1.3503e-05 1 1  ON 46
uuSi_17 -8.2604e-05 1 1  ON 47
uuSi_18 -1.1444e-05 1 1  ON 48
uuSi_19 -1.1499e-05 1 1  ON 49
uuSi_20 2.8685e-05 1 1  ON 50
uuSi_21 5.5834e-06 1 1  ON 51
uuSi_22 5.7317e-07 1 1  ON 52
uuSi_23 -6.5010e-06 1 1  ON 53
uuSi_24 -4.9512e-07 1 1  ON 54
uuSi_25 -5.7139e-08 1 1  ON 55
udSi_0 1.7059e-05 1 1  ON 56
udSi_1 7.7394e-05 1 1  ON 57
udSi_2 -8.7907e-05 1 1  ON 58
udSi_3 8.0126e-05 1 1  ON 59
udSi_4 3.3643e-05 1 1  ON 60
udSi_5 -8.2265e-06 1 1  ON 61
udSi_6 1.4812e-04 1 1  ON 62
udSi_7 -7.8462e-05 1 1  ON 63
udSi_8 -1.8613e-04 1 1  ON 64
udSi_9 -1.3146e-04 1 1  ON 65
udSi_10 2.2760e-05 1 1  ON 66
udSi_11 1.3845e-04 1 1  ON 67
udSi_12 5.4008e-05 1 1  ON 68
udSi_13 -8.8280e-05 1 1  ON 69
udSi_14 -5.3103e-05 1 1  ON 70
udSi_15 -2.5412e-07 1 1  ON 71
udSi_16 1.8408e-04 1 1  ON 72
udSi_17 -1.0525e-04 1 1  ON 73
udSi_18 -7.4297e-05 1 1  ON 74
udSi_19 -1.5383e-05 1 1  ON 75
udSi_20 5.2861e-06 1 1  ON 76
udSi_21 2.0338e-05 1 1  ON 77
udSi_22 -4.4472e-07 1 1  ON 78
udSi_23 -1.9605e-06 1 1  ON 79
udSi_24 -3.2412e-06 1 1  ON 80
udSi_25 2.9741e-07 1 1  ON 81
  </optVariables>
   Restore the number of walkers to 1, removing 0 walkers.
</opt>
</optimization-report>
  QMC Execution time = 5.1797e+00 secs 
  Reusing QMCFixedSampleLinearOptimize
 Using QMCCostFunction::QMCCostFunction

=========================================================
  Start QMCFixedSampleLinearOptimize
  File Root Si.log.s002 append = no 
=========================================================
  Skip QMCDriver::putQMCInfo 
  Resetting Properties of the walkers 1 x 13

=========================================================
  Start VMC
  File Root Si.log.s002 append = no 
=========================================================
Using existing walkers 
  Resetting Properties of the walkers 1 x 13

<vmc function="put">
  qmc_counter=1  my_counter=1
  time step      = 1.5000e-01
  blocks         = 300
  steps          = 2
  substeps       = 5
  current        = 0
  target samples = 5.1200e+05
  walkers/mpi    = 1

  stepsbetweensamples = 1
<parameter name="blocks" condition="int">300</parameter>
<parameter name="blocks_between_recompute" condition="int">0</parameter>
<parameter name="check_properties" condition="int">100</parameter>
<parameter name="checkproperties" condition="int">100</parameter>
<parameter name="current" condition="int">0</parameter>
<parameter name="dmcwalkersperthread" condition="real">5.0000e+02</parameter>
<parameter name="maxcpusecs" condition="real">3.6000e+05</parameter>
<parameter name="record_configs" condition="int">0</parameter>
<parameter name="record_walkers" condition="int">1</parameter>
<parameter name="recordconfigs" condition="int">0</parameter>
<parameter name="recordwalkers" condition="int">1</parameter>
<parameter name="rewind" condition="int">0</parameter>
<parameter name="samples" condition="real">5.1200e+05</parameter>
<parameter name="samplesperthread" condition="real">5.0000e+02</parameter>
<parameter name="steps" condition="int">2</parameter>
<parameter name="stepsbetweensamples" condition="int">1</parameter>
<parameter name="store_configs" condition="int">0</parameter>
<parameter name="storeconfigs" condition="int">0</parameter>
<parameter name="sub_steps" condition="int">5</parameter>
<parameter name="substeps" condition="int">5</parameter>
<parameter name="tau" condition="au">1.5000e-01</parameter>
<parameter name="time_step" condition="au">1.5000e-01</parameter>
<parameter name="timestep" condition="au">1.5000e-01</parameter>
<parameter name="use_drift" condition="string">no</parameter>
<parameter name="usedrift" condition="string">no</parameter>
<parameter name="walkers" condition="int">1</parameter>
<parameter name="warmup_steps" condition="int">0</parameter>
<parameter name="warmupsteps" condition="int">0</parameter>
  DumpConfig==false Nothing (configurations, state) will be saved.
  Walker Samples are dumped every 1 steps.
</vmc>
  EstimatorManagerBase::add replace LocalEnergy estimator.
  EstimatorManagerBase::add replace LocalEnergy estimator.
<optimization-report>
<vmc stage="main" blocks="300">
  Cannot make clones again. Use existing 1 clones
  Initial partition of walkers 0 1 
  Using Particle by Particle moves
  Walker moves without drift
  Total Sample Size   =512000
  Walker distribution on root = 0 1 
  Using Locality Approximation
===== Memory Usage after the buffer registration =====
Available memory on node 0, free + buffers : 83286 MB
Memory footprint by rank 0 on node 0       : 92 MB
==================================================
====================================================
  SimpleFixedNodeBranch::finalize after a VMC block
    QMC counter        = 2
    time step          = 0.15
    reference energy   = -3.76047
    reference variance = 0.0108177
====================================================
  Execution time = 2.7373e+00
</vmc>
<opt stage="setup">
  <log>
   Reading configurations from h5FileRoot Si.log.s002
  QMCCostFunction is created with 1 threads.
  Using Nonlocal PP in Opt: NonLocalECP
   Number of samples loaded to each thread : 500 
  VMC Eavg = -3.7557e+00
  VMC Evar = 1.3361e-02
  Total weights = 5.1200e+05
  Execution time = 9.9556e-01
  </log>
</opt>
<opt stage="main" walkers="512000">
  <log>

*****************************************
Building overlap and Hamiltonian matrices
*****************************************

Among totally 82 optimized parameters, largest LM parameter change : 2.0832e-02 at parameter 23

******************************************************************************
Init Cost =  -3.5672e+00    New Cost =  -3.5682e+00  Delta Cost =  -1.0096e-03
******************************************************************************

The new set of parameters is valid. Updating the trial wave function!

*****************************************************************************
Applying the update for shift_i =   1.0000e-02     and shift_s =   6.2500e-02
*****************************************************************************
  Execution time = 4.8129e+00
  </log>
  <optVariables href="Si.log.s002.opt.xml">
uu_0 7.3206e-01 1 1  ON 0
uu_1 5.3651e-01 1 1  ON 1
uu_2 3.8468e-01 1 1  ON 2
uu_3 2.6248e-01 1 1  ON 3
uu_4 1.6732e-01 1 1  ON 4
uu_5 9.0518e-02 1 1  ON 5
uu_6 2.7794e-02 1 1  ON 6
uu_7 -1.5603e-02 1 1  ON 7
uu_8 -4.0555e-02 1 1  ON 8
uu_9 -5.2445e-02 1 1  ON 9
ud_0 1.1390e+00 1 1  ON 10
ud_1 7.7308e-01 1 1  ON 11
ud_2 5.2562e-01 1 1  ON 12
ud_3 3.3468e-01 1 1  ON 13
ud_4 1.9050e-01 1 1  ON 14
ud_5 7.2099e-02 1 1  ON 15
ud_6 -1.9271e-02 1 1  ON 16
ud_7 -8.0207e-02 1 1  ON 17
ud_8 -1.1199e-01 1 1  ON 18
ud_9 -1.2455e-01 1 1  ON 19
eSi_0 -7.7798e-01 1 1  ON 20
eSi_1 -6.5194e-01 1 1  ON 21
eSi_2 -5.3497e-01 1 1  ON 22
eSi_3 -3.1460e-01 1 1  ON 23
eSi_4 -4.8427e-02 1 1  ON 24
eSi_5 1.5780e-01 1 1  ON 25
eSi_6 3.1419e-01 1 1  ON 26
eSi_7 4.2541e-01 1 1  ON 27
eSi_8 4.3559e-01 1 1  ON 28
eSi_9 3.9076e-01 1 1  ON 29
uuSi_0 -1.5679e-05 1 1  ON 30
uuSi_1 -3.4699e-05 1 1  ON 31
uuSi_2 -5.8347e-05 1 1  ON 32
uuSi_3 1.1221e-04 1 1  ON 33
uuSi_4 3.2624e-05 1 1  ON 34
uuSi_5 1.7444e-06 1 1  ON 35
uuSi_6 -1.0158e-05 1 1  ON 36
uuSi_7 1.8255e-05 1 1  ON 37
uuSi_8 -1.3998e-04 1 1  ON 38
uuSi_9 1.2629e-05 1 1  ON 39
uuSi_10 5.9551e-05 1 1  ON 40
uuSi_11 4.2729e-05 1 1  ON 41
uuSi_12 4.4540e-05 1 1  ON 42
uuSi_13 -1.5411e-04 1 1  ON 43
uuSi_14 -4.1090e-05 1 1  ON 44
uuSi_15 -3.4819e-07 1 1  ON 45
uuSi_16 8.0533e-05 1 1  ON 46
uuSi_17 -1.6928e-04 1 1  ON 47
uuSi_18 1.3483e-05 1 1  ON 48
uuSi_19 -1.8907e-05 1 1  ON 49
uuSi_20 4.0934e-05 1 1  ON 50
uuSi_21 5.6511e-06 1 1  ON 51
uuSi_22 1.0853e-06 1 1  ON 52
uuSi_23 -9.6122e-06 1 1  ON 53
uuSi_24 -3.9038e-07 1 1  ON 54
uuSi_25 -1.2043e-07 1 1  ON 55
udSi_0 -1.0612e-05 1 1  ON 56
udSi_1 7.2702e-05 1 1  ON 57
udSi_2 -1.1450e-04 1 1  ON 58
udSi_3 1.5708e-04 1 1  ON 59
udSi_4 5.3095e-05 1 1  ON 60
udSi_5 -1.0258e-05 1 1  ON 61
udSi_6 1.9514e-04 1 1  ON 62
udSi_7 -6.6865e-05 1 1  ON 63
udSi_8 -2.8528e-04 1 1  ON 64
udSi_9 -1.4800e-04 1 1  ON 65
udSi_10 5.8191e-05 1 1  ON 66
udSi_11 1.7855e-04 1 1  ON 67
udSi_12 8.5569e-05 1 1  ON 68
udSi_13 -1.9593e-04 1 1  ON 69
udSi_14 -8.3585e-05 1 1  ON 70
udSi_15 -4.3256e-07 1 1  ON 71
udSi_16 2.5240e-04 1 1  ON 72
udSi_17 -2.2003e-04 1 1  ON 73
udSi_18 -8.3169e-05 1 1  ON 74
udSi_19 -2.6495e-05 1 1  ON 75
udSi_20 3.7978e-05 1 1  ON 76
udSi_21 2.7598e-05 1 1  ON 77
udSi_22 -2.6506e-07 1 1  ON 78
udSi_23 -1.1569e-05 1 1  ON 79
udSi_24 -4.0487e-06 1 1  ON 80
udSi_25 3.5050e-07 1 1  ON 81
  </optVariables>
   Restore the number of walkers to 1, removing 0 walkers.
</opt>
</optimization-report>
  QMC Execution time = 4.8289e+00 secs 
  Reusing QMCFixedSampleLinearOptimize
 Using QMCCostFunction::QMCCostFunction

=========================================================
  Start QMCFixedSampleLinearOptimize
  File Root Si.log.s003 append = no 
=========================================================
  Skip QMCDriver::putQMCInfo 
  Resetting Properties of the walkers 1 x 13

=========================================================
  Start VMC
  File Root Si.log.s003 append = no 
=========================================================
Using existing walkers 
  Resetting Properties of the walkers 1 x 13

<vmc function="put">
  qmc_counter=2  my_counter=2
  time step      = 1.5000e-01
  blocks         = 300
  steps          = 2
  substeps       = 5
  current        = 0
  target samples = 5.1200e+05
  walkers/mpi    = 1

  stepsbetweensamples = 1
<parameter name="blocks" condition="int">300</parameter>
<parameter name="blocks_between_recompute" condition="int">0</parameter>
<parameter name="check_properties" condition="int">100</parameter>
<parameter name="checkproperties" condition="int">100</parameter>
<parameter name="current" condition="int">0</parameter>
<parameter name="dmcwalkersperthread" condition="real">5.0000e+02</parameter>
<parameter name="maxcpusecs" condition="real">3.6000e+05</parameter>
<parameter name="record_configs" condition="int">0</parameter>
<parameter name="record_walkers" condition="int">1</parameter>
<parameter name="recordconfigs" condition="int">0</parameter>
<parameter name="recordwalkers" condition="int">1</parameter>
<parameter name="rewind" condition="int">0</parameter>
<parameter name="samples" condition="real">5.1200e+05</parameter>
<parameter name="samplesperthread" condition="real">5.0000e+02</parameter>
<parameter name="steps" condition="int">2</parameter>
<parameter name="stepsbetweensamples" condition="int">1</parameter>
<parameter name="store_configs" condition="int">0</parameter>
<parameter name="storeconfigs" condition="int">0</parameter>
<parameter name="sub_steps" condition="int">5</parameter>
<parameter name="substeps" condition="int">5</parameter>
<parameter name="tau" condition="au">1.5000e-01</parameter>
<parameter name="time_step" condition="au">1.5000e-01</parameter>
<parameter name="timestep" condition="au">1.5000e-01</parameter>
<parameter name="use_drift" condition="string">no</parameter>
<parameter name="usedrift" condition="string">no</parameter>
<parameter name="walkers" condition="int">1</parameter>
<parameter name="warmup_steps" condition="int">0</parameter>
<parameter name="warmupsteps" condition="int">0</parameter>
  DumpConfig==false Nothing (configurations, state) will be saved.
  Walker Samples are dumped every 1 steps.
</vmc>
  EstimatorManagerBase::add replace LocalEnergy estimator.
  EstimatorManagerBase::add replace LocalEnergy estimator.
<optimization-report>
<vmc stage="main" blocks="300">
  Cannot make clones again. Use existing 1 clones
  Initial partition of walkers 0 1 
  Using Particle by Particle moves
  Walker moves without drift
  Total Sample Size   =512000
  Walker distribution on root = 0 1 
  Using Locality Approximation
===== Memory Usage after the buffer registration =====
Available memory on node 0, free + buffers : 83284 MB
Memory footprint by rank 0 on node 0       : 94 MB
==================================================
====================================================
  SimpleFixedNodeBranch::finalize after a VMC block
    QMC counter        = 3
    time step          = 0.15
    reference energy   = -3.75271
    reference variance = 0.0104254
====================================================
  Execution time = 2.7760e+00
</vmc>
<opt stage="setup">
  <log>
   Reading configurations from h5FileRoot Si.log.s003
  QMCCostFunction is created with 1 threads.
  Using Nonlocal PP in Opt: NonLocalECP
   Number of samples loaded to each thread : 500 
  VMC Eavg = -3.7563e+00
  VMC Evar = 1.2202e-02
  Total weights = 5.1200e+05
  Execution time = 1.0958e+00
  </log>
</opt>
<opt stage="main" walkers="512000">
  <log>

*****************************************
Building overlap and Hamiltonian matrices
*****************************************

Among totally 82 optimized parameters, largest LM parameter change : 1.2959e-02 at parameter 25

******************************************************************************
Init Cost =  -3.5679e+00    New Cost =  -3.5680e+00  Delta Cost =  -1.2872e-04
******************************************************************************

The new set of parameters is valid. Updating the trial wave function!

*****************************************************************************
Applying the update for shift_i =   1.0000e-02     and shift_s =   1.5625e-02
*****************************************************************************
  Execution time = 5.0103e+00
  </log>
  <optVariables href="Si.log.s003.opt.xml">
uu_0 7.3103e-01 1 1  ON 0
uu_1 5.2859e-01 1 1  ON 1
uu_2 3.8302e-01 1 1  ON 2
uu_3 2.6400e-01 1 1  ON 3
uu_4 1.7132e-01 1 1  ON 4
uu_5 9.5761e-02 1 1  ON 5
uu_6 3.3982e-02 1 1  ON 6
uu_7 -8.7253e-03 1 1  ON 7
uu_8 -3.4042e-02 1 1  ON 8
uu_9 -4.6722e-02 1 1  ON 9
ud_0 1.1466e+00 1 1  ON 10
ud_1 7.8387e-01 1 1  ON 11
ud_2 5.3818e-01 1 1  ON 12
ud_3 3.4749e-01 1 1  ON 13
ud_4 2.0293e-01 1 1  ON 14
ud_5 8.1548e-02 1 1  ON 15
ud_6 -1.3205e-02 1 1  ON 16
ud_7 -7.5440e-02 1 1  ON 17
ud_8 -1.0731e-01 1 1  ON 18
ud_9 -1.1926e-01 1 1  ON 19
eSi_0 -7.6848e-01 1 1  ON 20
eSi_1 -6.4637e-01 1 1  ON 21
eSi_2 -5.4072e-01 1 1  ON 22
eSi_3 -3.2641e-01 1 1  ON 23
eSi_4 -5.8757e-02 1 1  ON 24
eSi_5 1.4484e-01 1 1  ON 25
eSi_6 3.0144e-01 1 1  ON 26
eSi_7 4.1615e-01 1 1  ON 27
eSi_8 4.3153e-01 1 1  ON 28
eSi_9 3.9343e-01 1 1  ON 29
uuSi_0 -1.5516e-05 1 1  ON 30
uuSi_1 1.4649e-06 1 1  ON 31
uuSi_2 -5.4427e-05 1 1  ON 32
uuSi_3 1.0950e-04 1 1  ON 33
uuSi_4 3.2661e-05 1 1  ON 34
uuSi_5 -5.9117e-07 1 1  ON 35
uuSi_6 4.2663e-05 1 1  ON 36
uuSi_7 1.1419e-06 1 1  ON 37
uuSi_8 -1.4469e-04 1 1  ON 38
uuSi_9 -2.0545e-05 1 1  ON 39
uuSi_10 5.5123e-05 1 1  ON 40
uuSi_11 5.2117e-05 1 1  ON 41
uuSi_12 4.6418e-05 1 1  ON 42
uuSi_13 -1.5538e-04 1 1  ON 43
uuSi_14 -4.4309e-05 1 1  ON 44
uuSi_15 -2.6590e-07 1 1  ON 45
uuSi_16 1.0876e-04 1 1  ON 46
uuSi_17 -1.7522e-04 1 1  ON 47
uuSi_18 7.3368e-06 1 1  ON 48
uuSi_19 -1.9408e-05 1 1  ON 49
uuSi_20 4.0554e-05 1 1  ON 50
uuSi_21 7.2442e-06 1 1  ON 51
uuSi_22 1.0039e-06 1 1  ON 52
uuSi_23 -1.0070e-05 1 1  ON 53
uuSi_24 -6.3994e-07 1 1  ON 54
uuSi_25 -9.5276e-08 1 1  ON 55
udSi_0 -2.9229e-05 1 1  ON 56
udSi_1 8.4855e-05 1 1  ON 57
udSi_2 -1.1410e-04 1 1  ON 58
udSi_3 1.8674e-04 1 1  ON 59
udSi_4 5.8084e-05 1 1  ON 60
udSi_5 -1.1891e-05 1 1  ON 61
udSi_6 2.4785e-04 1 1  ON 62
udSi_7 -6.7559e-05 1 1  ON 63
udSi_8 -3.1969e-04 1 1  ON 64
udSi_9 -1.7051e-04 1 1  ON 65
udSi_10 6.8721e-05 1 1  ON 66
udSi_11 1.9567e-04 1 1  ON 67
udSi_12 9.6436e-05 1 1  ON 68
udSi_13 -2.3915e-04 1 1  ON 69
udSi_14 -9.5454e-05 1 1  ON 70
udSi_15 -4.0215e-07 1 1  ON 71
udSi_16 2.9436e-04 1 1  ON 72
udSi_17 -2.6654e-04 1 1  ON 73
udSi_18 -8.9806e-05 1 1  ON 74
udSi_19 -2.9903e-05 1 1  ON 75
udSi_20 5.0039e-05 1 1  ON 76
udSi_21 3.1044e-05 1 1  ON 77
udSi_22 -3.3021e-07 1 1  ON 78
udSi_23 -1.5397e-05 1 1  ON 79
udSi_24 -4.4917e-06 1 1  ON 80
udSi_25 3.9536e-07 1 1  ON 81
  </optVariables>
   Restore the number of walkers to 1, removing 0 walkers.
</opt>
</optimization-report>
  QMC Execution time = 5.0253e+00 secs 
  Reusing QMCFixedSampleLinearOptimize
 Using QMCCostFunction::QMCCostFunction

=========================================================
  Start QMCFixedSampleLinearOptimize
  File Root Si.log.s004 append = no 
=========================================================
  Skip QMCDriver::putQMCInfo 
  Resetting Properties of the walkers 1 x 13

=========================================================
  Start VMC
  File Root Si.log.s004 append = no 
=========================================================
Using existing walkers 
  Resetting Properties of the walkers 1 x 13

<vmc function="put">
  qmc_counter=3  my_counter=3
  time step      = 1.5000e-01
  blocks         = 300
  steps          = 2
  substeps       = 5
  current        = 0
  target samples = 5.1200e+05
  walkers/mpi    = 1

  stepsbetweensamples = 1
<parameter name="blocks" condition="int">300</parameter>
<parameter name="blocks_between_recompute" condition="int">0</parameter>
<parameter name="check_properties" condition="int">100</parameter>
<parameter name="checkproperties" condition="int">100</parameter>
<parameter name="current" condition="int">0</parameter>
<parameter name="dmcwalkersperthread" condition="real">5.0000e+02</parameter>
<parameter name="maxcpusecs" condition="real">3.6000e+05</parameter>
<parameter name="record_configs" condition="int">0</parameter>
<parameter name="record_walkers" condition="int">1</parameter>
<parameter name="recordconfigs" condition="int">0</parameter>
<parameter name="recordwalkers" condition="int">1</parameter>
<parameter name="rewind" condition="int">0</parameter>
<parameter name="samples" condition="real">5.1200e+05</parameter>
<parameter name="samplesperthread" condition="real">5.0000e+02</parameter>
<parameter name="steps" condition="int">2</parameter>
<parameter name="stepsbetweensamples" condition="int">1</parameter>
<parameter name="store_configs" condition="int">0</parameter>
<parameter name="storeconfigs" condition="int">0</parameter>
<parameter name="sub_steps" condition="int">5</parameter>
<parameter name="substeps" condition="int">5</parameter>
<parameter name="tau" condition="au">1.5000e-01</parameter>
<parameter name="time_step" condition="au">1.5000e-01</parameter>
<parameter name="timestep" condition="au">1.5000e-01</parameter>
<parameter name="use_drift" condition="string">no</parameter>
<parameter name="usedrift" condition="string">no</parameter>
<parameter name="walkers" condition="int">1</parameter>
<parameter name="warmup_steps" condition="int">0</parameter>
<parameter name="warmupsteps" condition="int">0</parameter>
  DumpConfig==false Nothing (configurations, state) will be saved.
  Walker Samples are dumped every 1 steps.
</vmc>
  EstimatorManagerBase::add replace LocalEnergy estimator.
  EstimatorManagerBase::add replace LocalEnergy estimator.
<optimization-report>
<vmc stage="main" blocks="300">
  Cannot make clones again. Use existing 1 clones
  Initial partition of walkers 0 1 
  Using Particle by Particle moves
  Walker moves without drift
  Total Sample Size   =512000
  Walker distribution on root = 0 1 
  Using Locality Approximation
===== Memory Usage after the buffer registration =====
Available memory on node 0, free + buffers : 83281 MB
Memory footprint by rank 0 on node 0       : 97 MB
==================================================
====================================================
  SimpleFixedNodeBranch::finalize after a VMC block
    QMC counter        = 4
    time step          = 0.15
    reference energy   = -3.75148
    reference variance = 0.0137764
====================================================
  Execution time = 2.8143e+00
</vmc>
<opt stage="setup">
  <log>
   Reading configurations from h5FileRoot Si.log.s004
  QMCCostFunction is created with 1 threads.
  Using Nonlocal PP in Opt: NonLocalECP
   Number of samples loaded to each thread : 500 
  VMC Eavg = -3.7570e+00
  VMC Evar = 1.3406e-02
  Total weights = 5.1200e+05
  Execution time = 9.5463e-01
  </log>
</opt>
<opt stage="main" walkers="512000">
  <log>

*****************************************
Building overlap and Hamiltonian matrices
*****************************************

Among totally 82 optimized parameters, largest LM parameter change : 1.1942e-02 at parameter 25

******************************************************************************
Init Cost =  -3.5685e+00    New Cost =  -3.5686e+00  Delta Cost =  -4.0056e-05
******************************************************************************

The new set of parameters is valid. Updating the trial wave function!

*****************************************************************************
Applying the update for shift_i =   1.0000e-02     and shift_s =   3.9062e-03
*****************************************************************************
  Execution time = 4.8023e+00
  </log>
  <optVariables href="Si.log.s004.opt.xml">
uu_0 7.2944e-01 1 1  ON 0
uu_1 5.2446e-01 1 1  ON 1
uu_2 3.8215e-01 1 1  ON 2
uu_3 2.6514e-01 1 1  ON 3
uu_4 1.7384e-01 1 1  ON 4
uu_5 9.8413e-02 1 1  ON 5
uu_6 3.6530e-02 1 1  ON 6
uu_7 -5.9027e-03 1 1  ON 7
uu_8 -3.0898e-02 1 1  ON 8
uu_9 -4.3352e-02 1 1  ON 9
ud_0 1.1566e+00 1 1  ON 10
ud_1 7.9417e-01 1 1  ON 11
ud_2 5.4848e-01 1 1  ON 12
ud_3 3.5736e-01 1 1  ON 13
ud_4 2.1280e-01 1 1  ON 14
ud_5 9.0273e-02 1 1  ON 15
ud_6 -5.5533e-03 1 1  ON 16
ud_7 -6.8868e-02 1 1  ON 17
ud_8 -1.0261e-01 1 1  ON 18
ud_9 -1.1546e-01 1 1  ON 19
eSi_0 -7.6112e-01 1 1  ON 20
eSi_1 -6.4701e-01 1 1  ON 21
eSi_2 -5.4717e-01 1 1  ON 22
eSi_3 -3.3338e-01 1 1  ON 23
eSi_4 -6.6917e-02 1 1  ON 24
eSi_5 1.3290e-01 1 1  ON 25
eSi_6 2.9005e-01 1 1  ON 26
eSi_7 4.0640e-01 1 1  ON 27
eSi_8 4.2427e-01 1 1  ON 28
eSi_9 3.9329e-01 1 1  ON 29
uuSi_0 -2.4381e-05 1 1  ON 30
uuSi_1 -4.7882e-06 1 1  ON 31
uuSi_2 -4.0683e-05 1 1  ON 32
uuSi_3 1.2288e-04 1 1  ON 33
uuSi_4 3.1731e-05 1 1  ON 34
uuSi_5 1.0223e-06 1 1  ON 35
uuSi_6 5.0821e-05 1 1  ON 36
uuSi_7 2.4825e-05 1 1  ON 37
uuSi_8 -1.3642e-04 1 1  ON 38
uuSi_9 -2.9094e-05 1 1  ON 39
uuSi_10 6.3177e-05 1 1  ON 40
uuSi_11 3.2344e-05 1 1  ON 41
uuSi_12 4.5885e-05 1 1  ON 42
uuSi_13 -1.6699e-04 1 1  ON 43
uuSi_14 -4.3048e-05 1 1  ON 44
uuSi_15 -3.4156e-07 1 1  ON 45
uuSi_16 1.2700e-04 1 1  ON 46
uuSi_17 -1.9110e-04 1 1  ON 47
uuSi_18 1.9659e-05 1 1  ON 48
uuSi_19 -2.0256e-05 1 1  ON 49
uuSi_20 4.1309e-05 1 1  ON 50
uuSi_21 6.0355e-06 1 1  ON 51
uuSi_22 1.1727e-06 1 1  ON 52
uuSi_23 -1.0106e-05 1 1  ON 53
uuSi_24 -5.2563e-07 1 1  ON 54
uuSi_25 -1.2291e-07 1 1  ON 55
udSi_0 -3.9586e-05 1 1  ON 56
udSi_1 6.9378e-05 1 1  ON 57
udSi_2 -1.0397e-04 1 1  ON 58
udSi_3 2.1152e-04 1 1  ON 59
udSi_4 6.1040e-05 1 1  ON 60
udSi_5 -9.3910e-06 1 1  ON 61
udSi_6 2.4570e-04 1 1  ON 62
udSi_7 -3.1391e-05 1 1  ON 63
udSi_8 -3.2488e-04 1 1  ON 64
udSi_9 -1.7614e-04 1 1  ON 65
udSi_10 8.5667e-05 1 1  ON 66
udSi_11 1.7322e-04 1 1  ON 67
udSi_12 1.0154e-04 1 1  ON 68
udSi_13 -2.6896e-04 1 1  ON 69
udSi_14 -9.8970e-05 1 1  ON 70
udSi_15 -5.3636e-07 1 1  ON 71
udSi_16 3.2194e-04 1 1  ON 72
udSi_17 -3.0633e-04 1 1  ON 73
udSi_18 -7.1016e-05 1 1  ON 74
udSi_19 -3.3594e-05 1 1  ON 75
udSi_20 5.6697e-05 1 1  ON 76
udSi_21 3.0121e-05 1 1  ON 77
udSi_22 3.4542e-09 1 1  ON 78
udSi_23 -1.7444e-05 1 1  ON 79
udSi_24 -4.3312e-06 1 1  ON 80
udSi_25 3.5237e-07 1 1  ON 81
  </optVariables>
   Restore the number of walkers to 1, removing 0 walkers.
</opt>
</optimization-report>
  QMC Execution time = 4.8183e+00 secs 
  Reusing QMCFixedSampleLinearOptimize
 Using QMCCostFunction::QMCCostFunction

=========================================================
  Start QMCFixedSampleLinearOptimize
  File Root Si.log.s005 append = no 
=========================================================
  Skip QMCDriver::putQMCInfo 
  Resetting Properties of the walkers 1 x 13

=========================================================
  Start VMC
  File Root Si.log.s005 append = no 
=========================================================
Using existing walkers 
  Resetting Properties of the walkers 1 x 13

<vmc function="put">
  qmc_counter=4  my_counter=4
  time step      = 1.5000e-01
  blocks         = 300
  steps          = 2
  substeps       = 5
  current        = 0
  target samples = 5.1200e+05
  walkers/mpi    = 1

  stepsbetweensamples = 1
<parameter name="blocks" condition="int">300</parameter>
<parameter name="blocks_between_recompute" condition="int">0</parameter>
<parameter name="check_properties" condition="int">100</parameter>
<parameter name="checkproperties" condition="int">100</parameter>
<parameter name="current" condition="int">0</parameter>
<parameter name="dmcwalkersperthread" condition="real">5.0000e+02</parameter>
<parameter name="maxcpusecs" condition="real">3.6000e+05</parameter>
<parameter name="record_configs" condition="int">0</parameter>
<parameter name="record_walkers" condition="int">1</parameter>
<parameter name="recordconfigs" condition="int">0</parameter>
<parameter name="recordwalkers" condition="int">1</parameter>
<parameter name="rewind" condition="int">0</parameter>
<parameter name="samples" condition="real">5.1200e+05</parameter>
<parameter name="samplesperthread" condition="real">5.0000e+02</parameter>
<parameter name="steps" condition="int">2</parameter>
<parameter name="stepsbetweensamples" condition="int">1</parameter>
<parameter name="store_configs" condition="int">0</parameter>
<parameter name="storeconfigs" condition="int">0</parameter>
<parameter name="sub_steps" condition="int">5</parameter>
<parameter name="substeps" condition="int">5</parameter>
<parameter name="tau" condition="au">1.5000e-01</parameter>
<parameter name="time_step" condition="au">1.5000e-01</parameter>
<parameter name="timestep" condition="au">1.5000e-01</parameter>
<parameter name="use_drift" condition="string">no</parameter>
<parameter name="usedrift" condition="string">no</parameter>
<parameter name="walkers" condition="int">1</parameter>
<parameter name="warmup_steps" condition="int">0</parameter>
<parameter name="warmupsteps" condition="int">0</parameter>
  DumpConfig==false Nothing (configurations, state) will be saved.
  Walker Samples are dumped every 1 steps.
</vmc>
  EstimatorManagerBase::add replace LocalEnergy estimator.
  EstimatorManagerBase::add replace LocalEnergy estimator.
<optimization-report>
<vmc stage="main" blocks="300">
  Cannot make clones again. Use existing 1 clones
  Initial partition of walkers 0 1 
  Using Particle by Particle moves
  Walker moves without drift
  Total Sample Size   =512000
  Walker distribution on root = 0 1 
  Using Locality Approximation
===== Memory Usage after the buffer registration =====
Available memory on node 0, free + buffers : 83279 MB
Memory footprint by rank 0 on node 0       : 99 MB
==================================================
====================================================
  SimpleFixedNodeBranch::finalize after a VMC block
    QMC counter        = 5
    time step          = 0.15
    reference energy   = -3.75338
    reference variance = 0.0119676
====================================================
  Execution time = 2.7182e+00
</vmc>
<opt stage="setup">
  <log>
   Reading configurations from h5FileRoot Si.log.s005
  QMCCostFunction is created with 1 threads.
  Using Nonlocal PP in Opt: NonLocalECP
   Number of samples loaded to each thread : 500 
  VMC Eavg = -3.7571e+00
  VMC Evar = 1.3978e-02
  Total weights = 5.1200e+05
  Execution time = 1.1217e+00
  </log>
</opt>
<opt stage="main" walkers="512000">
  <log>

*****************************************
Building overlap and Hamiltonian matrices
*****************************************

Among totally 82 optimized parameters, largest LM parameter change : 5.7919e+01 at parameter 20

******************************************************************************
Init Cost =  -3.5685e+00    New Cost =   1.9805e+01  Delta Cost =   2.3374e+01
******************************************************************************

The new set of parameters is not valid. Revert to the old set!

*****************************************************************************
Applying the update for shift_i =   1.0000e-02     and shift_s =   1.5625e-02
*****************************************************************************
  Execution time = 4.3129e+00
  </log>
  <optVariables href="Si.log.s005.opt.xml">
uu_0 7.2944e-01 1 1  ON 0
uu_1 5.2446e-01 1 1  ON 1
uu_2 3.8215e-01 1 1  ON 2
uu_3 2.6514e-01 1 1  ON 3
uu_4 1.7384e-01 1 1  ON 4
uu_5 9.8413e-02 1 1  ON 5
uu_6 3.6530e-02 1 1  ON 6
uu_7 -5.9027e-03 1 1  ON 7
uu_8 -3.0898e-02 1 1  ON 8
uu_9 -4.3352e-02 1 1  ON 9
ud_0 1.1566e+00 1 1  ON 10
ud_1 7.9417e-01 1 1  ON 11
ud_2 5.4848e-01 1 1  ON 12
ud_3 3.5736e-01 1 1  ON 13
ud_4 2.1280e-01 1 1  ON 14
ud_5 9.0273e-02 1 1  ON 15
ud_6 -5.5533e-03 1 1  ON 16
ud_7 -6.8868e-02 1 1  ON 17
ud_8 -1.0261e-01 1 1  ON 18
ud_9 -1.1546e-01 1 1  ON 19
eSi_0 -7.6112e-01 1 1  ON 20
eSi_1 -6.4701e-01 1 1  ON 21
eSi_2 -5.4717e-01 1 1  ON 22
eSi_3 -3.3338e-01 1 1  ON 23
eSi_4 -6.6917e-02 1 1  ON 24
eSi_5 1.3290e-01 1 1  ON 25
eSi_6 2.9005e-01 1 1  ON 26
eSi_7 4.0640e-01 1 1  ON 27
eSi_8 4.2427e-01 1 1  ON 28
eSi_9 3.9329e-01 1 1  ON 29
uuSi_0 -2.4381e-05 1 1  ON 30
uuSi_1 -4.7882e-06 1 1  ON 31
uuSi_2 -4.0683e-05 1 1  ON 32
uuSi_3 1.2288e-04 1 1  ON 33
uuSi_4 3.1731e-05 1 1  ON 34
uuSi_5 1.0223e-06 1 1  ON 35
uuSi_6 5.0821e-05 1 1  ON 36
uuSi_7 2.4825e-05 1 1  ON 37
uuSi_8 -1.3642e-04 1 1  ON 38
uuSi_9 -2.9094e-05 1 1  ON 39
uuSi_10 6.3177e-05 1 1  ON 40
uuSi_11 3.2344e-05 1 1  ON 41
uuSi_12 4.5885e-05 1 1  ON 42
uuSi_13 -1.6699e-04 1 1  ON 43
uuSi_14 -4.3048e-05 1 1  ON 44
uuSi_15 -3.4156e-07 1 1  ON 45
uuSi_16 1.2700e-04 1 1  ON 46
uuSi_17 -1.9110e-04 1 1  ON 47
uuSi_18 1.9659e-05 1 1  ON 48
uuSi_19 -2.0256e-05 1 1  ON 49
uuSi_20 4.1309e-05 1 1  ON 50
uuSi_21 6.0355e-06 1 1  ON 51
uuSi_22 1.1727e-06 1 1  ON 52
uuSi_23 -1.0106e-05 1 1  ON 53
uuSi_24 -5.2563e-07 1 1  ON 54
uuSi_25 -1.2291e-07 1 1  ON 55
udSi_0 -3.9586e-05 1 1  ON 56
udSi_1 6.9378e-05 1 1  ON 57
udSi_2 -1.0397e-04 1 1  ON 58
udSi_3 2.1152e-04 1 1  ON 59
udSi_4 6.1040e-05 1 1  ON 60
udSi_5 -9.3910e-06 1 1  ON 61
udSi_6 2.4570e-04 1 1  ON 62
udSi_7 -3.1391e-05 1 1  ON 63
udSi_8 -3.2488e-04 1 1  ON 64
udSi_9 -1.7614e-04 1 1  ON 65
udSi_10 8.5667e-05 1 1  ON 66
udSi_11 1.7322e-04 1 1  ON 67
udSi_12 1.0154e-04 1 1  ON 68
udSi_13 -2.6896e-04 1 1  ON 69
udSi_14 -9.8970e-05 1 1  ON 70
udSi_15 -5.3636e-07 1 1  ON 71
udSi_16 3.2194e-04 1 1  ON 72
udSi_17 -3.0633e-04 1 1  ON 73
udSi_18 -7.1016e-05 1 1  ON 74
udSi_19 -3.3594e-05 1 1  ON 75
udSi_20 5.6697e-05 1 1  ON 76
udSi_21 3.0121e-05 1 1  ON 77
udSi_22 3.4542e-09 1 1  ON 78
udSi_23 -1.7444e-05 1 1  ON 79
udSi_24 -4.3312e-06 1 1  ON 80
udSi_25 3.5237e-07 1 1  ON 81
  </optVariables>
   Restore the number of walkers to 1, removing 0 walkers.
</opt>
</optimization-report>
  QMC Execution time = 4.3283e+00 secs 
  Reusing QMCFixedSampleLinearOptimize
 Using QMCCostFunction::QMCCostFunction

=========================================================
  Start QMCFixedSampleLinearOptimize
  File Root Si.log.s006 append = no 
=========================================================
  Skip QMCDriver::putQMCInfo 
  Resetting Properties of the walkers 1 x 13

=========================================================
  Start VMC
  File Root Si.log.s006 append = no 
=========================================================
Using existing walkers 
  Resetting Properties of the walkers 1 x 13

<vmc function="put">
  qmc_counter=5  my_counter=5
  time step      = 1.5000e-01
  blocks         = 300
  steps          = 2
  substeps       = 5
  current        = 0
  target samples = 5.1200e+05
  walkers/mpi    = 1

  stepsbetweensamples = 1
<parameter name="blocks" condition="int">300</parameter>
<parameter name="blocks_between_recompute" condition="int">0</parameter>
<parameter name="check_properties" condition="int">100</parameter>
<parameter name="checkproperties" condition="int">100</parameter>
<parameter name="current" condition="int">0</parameter>
<parameter name="dmcwalkersperthread" condition="real">5.0000e+02</parameter>
<parameter name="maxcpusecs" condition="real">3.6000e+05</parameter>
<parameter name="record_configs" condition="int">0</parameter>
<parameter name="record_walkers" condition="int">1</parameter>
<parameter name="recordconfigs" condition="int">0</parameter>
<parameter name="recordwalkers" condition="int">1</parameter>
<parameter name="rewind" condition="int">0</parameter>
<parameter name="samples" condition="real">5.1200e+05</parameter>
<parameter name="samplesperthread" condition="real">5.0000e+02</parameter>
<parameter name="steps" condition="int">2</parameter>
<parameter name="stepsbetweensamples" condition="int">1</parameter>
<parameter name="store_configs" condition="int">0</parameter>
<parameter name="storeconfigs" condition="int">0</parameter>
<parameter name="sub_steps" condition="int">5</parameter>
<parameter name="substeps" condition="int">5</parameter>
<parameter name="tau" condition="au">1.5000e-01</parameter>
<parameter name="time_step" condition="au">1.5000e-01</parameter>
<parameter name="timestep" condition="au">1.5000e-01</parameter>
<parameter name="use_drift" condition="string">no</parameter>
<parameter name="usedrift" condition="string">no</parameter>
<parameter name="walkers" condition="int">1</parameter>
<parameter name="warmup_steps" condition="int">0</parameter>
<parameter name="warmupsteps" condition="int">0</parameter>
  DumpConfig==false Nothing (configurations, state) will be saved.
  Walker Samples are dumped every 1 steps.
</vmc>
  EstimatorManagerBase::add replace LocalEnergy estimator.
  EstimatorManagerBase::add replace LocalEnergy estimator.
<optimization-report>
<vmc stage="main" blocks="300">
  Cannot make clones again. Use existing 1 clones
  Initial partition of walkers 0 1 
  Using Particle by Particle moves
  Walker moves without drift
  Total Sample Size   =512000
  Walker distribution on root = 0 1 
  Using Locality Approximation
===== Memory Usage after the buffer registration =====
Available memory on node 0, free + buffers : 83276 MB
Memory footprint by rank 0 on node 0       : 101 MB
==================================================
====================================================
  SimpleFixedNodeBranch::finalize after a VMC block
    QMC counter        = 6
    time step          = 0.15
    reference energy   = -3.75688
    reference variance = 0.0084559
====================================================
  Execution time = 2.7665e+00
</vmc>
<opt stage="setup">
  <log>
   Reading configurations from h5FileRoot Si.log.s006
  QMCCostFunction is created with 1 threads.
  Using Nonlocal PP in Opt: NonLocalECP
   Number of samples loaded to each thread : 500 
  VMC Eavg = -3.7569e+00
  VMC Evar = 1.3193e-02
  Total weights = 5.1200e+05
  Execution time = 1.0546e+00
  </log>
</opt>
<opt stage="main" walkers="512000">
  <log>

*****************************************
Building overlap and Hamiltonian matrices
*****************************************

Among totally 82 optimized parameters, largest LM parameter change : 1.4354e-02 at parameter 25

******************************************************************************
Init Cost =  -3.5684e+00    New Cost =  -3.5685e+00  Delta Cost =  -2.3723e-05
******************************************************************************

The new set of parameters is valid. Updating the trial wave function!

*****************************************************************************
Applying the update for shift_i =   1.0000e-02     and shift_s =   3.9062e-03
*****************************************************************************
  Execution time = 4.9577e+00
  </log>
  <optVariables href="Si.log.s006.opt.xml">
uu_0 7.2815e-01 1 1  ON 0
uu_1 5.2235e-01 1 1  ON 1
uu_2 3.8089e-01 1 1  ON 2
uu_3 2.6432e-01 1 1  ON 3
uu_4 1.7338e-01 1 1  ON 4
uu_5 9.8299e-02 1 1  ON 5
uu_6 3.6270e-02 1 1  ON 6
uu_7 -6.0757e-03 1 1  ON 7
uu_8 -3.1111e-02 1 1  ON 8
uu_9 -4.2525e-02 1 1  ON 9
ud_0 1.1668e+00 1 1  ON 10
ud_1 8.0388e-01 1 1  ON 11
ud_2 5.5758e-01 1 1  ON 12
ud_3 3.6589e-01 1 1  ON 13
ud_4 2.2065e-01 1 1  ON 14
ud_5 9.7074e-02 1 1  ON 15
ud_6 7.3836e-05 1 1  ON 16
ud_7 -6.3182e-02 1 1  ON 17
ud_8 -9.7198e-02 1 1  ON 18
ud_9 -1.1059e-01 1 1  ON 19
eSi_0 -7.5582e-01 1 1  ON 20
eSi_1 -6.5175e-01 1 1  ON 21
eSi_2 -5.5347e-01 1 1  ON 22
eSi_3 -3.3889e-01 1 1  ON 23
eSi_4 -7.6428e-02 1 1  ON 24
eSi_5 1.1855e-01 1 1  ON 25
eSi_6 2.7887e-01 1 1  ON 26
eSi_7 3.9684e-01 1 1  ON 27
eSi_8 4.1749e-01 1 1  ON 28
eSi_9 3.9534e-01 1 1  ON 29
uuSi_0 -1.8531e-05 1 1  ON 30
uuSi_1 2.4556e-05 1 1  ON 31
uuSi_2 -3.5016e-05 1 1  ON 32
uuSi_3 1.1157e-04 1 1  ON 33
uuSi_4 2.9454e-05 1 1  ON 34
uuSi_5 -5.8225e-07 1 1  ON 35
uuSi_6 9.3307e-05 1 1  ON 36
uuSi_7 5.6777e-06 1 1  ON 37
uuSi_8 -1.3234e-04 1 1  ON 38
uuSi_9 -6.3449e-05 1 1  ON 39
uuSi_10 5.5484e-05 1 1  ON 40
uuSi_11 3.7398e-05 1 1  ON 41
uuSi_12 4.4560e-05 1 1  ON 42
uuSi_13 -1.5383e-04 1 1  ON 43
uuSi_14 -4.3221e-05 1 1  ON 44
uuSi_15 -2.2136e-07 1 1  ON 45
uuSi_16 1.5822e-04 1 1  ON 46
uuSi_17 -1.8710e-04 1 1  ON 47
uuSi_18 1.6060e-05 1 1  ON 48
uuSi_19 -1.9522e-05 1 1  ON 49
uuSi_20 3.3535e-05 1 1  ON 50
uuSi_21 6.6921e-06 1 1  ON 51
uuSi_22 1.0500e-06 1 1  ON 52
uuSi_23 -8.6805e-06 1 1  ON 53
uuSi_24 -6.7391e-07 1 1  ON 54
uuSi_25 -9.8887e-08 1 1  ON 55
udSi_0 -3.4848e-05 1 1  ON 56
udSi_1 1.0972e-04 1 1  ON 57
udSi_2 -1.0244e-04 1 1  ON 58
udSi_3 1.9544e-04 1 1  ON 59
udSi_4 5.8007e-05 1 1  ON 60
udSi_5 -1.2600e-05 1 1  ON 61
udSi_6 3.0368e-04 1 1  ON 62
udSi_7 -6.2363e-05 1 1  ON 63
udSi_8 -3.2643e-04 1 1  ON 64
udSi_9 -2.1477e-04 1 1  ON 65
udSi_10 7.0948e-05 1 1  ON 66
udSi_11 1.9377e-04 1 1  ON 67
udSi_12 1.0056e-04 1 1  ON 68
udSi_13 -2.5158e-04 1 1  ON 69
udSi_14 -1.0028e-04 1 1  ON 70
udSi_15 -3.7561e-07 1 1  ON 71
udSi_16 3.5136e-04 1 1  ON 72
udSi_17 -2.9148e-04 1 1  ON 73
udSi_18 -8.8363e-05 1 1  ON 74
udSi_19 -3.1873e-05 1 1  ON 75
udSi_20 4.8139e-05 1 1  ON 76
udSi_21 3.2733e-05 1 1  ON 77
udSi_22 -3.4386e-07 1 1  ON 78
udSi_23 -1.5863e-05 1 1  ON 79
udSi_24 -4.8479e-06 1 1  ON 80
udSi_25 4.2981e-07 1 1  ON 81
  </optVariables>
   Restore the number of walkers to 1, removing 0 walkers.
</opt>
</optimization-report>
  QMC Execution time = 4.9737e+00 secs 
  Reusing QMCFixedSampleLinearOptimize
 Using QMCCostFunction::QMCCostFunction

=========================================================
  Start QMCFixedSampleLinearOptimize
  File Root Si.log.s007 append = no 
=========================================================
  Skip QMCDriver::putQMCInfo 
  Resetting Properties of the walkers 1 x 13

=========================================================
  Start VMC
  File Root Si.log.s007 append = no 
=========================================================
Using existing walkers 
  Resetting Properties of the walkers 1 x 13

<vmc function="put">
  qmc_counter=6  my_counter=6
  time step      = 1.5000e-01
  blocks         = 300
  steps          = 2
  substeps       = 5
  current        = 0
  target samples = 5.1200e+05
  walkers/mpi    = 1

  stepsbetweensamples = 1
<parameter name="blocks" condition="int">300</parameter>
<parameter name="blocks_between_recompute" condition="int">0</parameter>
<parameter name="check_properties" condition="int">100</parameter>
<parameter name="checkproperties" condition="int">100</parameter>
<parameter name="current" condition="int">0</parameter>
<parameter name="dmcwalkersperthread" condition="real">5.0000e+02</parameter>
<parameter name="maxcpusecs" condition="real">3.6000e+05</parameter>
<parameter name="record_configs" condition="int">0</parameter>
<parameter name="record_walkers" condition="int">1</parameter>
<parameter name="recordconfigs" condition="int">0</parameter>
<parameter name="recordwalkers" condition="int">1</parameter>
<parameter name="rewind" condition="int">0</parameter>
<parameter name="samples" condition="real">5.1200e+05</parameter>
<parameter name="samplesperthread" condition="real">5.0000e+02</parameter>
<parameter name="steps" condition="int">2</parameter>
<parameter name="stepsbetweensamples" condition="int">1</parameter>
<parameter name="store_configs" condition="int">0</parameter>
<parameter name="storeconfigs" condition="int">0</parameter>
<parameter name="sub_steps" condition="int">5</parameter>
<parameter name="substeps" condition="int">5</parameter>
<parameter name="tau" condition="au">1.5000e-01</parameter>
<parameter name="time_step" condition="au">1.5000e-01</parameter>
<parameter name="timestep" condition="au">1.5000e-01</parameter>
<parameter name="use_drift" condition="string">no</parameter>
<parameter name="usedrift" condition="string">no</parameter>
<parameter name="walkers" condition="int">1</parameter>
<parameter name="warmup_steps" condition="int">0</parameter>
<parameter name="warmupsteps" condition="int">0</parameter>
  DumpConfig==false Nothing (configurations, state) will be saved.
  Walker Samples are dumped every 1 steps.
</vmc>
  EstimatorManagerBase::add replace LocalEnergy estimator.
  EstimatorManagerBase::add replace LocalEnergy estimator.
<optimization-report>
<vmc stage="main" blocks="300">
  Cannot make clones again. Use existing 1 clones
  Initial partition of walkers 0 1 
  Using Particle by Particle moves
  Walker moves without drift
  Total Sample Size   =512000
  Walker distribution on root = 0 1 
  Using Locality Approximation
===== Memory Usage after the buffer registration =====
Available memory on node 0, free + buffers : 83274 MB
Memory footprint by rank 0 on node 0       : 103 MB
==================================================
====================================================
  SimpleFixedNodeBranch::finalize after a VMC block
    QMC counter        = 7
    time step          = 0.15
    reference energy   = -3.74875
    reference variance = 0.0143223
====================================================
  Execution time = 3.8927e+00
</vmc>
<opt stage="setup">
  <log>
   Reading configurations from h5FileRoot Si.log.s007
  QMCCostFunction is created with 1 threads.
  Using Nonlocal PP in Opt: NonLocalECP
   Number of samples loaded to each thread : 500 
  VMC Eavg = -3.7568e+00
  VMC Evar = 1.3911e-02
  Total weights = 5.1200e+05
  Execution time = 1.0878e+00
  </log>
</opt>
<opt stage="main" walkers="512000">
  <log>

*****************************************
Building overlap and Hamiltonian matrices
*****************************************

Among totally 82 optimized parameters, largest LM parameter change : 9.6134e-03 at parameter 10

******************************************************************************
Init Cost =  -3.5683e+00    New Cost =  -3.5683e+00  Delta Cost =  -1.8124e-05
******************************************************************************

The new set of parameters is valid. Updating the trial wave function!

*****************************************************************************
Applying the update for shift_i =   1.0000e-02     and shift_s =   3.9062e-03
*****************************************************************************
  Execution time = 6.1057e+00
  </log>
  <optVariables href="Si.log.s007.opt.xml">
uu_0 7.2649e-01 1 1  ON 0
uu_1 5.2151e-01 1 1  ON 1
uu_2 3.8213e-01 1 1  ON 2
uu_3 2.6672e-01 1 1  ON 3
uu_4 1.7655e-01 1 1  ON 4
uu_5 1.0169e-01 1 1  ON 5
uu_6 3.9991e-02 1 1  ON 6
uu_7 -2.4148e-03 1 1  ON 7
uu_8 -2.8477e-02 1 1  ON 8
uu_9 -4.2006e-02 1 1  ON 9
ud_0 1.1764e+00 1 1  ON 10
ud_1 8.1208e-01 1 1  ON 11
ud_2 5.6521e-01 1 1  ON 12
ud_3 3.7269e-01 1 1  ON 13
ud_4 2.2743e-01 1 1  ON 14
ud_5 1.0403e-01 1 1  ON 15
ud_6 7.7199e-03 1 1  ON 16
ud_7 -5.5483e-02 1 1  ON 17
ud_8 -8.9967e-02 1 1  ON 18
ud_9 -1.0461e-01 1 1  ON 19
eSi_0 -7.5244e-01 1 1  ON 20
eSi_1 -6.5629e-01 1 1  ON 21
eSi_2 -5.5944e-01 1 1  ON 22
eSi_3 -3.4566e-01 1 1  ON 23
eSi_4 -8.2750e-02 1 1  ON 24
eSi_5 1.1207e-01 1 1  ON 25
eSi_6 2.7108e-01 1 1  ON 26
eSi_7 3.8802e-01 1 1  ON 27
eSi_8 4.0924e-01 1 1  ON 28
eSi_9 3.9454e-01 1 1  ON 29
uuSi_0 -2.6044e-05 1 1  ON 30
uuSi_1 1.1101e-05 1 1  ON 31
uuSi_2 -3.3900e-05 1 1  ON 32
uuSi_3 1.2027e-04 1 1  ON 33
uuSi_4 2.9705e-05 1 1  ON 34
uuSi_5 2.1319e-07 1 1  ON 35
uuSi_6 8.0114e-05 1 1  ON 36
uuSi_7 2.1623e-05 1 1  ON 37
uuSi_8 -1.3318e-04 1 1  ON 38
uuSi_9 -4.8265e-05 1 1  ON 39
uuSi_10 5.9310e-05 1 1  ON 40
uuSi_11 3.1606e-05 1 1  ON 41
uuSi_12 4.5061e-05 1 1  ON 42
uuSi_13 -1.6780e-04 1 1  ON 43
uuSi_14 -4.3348e-05 1 1  ON 44
uuSi_15 -2.5747e-07 1 1  ON 45
uuSi_16 1.5085e-04 1 1  ON 46
uuSi_17 -1.9635e-04 1 1  ON 47
uuSi_18 1.9727e-05 1 1  ON 48
uuSi_19 -1.9935e-05 1 1  ON 49
uuSi_20 3.9634e-05 1 1  ON 50
uuSi_21 6.4031e-06 1 1  ON 51
uuSi_22 1.1019e-06 1 1  ON 52
uuSi_23 -1.0207e-05 1 1  ON 53
uuSi_24 -6.1828e-07 1 1  ON 54
uuSi_25 -1.0810e-07 1 1  ON 55
udSi_0 -3.6374e-05 1 1  ON 56
udSi_1 1.1272e-04 1 1  ON 57
udSi_2 -1.0343e-04 1 1  ON 58
udSi_3 1.9768e-04 1 1  ON 59
udSi_4 5.9407e-05 1 1  ON 60
udSi_5 -1.3564e-05 1 1  ON 61
udSi_6 3.0792e-04 1 1  ON 62
udSi_7 -6.4901e-05 1 1  ON 63
udSi_8 -3.3292e-04 1 1  ON 64
udSi_9 -2.1431e-04 1 1  ON 65
udSi_10 7.2887e-05 1 1  ON 66
udSi_11 1.9689e-04 1 1  ON 67
udSi_12 1.0293e-04 1 1  ON 68
udSi_13 -2.5780e-04 1 1  ON 69
udSi_14 -1.0278e-04 1 1  ON 70
udSi_15 -3.7159e-07 1 1  ON 71
udSi_16 3.5475e-04 1 1  ON 72
udSi_17 -3.0000e-04 1 1  ON 73
udSi_18 -8.8536e-05 1 1  ON 74
udSi_19 -3.2891e-05 1 1  ON 75
udSi_20 5.0111e-05 1 1  ON 76
udSi_21 3.3366e-05 1 1  ON 77
udSi_22 -3.2073e-07 1 1  ON 78
udSi_23 -1.6457e-05 1 1  ON 79
udSi_24 -4.9498e-06 1 1  ON 80
udSi_25 4.3618e-07 1 1  ON 81
  </optVariables>
   Restore the number of walkers to 1, removing 0 walkers.
</opt>
</optimization-report>
  QMC Execution time = 6.1215e+00 secs 
  Reusing QMCFixedSampleLinearOptimize
 Using QMCCostFunction::QMCCostFunction

=========================================================
  Start QMCFixedSampleLinearOptimize
  File Root Si.log.s008 append = no 
=========================================================
  Skip QMCDriver::putQMCInfo 
  Resetting Properties of the walkers 1 x 13

=========================================================
  Start VMC
  File Root Si.log.s008 append = no 
=========================================================
Using existing walkers 
  Resetting Properties of the walkers 1 x 13

<vmc function="put">
  qmc_counter=7  my_counter=7
  time step      = 1.5000e-01
  blocks         = 300
  steps          = 2
  substeps       = 5
  current        = 0
  target samples = 5.1200e+05
  walkers/mpi    = 1

  stepsbetweensamples = 1
<parameter name="blocks" condition="int">300</parameter>
<parameter name="blocks_between_recompute" condition="int">0</parameter>
<parameter name="check_properties" condition="int">100</parameter>
<parameter name="checkproperties" condition="int">100</parameter>
<parameter name="current" condition="int">0</parameter>
<parameter name="dmcwalkersperthread" condition="real">5.0000e+02</parameter>
<parameter name="maxcpusecs" condition="real">3.6000e+05</parameter>
<parameter name="record_configs" condition="int">0</parameter>
<parameter name="record_walkers" condition="int">1</parameter>
<parameter name="recordconfigs" condition="int">0</parameter>
<parameter name="recordwalkers" condition="int">1</parameter>
<parameter name="rewind" condition="int">0</parameter>
<parameter name="samples" condition="real">5.1200e+05</parameter>
<parameter name="samplesperthread" condition="real">5.0000e+02</parameter>
<parameter name="steps" condition="int">2</parameter>
<parameter name="stepsbetweensamples" condition="int">1</parameter>
<parameter name="store_configs" condition="int">0</parameter>
<parameter name="storeconfigs" condition="int">0</parameter>
<parameter name="sub_steps" condition="int">5</parameter>
<parameter name="substeps" condition="int">5</parameter>
<parameter name="tau" condition="au">1.5000e-01</parameter>
<parameter name="time_step" condition="au">1.5000e-01</parameter>
<parameter name="timestep" condition="au">1.5000e-01</parameter>
<parameter name="use_drift" condition="string">no</parameter>
<parameter name="usedrift" condition="string">no</parameter>
<parameter name="walkers" condition="int">1</parameter>
<parameter name="warmup_steps" condition="int">0</parameter>
<parameter name="warmupsteps" condition="int">0</parameter>
  DumpConfig==false Nothing (configurations, state) will be saved.
  Walker Samples are dumped every 1 steps.
</vmc>
  EstimatorManagerBase::add replace LocalEnergy estimator.
  EstimatorManagerBase::add replace LocalEnergy estimator.
<optimization-report>
<vmc stage="main" blocks="300">
  Cannot make clones again. Use existing 1 clones
  Initial partition of walkers 0 1 
  Using Particle by Particle moves
  Walker moves without drift
  Total Sample Size   =512000
  Walker distribution on root = 0 1 
  Using Locality Approximation
===== Memory Usage after the buffer registration =====
Available memory on node 0, free + buffers : 83271 MB
Memory footprint by rank 0 on node 0       : 106 MB
==================================================
====================================================
  SimpleFixedNodeBranch::finalize after a VMC block
    QMC counter        = 8
    time step          = 0.15
    reference energy   = -3.75203
    reference variance = 0.0103261
====================================================
  Execution time = 2.7282e+00
</vmc>
<opt stage="setup">
  <log>
   Reading configurations from h5FileRoot Si.log.s008
  QMCCostFunction is created with 1 threads.
  Using Nonlocal PP in Opt: NonLocalECP
   Number of samples loaded to each thread : 500 
  VMC Eavg = -3.7565e+00
  VMC Evar = 1.3431e-02
  Total weights = 5.1200e+05
  Execution time = 1.0901e+00
  </log>
</opt>
<opt stage="main" walkers="512000">
  <log>

*****************************************
Building overlap and Hamiltonian matrices
*****************************************

Among totally 82 optimized parameters, largest LM parameter change : 9.5792e-03 at parameter 26

******************************************************************************
Init Cost =  -3.5680e+00    New Cost =  -3.5681e+00  Delta Cost =  -2.6990e-05
******************************************************************************

The new set of parameters is valid. Updating the trial wave function!

*****************************************************************************
Applying the update for shift_i =   1.0000e-02     and shift_s =   3.9062e-03
*****************************************************************************
  Execution time = 4.9514e+00
  </log>
  <optVariables href="Si.log.s008.opt.xml">
uu_0 7.2586e-01 1 1  ON 0
uu_1 5.2113e-01 1 1  ON 1
uu_2 3.8248e-01 1 1  ON 2
uu_3 2.6746e-01 1 1  ON 3
uu_4 1.7723e-01 1 1  ON 4
uu_5 1.0196e-01 1 1  ON 5
uu_6 4.0100e-02 1 1  ON 6
uu_7 -1.8919e-03 1 1  ON 7
uu_8 -2.6880e-02 1 1  ON 8
uu_9 -4.0133e-02 1 1  ON 9
ud_0 1.1847e+00 1 1  ON 10
ud_1 8.2031e-01 1 1  ON 11
ud_2 5.7292e-01 1 1  ON 12
ud_3 3.8030e-01 1 1  ON 13
ud_4 2.3487e-01 1 1  ON 14
ud_5 1.1095e-01 1 1  ON 15
ud_6 1.3987e-02 1 1  ON 16
ud_7 -4.9972e-02 1 1  ON 17
ud_8 -8.4720e-02 1 1  ON 18
ud_9 -9.9255e-02 1 1  ON 19
eSi_0 -7.5078e-01 1 1  ON 20
eSi_1 -6.6180e-01 1 1  ON 21
eSi_2 -5.6539e-01 1 1  ON 22
eSi_3 -3.5048e-01 1 1  ON 23
eSi_4 -8.8705e-02 1 1  ON 24
eSi_5 1.0261e-01 1 1  ON 25
eSi_6 2.6150e-01 1 1  ON 26
eSi_7 3.7887e-01 1 1  ON 27
eSi_8 4.0298e-01 1 1  ON 28
eSi_9 3.9378e-01 1 1  ON 29
uuSi_0 -1.9722e-05 1 1  ON 30
uuSi_1 2.9424e-05 1 1  ON 31
uuSi_2 -3.4349e-05 1 1  ON 32
uuSi_3 1.0944e-04 1 1  ON 33
uuSi_4 2.8220e-05 1 1  ON 34
uuSi_5 -8.2239e-07 1 1  ON 35
uuSi_6 9.7212e-05 1 1  ON 36
uuSi_7 7.7570e-06 1 1  ON 37
uuSi_8 -1.2976e-04 1 1  ON 38
uuSi_9 -6.4111e-05 1 1  ON 39
uuSi_10 5.2669e-05 1 1  ON 40
uuSi_11 3.8419e-05 1 1  ON 41
uuSi_12 4.3227e-05 1 1  ON 42
uuSi_13 -1.5261e-04 1 1  ON 43
uuSi_14 -4.2004e-05 1 1  ON 44
uuSi_15 -2.2439e-07 1 1  ON 45
uuSi_16 1.5440e-04 1 1  ON 46
uuSi_17 -1.8132e-04 1 1  ON 47
uuSi_18 1.2496e-05 1 1  ON 48
uuSi_19 -1.8598e-05 1 1  ON 49
uuSi_20 3.4601e-05 1 1  ON 50
uuSi_21 6.9419e-06 1 1  ON 51
uuSi_22 9.6663e-07 1 1  ON 52
uuSi_23 -9.0892e-06 1 1  ON 53
uuSi_24 -7.4182e-07 1 1  ON 54
uuSi_25 -8.6291e-08 1 1  ON 55
udSi_0 -3.5524e-05 1 1  ON 56
udSi_1 8.9683e-05 1 1  ON 57
udSi_2 -9.9352e-05 1 1  ON 58
udSi_3 2.0521e-04 1 1  ON 59
udSi_4 5.8623e-05 1 1  ON 60
udSi_5 -9.8393e-06 1 1  ON 61
udSi_6 2.7465e-04 1 1  ON 62
udSi_7 -2.6862e-05 1 1  ON 63
udSi_8 -3.2165e-04 1 1  ON 64
udSi_9 -2.0746e-04 1 1  ON 65
udSi_10 7.9411e-05 1 1  ON 66
udSi_11 1.7202e-04 1 1  ON 67
udSi_12 1.0130e-04 1 1  ON 68
udSi_13 -2.6080e-04 1 1  ON 69
udSi_14 -9.8847e-05 1 1  ON 70
udSi_15 -5.6154e-07 1 1  ON 71
udSi_16 3.5701e-04 1 1  ON 72
udSi_17 -3.0451e-04 1 1  ON 73
udSi_18 -7.4265e-05 1 1  ON 74
udSi_19 -3.3494e-05 1 1  ON 75
udSi_20 4.9098e-05 1 1  ON 76
udSi_21 3.1352e-05 1 1  ON 77
udSi_22 -9.8291e-08 1 1  ON 78
udSi_23 -1.6012e-05 1 1  ON 79
udSi_24 -4.7250e-06 1 1  ON 80
udSi_25 3.9731e-07 1 1  ON 81
  </optVariables>
   Restore the number of walkers to 1, removing 0 walkers.
</opt>
</optimization-report>
  QMC Execution time = 4.9669e+00 secs 
  Reusing QMCFixedSampleLinearOptimize
 Using QMCCostFunction::QMCCostFunction

=========================================================
  Start QMCFixedSampleLinearOptimize
  File Root Si.log.s009 append = no 
=========================================================
  Skip QMCDriver::putQMCInfo 
  Resetting Properties of the walkers 1 x 13

=========================================================
  Start VMC
  File Root Si.log.s009 append = no 
=========================================================
Using existing walkers 
  Resetting Properties of the walkers 1 x 13

<vmc function="put">
  qmc_counter=8  my_counter=8
  time step      = 1.5000e-01
  blocks         = 300
  steps          = 2
  substeps       = 5
  current        = 0
  target samples = 5.1200e+05
  walkers/mpi    = 1

  stepsbetweensamples = 1
<parameter name="blocks" condition="int">300</parameter>
<parameter name="blocks_between_recompute" condition="int">0</parameter>
<parameter name="check_properties" condition="int">100</parameter>
<parameter name="checkproperties" condition="int">100</parameter>
<parameter name="current" condition="int">0</parameter>
<parameter name="dmcwalkersperthread" condition="real">5.0000e+02</parameter>
<parameter name="maxcpusecs" condition="real">3.6000e+05</parameter>
<parameter name="record_configs" condition="int">0</parameter>
<parameter name="record_walkers" condition="int">1</parameter>
<parameter name="recordconfigs" condition="int">0</parameter>
<parameter name="recordwalkers" condition="int">1</parameter>
<parameter name="rewind" condition="int">0</parameter>
<parameter name="samples" condition="real">5.1200e+05</parameter>
<parameter name="samplesperthread" condition="real">5.0000e+02</parameter>
<parameter name="steps" condition="int">2</parameter>
<parameter name="stepsbetweensamples" condition="int">1</parameter>
<parameter name="store_configs" condition="int">0</parameter>
<parameter name="storeconfigs" condition="int">0</parameter>
<parameter name="sub_steps" condition="int">5</parameter>
<parameter name="substeps" condition="int">5</parameter>
<parameter name="tau" condition="au">1.5000e-01</parameter>
<parameter name="time_step" condition="au">1.5000e-01</parameter>
<parameter name="timestep" condition="au">1.5000e-01</parameter>
<parameter name="use_drift" condition="string">no</parameter>
<parameter name="usedrift" condition="string">no</parameter>
<parameter name="walkers" condition="int">1</parameter>
<parameter name="warmup_steps" condition="int">0</parameter>
<parameter name="warmupsteps" condition="int">0</parameter>
  DumpConfig==false Nothing (configurations, state) will be saved.
  Walker Samples are dumped every 1 steps.
</vmc>
  EstimatorManagerBase::add replace LocalEnergy estimator.
  EstimatorManagerBase::add replace LocalEnergy estimator.
<optimization-report>
<vmc stage="main" blocks="300">
  Cannot make clones again. Use existing 1 clones
  Initial partition of walkers 0 1 
  Using Particle by Particle moves
  Walker moves without drift
  Total Sample Size   =512000
  Walker distribution on root = 0 1 
  Using Locality Approximation
===== Memory Usage after the buffer registration =====
Available memory on node 0, free + buffers : 83268 MB
Memory footprint by rank 0 on node 0       : 108 MB
==================================================
====================================================
  SimpleFixedNodeBranch::finalize after a VMC block
    QMC counter        = 9
    time step          = 0.15
    reference energy   = -3.75845
    reference variance = 0.01317
====================================================
  Execution time = 2.7142e+00
</vmc>
<opt stage="setup">
  <log>
   Reading configurations from h5FileRoot Si.log.s009
  QMCCostFunction is created with 1 threads.
  Using Nonlocal PP in Opt: NonLocalECP
   Number of samples loaded to each thread : 500 
  VMC Eavg = -3.7568e+00
  VMC Evar = 1.3592e-02
  Total weights = 5.1200e+05
  Execution time = 1.0380e+00
  </log>
</opt>
<opt stage="main" walkers="512000">
  <log>

*****************************************
Building overlap and Hamiltonian matrices
*****************************************

Among totally 82 optimized parameters, largest LM parameter change : 1.0633e-02 at parameter 25

******************************************************************************
Init Cost =  -3.5683e+00    New Cost =  -3.5683e+00  Delta Cost =  -2.6340e-05
******************************************************************************

The new set of parameters is valid. Updating the trial wave function!

*****************************************************************************
Applying the update for shift_i =   1.0000e-02     and shift_s =   3.9062e-03
*****************************************************************************
  Execution time = 4.8571e+00
  </log>
  <optVariables href="Si.log.s009.opt.xml">
uu_0 7.2504e-01 1 1  ON 0
uu_1 5.2145e-01 1 1  ON 1
uu_2 3.8318e-01 1 1  ON 2
uu_3 2.6724e-01 1 1  ON 3
uu_4 1.7686e-01 1 1  ON 4
uu_5 1.0139e-01 1 1  ON 5
uu_6 3.9704e-02 1 1  ON 6
uu_7 -1.9067e-03 1 1  ON 7
uu_8 -2.7055e-02 1 1  ON 8
uu_9 -3.8751e-02 1 1  ON 9
ud_0 1.1930e+00 1 1  ON 10
ud_1 8.2821e-01 1 1  ON 11
ud_2 5.8066e-01 1 1  ON 12
ud_3 3.8718e-01 1 1  ON 13
ud_4 2.4144e-01 1 1  ON 14
ud_5 1.1743e-01 1 1  ON 15
ud_6 2.0396e-02 1 1  ON 16
ud_7 -4.3458e-02 1 1  ON 17
ud_8 -7.8758e-02 1 1  ON 18
ud_9 -9.3172e-02 1 1  ON 19
eSi_0 -7.4911e-01 1 1  ON 20
eSi_1 -6.6635e-01 1 1  ON 21
eSi_2 -5.7256e-01 1 1  ON 22
eSi_3 -3.5719e-01 1 1  ON 23
eSi_4 -9.7004e-02 1 1  ON 24
eSi_5 9.1981e-02 1 1  ON 25
eSi_6 2.5265e-01 1 1  ON 26
eSi_7 3.7178e-01 1 1  ON 27
eSi_8 3.9724e-01 1 1  ON 28
eSi_9 3.9356e-01 1 1  ON 29
uuSi_0 -2.0074e-05 1 1  ON 30
uuSi_1 2.7740e-05 1 1  ON 31
uuSi_2 -3.3273e-05 1 1  ON 32
uuSi_3 1.0670e-04 1 1  ON 33
uuSi_4 2.6612e-05 1 1  ON 34
uuSi_5 1.8440e-07 1 1  ON 35
uuSi_6 9.7973e-05 1 1  ON 36
uuSi_7 1.3056e-05 1 1  ON 37
uuSi_8 -1.2748e-04 1 1  ON 38
uuSi_9 -6.9028e-05 1 1  ON 39
uuSi_10 4.8871e-05 1 1  ON 40
uuSi_11 3.8602e-05 1 1  ON 41
uuSi_12 4.2502e-05 1 1  ON 42
uuSi_13 -1.4731e-04 1 1  ON 43
uuSi_14 -4.1395e-05 1 1  ON 44
uuSi_15 -2.1791e-07 1 1  ON 45
uuSi_16 1.6287e-04 1 1  ON 46
uuSi_17 -1.7648e-04 1 1  ON 47
uuSi_18 9.8840e-06 1 1  ON 48
uuSi_19 -1.8186e-05 1 1  ON 49
uuSi_20 3.0546e-05 1 1  ON 50
uuSi_21 7.4789e-06 1 1  ON 51
uuSi_22 8.9026e-07 1 1  ON 52
uuSi_23 -7.9824e-06 1 1  ON 53
uuSi_24 -9.1961e-07 1 1  ON 54
uuSi_25 -6.2528e-08 1 1  ON 55
udSi_0 -3.3547e-05 1 1  ON 56
udSi_1 1.3013e-04 1 1  ON 57
udSi_2 -9.4596e-05 1 1  ON 58
udSi_3 1.8608e-04 1 1  ON 59
udSi_4 5.4518e-05 1 1  ON 60
udSi_5 -1.3761e-05 1 1  ON 61
udSi_6 3.3678e-04 1 1  ON 62
udSi_7 -6.7347e-05 1 1  ON 63
udSi_8 -3.1903e-04 1 1  ON 64
udSi_9 -2.4200e-04 1 1  ON 65
udSi_10 6.2709e-05 1 1  ON 66
udSi_11 1.9478e-04 1 1  ON 67
udSi_12 9.8457e-05 1 1  ON 68
udSi_13 -2.3978e-04 1 1  ON 69
udSi_14 -9.9227e-05 1 1  ON 70
udSi_15 -3.1070e-07 1 1  ON 71
udSi_16 3.8024e-04 1 1  ON 72
udSi_17 -2.8453e-04 1 1  ON 73
udSi_18 -9.3193e-05 1 1  ON 74
udSi_19 -3.0804e-05 1 1  ON 75
udSi_20 3.9811e-05 1 1  ON 76
udSi_21 3.3816e-05 1 1  ON 77
udSi_22 -5.1741e-07 1 1  ON 78
[...]
====================================================
  Execution time = 2.7204e+00
</vmc>
<opt stage="setup">
  <log>
   Reading configurations from h5FileRoot Si.log.s020
  QMCCostFunction is created with 1 threads.
  Using Nonlocal PP in Opt: NonLocalECP
   Number of samples loaded to each thread : 500 
  VMC Eavg = -3.7566e+00
  VMC Evar = 1.3216e-02
  Total weights = 5.1200e+05
  Execution time = 1.0199e+00
  </log>
</opt>
<opt stage="main" walkers="512000">
  <log>

*****************************************
Building overlap and Hamiltonian matrices
*****************************************

Among totally 82 optimized parameters, largest LM parameter change : 5.4493e+01 at parameter 20

******************************************************************************
Init Cost =  -3.5681e+00    New Cost =   7.9106e+00  Delta Cost =   1.1479e+01
******************************************************************************

The new set of parameters is not valid. Revert to the old set!
Update shift_s_base to 1.4142e+00

*****************************************************************************
Applying the update for shift_i =   1.0000e-02     and shift_s =   1.5625e-02
*****************************************************************************
  Execution time = 4.1993e+00
  </log>
  <optVariables href="Si.log.s020.opt.xml">
uu_0 7.2330e-01 1 1  ON 0
uu_1 5.2660e-01 1 1  ON 1
uu_2 3.8930e-01 1 1  ON 2
uu_3 2.7515e-01 1 1  ON 3
uu_4 1.8505e-01 1 1  ON 4
uu_5 1.0974e-01 1 1  ON 5
uu_6 4.7939e-02 1 1  ON 6
uu_7 5.5614e-03 1 1  ON 7
uu_8 -2.0423e-02 1 1  ON 8
uu_9 -3.3854e-02 1 1  ON 9
ud_0 1.2388e+00 1 1  ON 10
ud_1 8.7175e-01 1 1  ON 11
ud_2 6.2205e-01 1 1  ON 12
ud_3 4.2639e-01 1 1  ON 13
ud_4 2.7863e-01 1 1  ON 14
ud_5 1.5373e-01 1 1  ON 15
ud_6 5.5983e-02 1 1  ON 16
ud_7 -9.0532e-03 1 1  ON 17
ud_8 -4.7723e-02 1 1  ON 18
ud_9 -6.5716e-02 1 1  ON 19
eSi_0 -7.6582e-01 1 1  ON 20
eSi_1 -7.1061e-01 1 1  ON 21
eSi_2 -6.1912e-01 1 1  ON 22
eSi_3 -3.9822e-01 1 1  ON 23
eSi_4 -1.3805e-01 1 1  ON 24
eSi_5 5.2428e-02 1 1  ON 25
eSi_6 2.1620e-01 1 1  ON 26
eSi_7 3.3685e-01 1 1  ON 27
eSi_8 3.6726e-01 1 1  ON 28
eSi_9 3.6980e-01 1 1  ON 29
uuSi_0 -2.2539e-05 1 1  ON 30
uuSi_1 1.1853e-05 1 1  ON 31
uuSi_2 -3.0743e-05 1 1  ON 32
uuSi_3 1.1561e-04 1 1  ON 33
uuSi_4 2.7153e-05 1 1  ON 34
uuSi_5 1.2614e-06 1 1  ON 35
uuSi_6 7.8586e-05 1 1  ON 36
uuSi_7 3.0631e-05 1 1  ON 37
uuSi_8 -1.2190e-04 1 1  ON 38
uuSi_9 -5.7318e-05 1 1  ON 39
uuSi_10 5.5992e-05 1 1  ON 40
uuSi_11 2.3920e-05 1 1  ON 41
uuSi_12 4.1699e-05 1 1  ON 42
uuSi_13 -1.5575e-04 1 1  ON 43
uuSi_14 -3.9353e-05 1 1  ON 44
uuSi_15 -3.2283e-07 1 1  ON 45
uuSi_16 1.5858e-04 1 1  ON 46
uuSi_17 -1.8327e-04 1 1  ON 47
uuSi_18 1.9825e-05 1 1  ON 48
uuSi_19 -1.8691e-05 1 1  ON 49
uuSi_20 3.3504e-05 1 1  ON 50
uuSi_21 5.9791e-06 1 1  ON 51
uuSi_22 1.0732e-06 1 1  ON 52
uuSi_23 -8.8471e-06 1 1  ON 53
uuSi_24 -6.8527e-07 1 1  ON 54
uuSi_25 -1.0429e-07 1 1  ON 55
udSi_0 -4.6134e-05 1 1  ON 56
udSi_1 3.3455e-05 1 1  ON 57
udSi_2 -9.8602e-05 1 1  ON 58
udSi_3 2.3908e-04 1 1  ON 59
udSi_4 6.4782e-05 1 1  ON 60
udSi_5 -5.9938e-06 1 1  ON 61
udSi_6 2.1377e-04 1 1  ON 62
udSi_7 1.2559e-05 1 1  ON 63
udSi_8 -3.2964e-04 1 1  ON 64
udSi_9 -1.6781e-04 1 1  ON 65
udSi_10 1.0639e-04 1 1  ON 66
udSi_11 1.4627e-04 1 1  ON 67
udSi_12 1.0628e-04 1 1  ON 68
udSi_13 -2.9903e-04 1 1  ON 69
udSi_14 -1.0105e-04 1 1  ON 70
udSi_15 -7.6905e-07 1 1  ON 71
udSi_16 3.4383e-04 1 1  ON 72
udSi_17 -3.4388e-04 1 1  ON 73
udSi_18 -5.0321e-05 1 1  ON 74
udSi_19 -3.7267e-05 1 1  ON 75
udSi_20 6.2623e-05 1 1  ON 76
udSi_21 2.8925e-05 1 1  ON 77
udSi_22 3.8517e-07 1 1  ON 78
udSi_23 -1.9624e-05 1 1  ON 79
udSi_24 -4.2208e-06 1 1  ON 80
udSi_25 3.0500e-07 1 1  ON 81
  </optVariables>
   Restore the number of walkers to 1, removing 0 walkers.
</opt>
</optimization-report>
  QMC Execution time = 4.2151e+00 secs 

=========================================================
  Start VMC
  File Root Si.log.s021 append = no 
=========================================================
  Using the current 1 walkers.
  Total number of walkers: 1.0240e+03
  Total weight: 1.0240e+03
  Resetting Properties of the walkers 1 x 13

<vmc function="put">
  qmc_counter=0  my_counter=0
  time step      = 1.5000e-01
  blocks         = 200
  steps          = 1
  substeps       = 30
  current        = 0
  target samples = 4.0960e+03
  walkers/mpi    = 1

  stepsbetweensamples = 50
<parameter name="blocks" condition="int">200</parameter>
<parameter name="blocks_between_recompute" condition="int">0</parameter>
<parameter name="check_properties" condition="int">100</parameter>
<parameter name="checkproperties" condition="int">100</parameter>
<parameter name="current" condition="int">0</parameter>
<parameter name="dmcwalkersperthread" condition="real">4.0000e+00</parameter>
<parameter name="maxcpusecs" condition="real">3.6000e+05</parameter>
<parameter name="record_configs" condition="int">0</parameter>
<parameter name="record_walkers" condition="int">50</parameter>
<parameter name="recordconfigs" condition="int">0</parameter>
<parameter name="recordwalkers" condition="int">50</parameter>
<parameter name="rewind" condition="int">0</parameter>
<parameter name="samples" condition="real">4.0960e+03</parameter>
<parameter name="samplesperthread" condition="real">4.0000e+00</parameter>
<parameter name="steps" condition="int">1</parameter>
<parameter name="stepsbetweensamples" condition="int">50</parameter>
<parameter name="store_configs" condition="int">0</parameter>
<parameter name="storeconfigs" condition="int">0</parameter>
<parameter name="sub_steps" condition="int">30</parameter>
<parameter name="substeps" condition="int">30</parameter>
<parameter name="tau" condition="au">1.5000e-01</parameter>
<parameter name="time_step" condition="au">1.5000e-01</parameter>
<parameter name="timestep" condition="au">1.5000e-01</parameter>
<parameter name="use_drift" condition="string">no</parameter>
<parameter name="usedrift" condition="string">no</parameter>
<parameter name="walkers" condition="int">1</parameter>
<parameter name="warmup_steps" condition="int">100</parameter>
<parameter name="warmupsteps" condition="int">100</parameter>
  DumpConfig==false Nothing (configurations, state) will be saved.
  Walker Samples are dumped every 50 steps.
</vmc>
  EstimatorManagerBase::add replace LocalEnergy estimator.
  Cannot make clones again. Use existing 1 clones
  Initial partition of walkers 0 1 

  Using Particle by Particle moves
  Walker moves without drift
  Total Sample Size   =4096
  Walker distribution on root = 0 1 
  Using Locality Approximation
===== Memory Usage after the buffer registration =====
Available memory on node 0, free + buffers : 83227 MB
Memory footprint by rank 0 on node 0       : 135 MB
==================================================
  Anonymous Buffer size per walker : 1440 Bytes.
MEMORY increase 0 MB VMC::resetRun
====================================================
  SimpleFixedNodeBranch::finalize after a VMC block
    QMC counter        = 21
    time step          = 0.15
    reference energy   = -3.75547
    reference variance = 0.010694
====================================================
  QMC Execution time = 7.0949e+00 secs 

=========================================================
  Start DMC
  File Root Si.log.s022 append = no 
=========================================================
Using existing walkers 
  Resetting Properties of the walkers 1 x 13
  EstimatorManagerBase::add replace LocalEnergy estimator.
  Cannot make clones again. Use existing 1 clones
  Total number of walkers: 4.0960e+03
  Total weight: 4.0960e+03
  Creating WalkerController: target  number of walkers = 4096
  Using WalkerControlMPI for dynamic population control.
  START ALL OVER 
  WalkerControlBase parameters 
    maxCopy = 2
    Max Walkers per MPI rank 9
    Min Walkers per MPI rank 1
    Using non-blocking send/recv
  QMC counter      = 22
  time step        = 2.0000e-02
  effective time step = 2.0000e-02
  trial energy     = -3.7555e+00
  reference energy = -3.7555e+00
  Feedback = 1.0000e+00
  reference variance = 1.0694e-02
  target walkers = 4096
  branching cutoff scheme classic
  branch cutoff = 5.0000e+01 7.5000e+01
  Max and minimum walkers per node= 9 1
  QMC Status (BranchMode) = 0000001101
  Initial partition of walkers on a node: 0 4 
  Updates by particle-by-particle moves
  DMC moves are rejected when a node crossing is detected
  Using Non-local T-moves v0, M. Casula, PRB 74, 161102(R) (2006)
===== Memory Usage after the buffer registration =====
Available memory on node 0, free + buffers : 83227 MB
Memory footprint by rank 0 on node 0       : 135 MB
==================================================
SimpleFixedNodeBranch::checkParameters 
  Average Energy of a population  = -3.75645
  Energy Variance = 0.0107357

  Fluctuating population
  Persistent walkers are killed after 1 MC sweeps
  BranchInterval = 1
  Steps per block = 50
  Number of blocks = 70

  DMC Engine Initialization = 4.5607e-02 secs 

 Warmup is completed after 100

  TauEff     = 1.9938e-02
 TauEff/Tau = 9.9689e-01
  Etrial     = -3.7977e+00
 Running average of energy = -3.7603e+00
                  Variance = 1.3772e-02
branch cutoff = 1.0000e+01 1.5000e+01
====================================================
  SimpleFixedNodeBranch::finalize after a DMC block
    QMC counter                   = 22
    time step                     = 0.02
    effective time step           = 0.019939
    trial energy                  = -3.7559
    reference energy              = -3.7603
    reference variance            = 0.0137725
    target walkers                = 4096
    branch cutoff                 = 10 15
    Max and minimum walkers per node= 9 1
    Feedback                      = 1
    QMC Status (BranchMode)       = 0000001111
====================================================
  QMC Execution time = 4.2913e+01 secs 
  Reusing DMC
BRANCH resetRun
 SimpleFixedNodeBranch::resetRun detected changes in <parameter>'s 
 BranchMode : 0000001111 0000001111
  WalkerControlBase parameters 
    maxCopy = 2
    Max Walkers per MPI rank 9
    Min Walkers per MPI rank 1
    Using non-blocking send/recv
 iParam (old):                  0                 1                22              4096                 9                 1                 1                 0
 iParam (new):                100                 1                22              4096                 9                 1                 1                 0
 vParam (old):   2.0000000000e-02  1.9939036713e-02 -3.7558971115e+00 -3.7603013271e+00 -3.7603748324e+00  1.5000000000e+01  1.0000000000e+01  2.0000000000e-01  1.3772472741e-02 -1.2788784887e+04  3.4010000000e+03  1.0000000000e+00  1.0000000000e+01  1.0000000000e+00  1.0000000000e+00  1.0000000000e+00  1.0000000000e+00
 vParam (new):   1.0000000000e-02  1.9939036713e-02 -3.7558971115e+00 -3.7603013271e+00 -3.7603748324e+00  1.5000000000e+01  1.0000000000e+01  2.0000000000e-01  1.3772472741e-02 -1.2788784887e+04  3.4010000000e+03  1.0000000000e+00  1.0000000000e+01  1.0000000000e+00  1.0000000000e+00  1.0000000000e+00  1.0000000000e+00

 Using branching cutoff scheme classic
SimpleFixedNodeBranch::checkParameters 
  Average Energy of a population  = -3.76015
  Energy Variance = 0.0146109

  Using Non-local T-moves v0, M. Casula, PRB 74, 161102(R) (2006)
===== Memory Usage after the buffer registration =====
Available memory on node 0, free + buffers : 83223 MB
Memory footprint by rank 0 on node 0       : 136 MB
==================================================

=========================================================
  Start DMC
  File Root Si.log.s023 append = no 
=========================================================
Using existing walkers 
  Resetting Properties of the walkers 1 x 13
  EstimatorManagerBase::add replace LocalEnergy estimator.
  Cannot make clones again. Use existing 1 clones
SimpleFixedNodeBranch::checkParameters 
  Average Energy of a population  = -3.76039
  Energy Variance = 0.0147251

  Fluctuating population
  Persistent walkers are killed after 1 MC sweeps
  BranchInterval = 1
  Steps per block = 100
  Number of blocks = 90

  DMC Engine Initialization = 3.4093856812e-04 secs 

 Warmup is completed after 100

  TauEff     = 9.9898481836e-03
 TauEff/Tau = 9.9898481836e-01
  Etrial     = -3.6590716819e+00
 Running average of energy = -3.7607825623e+00
                  Variance = 1.3483588186e-02
branch cutoff = 1.0000000000e+01 1.5000000000e+01
====================================================
  SimpleFixedNodeBranch::finalize after a DMC block
    QMC counter                   = 23
    time step                     = 0.01
    effective time step           = 0.00998882
    trial energy                  = -3.76126
    reference energy              = -3.76004
    reference variance            = 0.0134836
    target walkers                = 4096
    branch cutoff                 = 10 15
    Max and minimum walkers per node= 9 1
    Feedback                      = 1
    QMC Status (BranchMode)       = 0000001111
====================================================
  QMC Execution time = 1.1033e+02 secs 
  Reusing DMC
BRANCH resetRun
 SimpleFixedNodeBranch::resetRun detected changes in <parameter>'s 
 BranchMode : 0000001111 0000001111
  WalkerControlBase parameters 
    maxCopy = 2
    Max Walkers per MPI rank 9
    Min Walkers per MPI rank 1
    Using non-blocking send/recv
 iParam (old):                  0                 1                23              4096                 9                 1                 1                 0
 iParam (new):                200                 1                23              4096                 9                 1                 1                 0
 vParam (old):   1.0000000000e-02  9.9888235458e-03 -3.7612590691e+00 -3.7600391105e+00 -3.7588481044e+00  1.5000000000e+01  1.0000000000e+01  2.0000000000e-01  1.3483588186e-02 -3.3468106931e+04  8.9010000000e+03  1.0000000000e+00  1.0000000000e+01  1.0000000000e+00  1.0000000000e+00  1.0000000000e+00  1.0000000000e+00
 vParam (new):   5.0000000000e-03  9.9888235458e-03 -3.7612590691e+00 -3.7600391105e+00 -3.7588481044e+00  1.5000000000e+01  1.0000000000e+01  2.0000000000e-01  1.3483588186e-02 -3.3468106931e+04  8.9010000000e+03  1.0000000000e+00  1.0000000000e+01  1.0000000000e+00  1.0000000000e+00  1.0000000000e+00  1.0000000000e+00

 Using branching cutoff scheme classic
SimpleFixedNodeBranch::checkParameters 
  Average Energy of a population  = -3.75887
  Energy Variance = 0.0107084

  Using Non-local T-moves v0, M. Casula, PRB 74, 161102(R) (2006)
===== Memory Usage after the buffer registration =====
Available memory on node 0, free + buffers : 83216 MB
Memory footprint by rank 0 on node 0       : 138 MB
==================================================

=========================================================
  Start DMC
  File Root Si.log.s024 append = no 
=========================================================
Using existing walkers 
  Resetting Properties of the walkers 1 x 13
  EstimatorManagerBase::add replace LocalEnergy estimator.
  Cannot make clones again. Use existing 1 clones
SimpleFixedNodeBranch::checkParameters 
  Average Energy of a population  = -3.75855
  Energy Variance = 0.0107498

  Fluctuating population
  Persistent walkers are killed after 1 MC sweeps
  BranchInterval = 1
  Steps per block = 200
  Number of blocks = 110

  DMC Engine Initialization = 1.2369155884e-03 secs 

 Warmup is completed after 200

  TauEff     = 4.9980001022e-03
 TauEff/Tau = 9.9960002045e-01
  Etrial     = -3.6153880385e+00
 Running average of energy = -3.7593395430e+00
                  Variance = 1.2564188708e-02
branch cutoff = 1.0000000000e+01 1.5000000000e+01
====================================================
  SimpleFixedNodeBranch::finalize after a DMC block
    QMC counter                   = 24
    time step                     = 0.005
    effective time step           = 0.00499795
    trial energy                  = -3.75719
    reference energy              = -3.76013
    reference variance            = 0.0125642
    target walkers                = 4096
    branch cutoff                 = 10 15
    Max and minimum walkers per node= 9 1
    Feedback                      = 1
    QMC Status (BranchMode)       = 0000001111
====================================================
  QMC Execution time = 2.6696e+02 secs 
  Reusing DMC
BRANCH resetRun
 SimpleFixedNodeBranch::resetRun detected changes in <parameter>'s 
 BranchMode : 0000001111 0000001111
  WalkerControlBase parameters 
    maxCopy = 2
    Max Walkers per MPI rank 9
    Min Walkers per MPI rank 1
    Using non-blocking send/recv
 iParam (old):                  0                 1                24              4096                 9                 1                 1                 0
 iParam (new):                400                 1                24              4096                 9                 1                 1                 0
 vParam (old):   5.0000000000e-03  4.9979517073e-03 -3.7571923347e+00 -3.7601263222e+00 -3.7610534032e+00  1.5000000000e+01  1.0000000000e+01  2.0000000000e-01  1.2564188708e-02 -8.1974514877e+04  2.1801000000e+04  1.0000000000e+00  1.0000000000e+01  1.0000000000e+00  1.0000000000e+00  1.0000000000e+00  1.0000000000e+00
 vParam (new):   2.5000000000e-03  4.9979517073e-03 -3.7571923347e+00 -3.7601263222e+00 -3.7610534032e+00  1.5000000000e+01  1.0000000000e+01  2.0000000000e-01  1.2564188708e-02 -8.1974514877e+04  2.1801000000e+04  1.0000000000e+00  1.0000000000e+01  1.0000000000e+00  1.0000000000e+00  1.0000000000e+00  1.0000000000e+00

 Using branching cutoff scheme classic
SimpleFixedNodeBranch::checkParameters 
  Average Energy of a population  = -3.761
  Energy Variance = 0.0106089

  Using Non-local T-moves v0, M. Casula, PRB 74, 161102(R) (2006)
===== Memory Usage after the buffer registration =====
Available memory on node 0, free + buffers : 83205 MB
Memory footprint by rank 0 on node 0       : 139 MB
==================================================

=========================================================
  Start DMC
  File Root Si.log.s025 append = no 
=========================================================
Using existing walkers 
  Resetting Properties of the walkers 1 x 13
  EstimatorManagerBase::add replace LocalEnergy estimator.
  Cannot make clones again. Use existing 1 clones
SimpleFixedNodeBranch::checkParameters 
  Average Energy of a population  = -3.76093
  Energy Variance = 0.0105765

  Fluctuating population
  Persistent walkers are killed after 1 MC sweeps
  BranchInterval = 1
  Steps per block = 400
  Number of blocks = 130

  DMC Engine Initialization = 4.0483474731e-04 secs 

 Warmup is completed after 400

  TauEff     = 2.4996239471e-03
 TauEff/Tau = 9.9984957883e-01
  Etrial     = -3.8562927885e+00
 Running average of energy = -3.7592465542e+00
                  Variance = 1.3823978598e-02
branch cutoff = 1.0000000000e+01 1.5000000000e+01
====================================================
  SimpleFixedNodeBranch::finalize after a DMC block
    QMC counter                   = 25
    time step                     = 0.0025
    effective time step           = 0.00249963
    trial energy                  = -3.76413
    reference energy              = -3.75999
    reference variance            = 0.013824
    target walkers                = 4096
    branch cutoff                 = 10 15
    Max and minimum walkers per node= 9 1
    Feedback                      = 1
    QMC Status (BranchMode)       = 0000001111
====================================================
  QMC Execution time = 6.3608e+02 secs 
  Total Execution time = 1.1622e+03 secs

=========================================================
  A new xml input file : Si.log.s025.cont.xml
TACC:  Shutdown complete. Exiting. 
