
 Primary working directories    : /global/cscratch1/sd/aannabe
 Secondary working directories  : /global/cscratch1/sd/aannabe
 Wavefunction directory         : /global/homes/a/aannabe/wfu/
 Main file repository           : /global/cscratch1/sd/aannabe/

 SHA1      : 2873118e99aab1bc19f5b6fc1784693c06d15c95
 NAME      : 2015.1.8
 ARCHNAME  : linux/x86_64
 FC        : /opt/cray/pe/craype/2.5.5/bin/ftn
 BLASLIB   : -Wl,-_start-group /opt/intel/compilers_and_libraries_2016.3.210/linux/mkl/lib/intel64/libmkl_intel_ilp64.a /opt/intel/compilers_and_libraries_2016.3.210/linux/mkl/lib/intel64/libmkl_intel_thread.a /opt/intel/compilers_and_libraries_2016.3.210/linux/mkl/lib/intel64/libmkl_core.a -Wl,-_end-group
 id        : lbl

 Nodes     nprocs
 nid00496     1

 Using customized tuning parameters: mindgm=8; mindgv=16; mindgc=4; mindgr=1; noblas=0; minvec=7
 default implementation of scratch files=df  

 ***,Cu
 memory,8,g
 gthresh,twoint=1.e-12
 
 gprint,basis,orbitals
 gexpec,ekin,pot
 
 angstrom
 geometry={
 1                                                                               ! Number of atoms
 Cu 0.0 0.0 0.0
 }
 
 basis={
 Including file /global/homes/a/aannabe/docs/totals/pps/Cu.pp
 Including file /global/homes/a/aannabe/docs/totals/basis/aug-cc-pVnZ/Cu_tz.basis
 }
 
 {hf
 wf,19,1,1
 occ,4,1,1,1,1,1,1,0
 open,4.1
 sym,1,1,3,2,1
 }
 scf(i)=energy
 
 _CC_NORM_MAX=2.0
  !NOTE: Perturbative MRCC works only with UHF reference. So, here we will trick MRCC by doing zero UHF iteration right after ROHF.
 
 {uhf
 wf,19,1,1
 occ,4,1,1,1,1,1,1,0
 open,4.1
 sym,1,1,3,2,1
 maxit,0
 }
 scf(i)=energy
 
 {mrcc,method=CCSDT(Q)
 orbital,ignore_error=1                                                          !Ignore the fact that UHF WF is not converged
 maxit,100
 core
 }
 posthf(i)=energy
 
 table,scf,posthf,ekin,pot
 save,3.csv,new
 
 

 Variables initialized (889), CPU time= 0.00 sec
 Commands  initialized (702), CPU time= 0.00 sec, 572 directives.
 Default parameters read. Elapsed time= 0.11 sec

 Checking input...
 Passed
1


                                         ***  PROGRAM SYSTEM MOLPRO  ***
                                       Copyright, TTI GmbH Stuttgart, 2015
                                    Version 2015.1 linked Sep  7 2016 23:09:38


 **********************************************************************************************************************************
 LABEL *   Cu                                                                            
  64 bit serial version                                                                  DATE: 15-Jun-18          TIME: 17:00:04  
 **********************************************************************************************************************************

 SHA1:             2873118e99aab1bc19f5b6fc1784693c06d15c95
 **********************************************************************************************************************************

 THRESHOLDS:

 ZERO    =  1.00D-12  ONEINT  =  1.00D-12  TWOINT  =  1.00D-12  PREFAC  =  1.00D-14  LOCALI  =  1.00D-09  EORDER  =  1.00D-04
 ENERGY  =  0.00D+00  ETEST   =  0.00D+00  EDENS   =  0.00D+00  THRDEDEF=  1.00D-06  GRADIENT=  1.00D-02  STEP    =  1.00D-03
 ORBITAL =  1.00D-05  CIVEC   =  1.00D-05  COEFF   =  1.00D-04  PRINTCI =  5.00D-02  PUNCHCI =  9.90D+01  OPTGRAD =  3.00D-04
 OPTENERG=  1.00D-06  OPTSTEP =  3.00D-04  THRGRAD =  1.00D-10  COMPRESS=  1.00D-11  VARMIN  =  1.00D-07  VARMAX  =  1.00D-03
 THRDOUB =  0.00D+00  THRDIV  =  1.00D-05  THRRED  =  1.00D-07  THRPSP  =  1.00D+00  THRDC   =  1.00D-10  THRCS   =  1.00D-10
 THRNRM  =  1.00D-08  THREQ   =  0.00D+00  THRDE   =  1.00D+00  THRREF  =  1.00D-05  SPARFAC =  1.00D+00  THRDLP  =  1.00D-07
 THRDIA  =  1.00D-10  THRDLS  =  1.00D-07  THRGPS  =  0.00D+00  THRKEX  =  0.00D+00  THRDIS  =  2.00D-01  THRVAR  =  1.00D-10
 THRLOC  =  1.00D-06  THRGAP  =  1.00D-06  THRLOCT = -1.00D+00  THRGAPT = -1.00D+00  THRORB  =  1.00D-06  THRMLTP =  0.00D+00
 THRCPQCI=  1.00D-10  KEXTA   =  0.00D+00  THRCOARS=  0.00D+00  SYMTOL  =  1.00D-06  GRADTOL =  1.00D-06  THROVL  =  1.00D-08
 THRORTH =  1.00D-08  GRID    =  1.00D-06  GRIDMAX =  1.00D-03  DTMAX   =  0.00D+00  THROCCDE=  1.00D-01  THROCCDE=  1.00D-01



 ZUNIT=ANG
 

Geometry recognized as XYZ


 Variable memory set to 8000000000 words,  buffer space   230000 words

 SETTING BASIS          =    USERDEF


 Recomputing integrals since basis changed


 Using spherical harmonics



 PROGRAM * SEWARD (Integral evaluation for generally contracted gaussian basis sets)     Author: Roland Lindh, 1990

 Geometry written to block  1 of record 700

 Orientation using atomic masses  
 Molecule type: Atom
 Symmetry elements: X,Y,Z
 Rotational constants:       0.0000000      0.0000000      0.0000000 GHz  (calculated with average atomic masses)

 Point group  D2h 



 ATOMIC COORDINATES

 NR  ATOM    CHARGE       X              Y              Z

   1  CU     19.00    0.000000000    0.000000000    0.000000000


          CU  CORE POTENTIAL

          d POTENTIAL

 POWERS             1              3              2              2
 EXPONENTIALS   31.53811       31.06926       30.59036       14.05141    
 COEFFICIENTS   19.00000       599.2241      -244.6892      -1.293495    

          s - d POTENTIAL

 POWERS             2              2
 EXPONENTIALS   12.77236       29.35562    
 COEFFICIENTS   66.27561       370.7137    

          p - d POTENTIAL

 POWERS             2              2
 EXPONENTIALS   12.52471       33.51695    
 COEFFICIENTS   49.76265       271.6628    


 BASIS DATA

   Nr Sym  Nuc  Type         Exponents   Contraction coefficients

    1.1 Ag    1  1s         104.471138     0.000741   -0.000133    0.000210    0.000366    0.000000
    2.1 Ag                   55.955221    -0.013953    0.002999    0.003806    0.006720    0.000000
    3.1 Ag                   30.553953     0.105266   -0.024310   -0.047312   -0.091493    0.000000
    4.1 Ag                   16.942394    -0.129399    0.031986    0.059957    0.142263    0.000000
    5.1 Ag                    9.452707    -0.362738    0.089149    0.250642    0.471881    0.000000
                              5.174537     0.013266   -0.010750   -0.119102   -0.319708    0.000000
                              2.779171     0.489288   -0.128224   -0.314069   -1.068255    0.000000
                              1.441817     0.562088   -0.215720   -0.689300   -0.615049    0.000000
                              0.710674     0.190047   -0.149559    0.403050    2.261282    0.000000
                              0.241540     0.005635    0.142917    1.270440   -0.020059    0.000000
                              0.129621    -0.000582    0.446307   -0.029029   -1.815746    0.000000
                              0.059229    -0.000024    0.484643   -0.622157    0.474174    0.000000
                              0.027110     0.000030    0.093069   -0.442074    0.713597    1.000000
    6.1 Ag    1  1s           0.013000     1.000000
    7.1 Ag    1  3d0        226.693527     0.000015
                             73.010278     0.004108
                             38.536518     0.028223
                             18.726700     0.069323
                              9.155485     0.156045
                              4.540884     0.251238
                              2.241175     0.297463
                              1.085869     0.274981
                              0.510612     0.193098
                              0.229608     0.086393
                              0.095781     0.014645
    8.1 Ag    1  3d2+       226.693527     0.000015
                             73.010278     0.004108
                             38.536518     0.028223
                             18.726700     0.069323
                              9.155485     0.156045
                              4.540884     0.251238
                              2.241175     0.297463
                              1.085869     0.274981
                              0.510612     0.193098
                              0.229608     0.086393
                              0.095781     0.014645
    9.1 Ag    1  3d0        226.693527    -0.000013
                             73.010278    -0.005252
                             38.536518    -0.034982
                             18.726700    -0.088950
                              9.155485    -0.207194
                              4.540884    -0.302597
                              2.241175    -0.179327
                              1.085869     0.169069
                              0.510612     0.405904
                              0.229608     0.341871
                              0.095781     0.117080
   10.1 Ag    1  3d2+       226.693527    -0.000013
                             73.010278    -0.005252
                             38.536518    -0.034982
                             18.726700    -0.088950
                              9.155485    -0.207194
                              4.540884    -0.302597
                              2.241175    -0.179327
                              1.085869     0.169069
                              0.510612     0.405904
                              0.229608     0.341871
                              0.095781     0.117080
   11.1 Ag    1  3d0        226.693527     0.000016
                             73.010278     0.006157
                             38.536518     0.040361
                             18.726700     0.106038
                              9.155485     0.263299
                              4.540884     0.288496
                              2.241175    -0.186745
                              1.085869    -0.591539
                              0.510612    -0.138681
                              0.229608     0.547749
                              0.095781     0.362353
   12.1 Ag    1  3d2+       226.693527     0.000016
                             73.010278     0.006157
                             38.536518     0.040361
                             18.726700     0.106038
                              9.155485     0.263299
                              4.540884     0.288496
                              2.241175    -0.186745
                              1.085869    -0.591539
                              0.510612    -0.138681
                              0.229608     0.547749
                              0.095781     0.362353
   13.1 Ag    1  3d0        226.693527     0.000000
                             73.010278     0.000000
                             38.536518     0.000000
                             18.726700     0.000000
                              9.155485     0.000000
                              4.540884     0.000000
                              2.241175     0.000000
                              1.085869     0.000000
                              0.510612     0.000000
                              0.229608     0.000000
                              0.095781     1.000000
   14.1 Ag    1  3d2+       226.693527     0.000000
                             73.010278     0.000000
                             38.536518     0.000000
                             18.726700     0.000000
                              9.155485     0.000000
                              4.540884     0.000000
                              2.241175     0.000000
                              1.085869     0.000000
                              0.510612     0.000000
                              0.229608     0.000000
                              0.095781     1.000000
   15.1 Ag    1  3d0          0.045000     1.000000
   16.1 Ag    1  3d2+         0.045000     1.000000
   17.1 Ag    1  5g0          1.168290     1.000000
   18.1 Ag    1  5g4+         1.168290     1.000000
   19.1 Ag    1  5g2+         1.168290     1.000000
   20.1 Ag    1  5g0          3.445758     1.000000
   21.1 Ag    1  5g4+         3.445758     1.000000
   22.1 Ag    1  5g2+         3.445758     1.000000
    1.2 B3u   1  2px        159.152840     0.000026    0.000034   -0.000228   -0.000412    0.000000
    2.2 B3u                  83.322776    -0.000402   -0.000129    0.001414    0.001957    0.000000
    3.2 B3u                  44.840311     0.007405   -0.000802   -0.010290    0.000640    0.000000
    4.2 B3u                  25.020360    -0.030714    0.004747    0.043896   -0.036753    0.000000
    5.2 B3u                  13.610016    -0.074348    0.018595    0.052865   -0.147193    0.000000
                              7.761318     0.043430   -0.017692   -0.056565    0.297782    0.000000
                              4.303947     0.289703   -0.052614   -0.480715    0.705271    0.000000
                              2.290080     0.413467   -0.110349   -0.315984    0.196466    0.000000
                              1.202173     0.303762   -0.054701    0.075679   -1.659406    0.000000
                              0.607647     0.093494   -0.026655    1.060747    0.391500    0.000000
                              0.257656     0.006663    0.335880   -0.008061    1.243284    0.000000
                              0.090897     0.000567    0.509478   -0.701601   -0.957529    0.000000
                              0.041925     0.000176    0.302559    0.006941   -0.056091    1.000000
    6.2 B3u   1  2px          0.020000     1.000000
    7.2 B3u   1  4f1+         0.331485     1.000000
    8.2 B3u   1  4f3+         0.331485     1.000000
    9.2 B3u   1  4f1+         1.316717     1.000000
   10.2 B3u   1  4f3+         1.316717     1.000000
   11.2 B3u   1  4f1+         5.230236     1.000000
   12.2 B3u   1  4f3+         5.230236     1.000000
    1.3 B2u   1  2py        159.152840     0.000026    0.000034   -0.000228   -0.000412    0.000000
    2.3 B2u                  83.322776    -0.000402   -0.000129    0.001414    0.001957    0.000000
    3.3 B2u                  44.840311     0.007405   -0.000802   -0.010290    0.000640    0.000000
    4.3 B2u                  25.020360    -0.030714    0.004747    0.043896   -0.036753    0.000000
    5.3 B2u                  13.610016    -0.074348    0.018595    0.052865   -0.147193    0.000000
                              7.761318     0.043430   -0.017692   -0.056565    0.297782    0.000000
                              4.303947     0.289703   -0.052614   -0.480715    0.705271    0.000000
                              2.290080     0.413467   -0.110349   -0.315984    0.196466    0.000000
                              1.202173     0.303762   -0.054701    0.075679   -1.659406    0.000000
                              0.607647     0.093494   -0.026655    1.060747    0.391500    0.000000
                              0.257656     0.006663    0.335880   -0.008061    1.243284    0.000000
                              0.090897     0.000567    0.509478   -0.701601   -0.957529    0.000000
                              0.041925     0.000176    0.302559    0.006941   -0.056091    1.000000
    6.3 B2u   1  2py          0.020000     1.000000
    7.3 B2u   1  4f1-         0.331485     1.000000
    8.3 B2u   1  4f3-         0.331485     1.000000
    9.3 B2u   1  4f1-         1.316717     1.000000
   10.3 B2u   1  4f3-         1.316717     1.000000
   11.3 B2u   1  4f1-         5.230236     1.000000
   12.3 B2u   1  4f3-         5.230236     1.000000
    1.4 B1g   1  3d2-       226.693527     0.000015   -0.000013    0.000016    0.000000
    2.4 B1g                  73.010278     0.004108   -0.005252    0.006157    0.000000
    3.4 B1g                  38.536518     0.028223   -0.034982    0.040361    0.000000
    4.4 B1g                  18.726700     0.069323   -0.088950    0.106038    0.000000
                              9.155485     0.156045   -0.207194    0.263299    0.000000
                              4.540884     0.251238   -0.302597    0.288496    0.000000
                              2.241175     0.297463   -0.179327   -0.186745    0.000000
                              1.085869     0.274981    0.169069   -0.591539    0.000000
                              0.510612     0.193098    0.405904   -0.138681    0.000000
                              0.229608     0.086393    0.341871    0.547749    0.000000
                              0.095781     0.014645    0.117080    0.362353    1.000000
    5.4 B1g   1  3d2-         0.045000     1.000000
    6.4 B1g   1  5g2-         1.168290     1.000000
    7.4 B1g   1  5g4-         1.168290     1.000000
    8.4 B1g   1  5g2-         3.445758     1.000000
    9.4 B1g   1  5g4-         3.445758     1.000000
    1.5 B1u   1  2pz        159.152840     0.000026    0.000034   -0.000228   -0.000412    0.000000
    2.5 B1u                  83.322776    -0.000402   -0.000129    0.001414    0.001957    0.000000
    3.5 B1u                  44.840311     0.007405   -0.000802   -0.010290    0.000640    0.000000
    4.5 B1u                  25.020360    -0.030714    0.004747    0.043896   -0.036753    0.000000
    5.5 B1u                  13.610016    -0.074348    0.018595    0.052865   -0.147193    0.000000
                              7.761318     0.043430   -0.017692   -0.056565    0.297782    0.000000
                              4.303947     0.289703   -0.052614   -0.480715    0.705271    0.000000
                              2.290080     0.413467   -0.110349   -0.315984    0.196466    0.000000
                              1.202173     0.303762   -0.054701    0.075679   -1.659406    0.000000
                              0.607647     0.093494   -0.026655    1.060747    0.391500    0.000000
                              0.257656     0.006663    0.335880   -0.008061    1.243284    0.000000
                              0.090897     0.000567    0.509478   -0.701601   -0.957529    0.000000
                              0.041925     0.000176    0.302559    0.006941   -0.056091    1.000000
    6.5 B1u   1  2pz          0.020000     1.000000
    7.5 B1u   1  4f0          0.331485     1.000000
    8.5 B1u   1  4f2+         0.331485     1.000000
    9.5 B1u   1  4f0          1.316717     1.000000
   10.5 B1u   1  4f2+         1.316717     1.000000
   11.5 B1u   1  4f0          5.230236     1.000000
   12.5 B1u   1  4f2+         5.230236     1.000000
    1.6 B2g   1  3d1+       226.693527     0.000015   -0.000013    0.000016    0.000000
    2.6 B2g                  73.010278     0.004108   -0.005252    0.006157    0.000000
    3.6 B2g                  38.536518     0.028223   -0.034982    0.040361    0.000000
    4.6 B2g                  18.726700     0.069323   -0.088950    0.106038    0.000000
                              9.155485     0.156045   -0.207194    0.263299    0.000000
                              4.540884     0.251238   -0.302597    0.288496    0.000000
                              2.241175     0.297463   -0.179327   -0.186745    0.000000
                              1.085869     0.274981    0.169069   -0.591539    0.000000
                              0.510612     0.193098    0.405904   -0.138681    0.000000
                              0.229608     0.086393    0.341871    0.547749    0.000000
                              0.095781     0.014645    0.117080    0.362353    1.000000
    5.6 B2g   1  3d1+         0.045000     1.000000
    6.6 B2g   1  5g1+         1.168290     1.000000
    7.6 B2g   1  5g3+         1.168290     1.000000
    8.6 B2g   1  5g1+         3.445758     1.000000
    9.6 B2g   1  5g3+         3.445758     1.000000
    1.7 B3g   1  3d1-       226.693527     0.000015   -0.000013    0.000016    0.000000
    2.7 B3g                  73.010278     0.004108   -0.005252    0.006157    0.000000
    3.7 B3g                  38.536518     0.028223   -0.034982    0.040361    0.000000
    4.7 B3g                  18.726700     0.069323   -0.088950    0.106038    0.000000
                              9.155485     0.156045   -0.207194    0.263299    0.000000
                              4.540884     0.251238   -0.302597    0.288496    0.000000
                              2.241175     0.297463   -0.179327   -0.186745    0.000000
                              1.085869     0.274981    0.169069   -0.591539    0.000000
                              0.510612     0.193098    0.405904   -0.138681    0.000000
                              0.229608     0.086393    0.341871    0.547749    0.000000
                              0.095781     0.014645    0.117080    0.362353    1.000000
    5.7 B3g   1  3d1-         0.045000     1.000000
    6.7 B3g   1  5g1-         1.168290     1.000000
    7.7 B3g   1  5g3-         1.168290     1.000000
    8.7 B3g   1  5g1-         3.445758     1.000000
    9.7 B3g   1  5g3-         3.445758     1.000000
    1.8 Au    1  4f2-         0.331485     1.000000
    2.8 Au    1  4f2-         1.316717     1.000000
    3.8 Au    1  4f2-         5.230236     1.000000

 NUCLEAR CHARGE:                   19
 NUMBER OF PRIMITIVE AOS:         188
 NUMBER OF SYMMETRY AOS:          155
 NUMBER OF CONTRACTIONS:           88   (  22Ag  +  12B3u +  12B2u +   9B1g +  12B1u +   9B2g +   9B3g +   3Au  )
 NUMBER OF CORE ORBITALS:           4   (   1Ag  +   1B3u +   1B2u +   0B1g +   1B1u +   0B2g +   0B3g +   0Au  )
 NUMBER OF VALENCE ORBITALS:        6   (   3Ag  +   0B3u +   0B2u +   1B1g +   0B1u +   1B2g +   1B3g +   0Au  )


 NUCLEAR REPULSION ENERGY    0.00000000

 EXTRA SYMMETRY OF AOS IN SYMMETRY 1:   1 1 1 1 1 1 2 3 2 3   2 3 2 3 2 3 4 5 6 4   5 6
 EXTRA SYMMETRY OF AOS IN SYMMETRY 2:   1 1 1 1 1 1 2 3 2 3   2 3
 EXTRA SYMMETRY OF AOS IN SYMMETRY 3:   1 1 1 1 1 1 2 3 2 3   2 3
 EXTRA SYMMETRY OF AOS IN SYMMETRY 4:   1 1 1 1 1 2 3 2 3
 EXTRA SYMMETRY OF AOS IN SYMMETRY 5:   1 1 1 1 1 1 2 3 2 3   2 3
 EXTRA SYMMETRY OF AOS IN SYMMETRY 6:   1 1 1 1 1 2 3 2 3
 EXTRA SYMMETRY OF AOS IN SYMMETRY 7:   1 1 1 1 1 2 3 2 3

 Eigenvalues of metric

         1 0.694E-02 0.755E-01 0.755E-01 0.149E+00 0.484E+00 0.484E+00 0.536E+00 0.536E+00
         2 0.282E-01 0.391E+00 0.494E+00 0.494E+00 0.744E+00 0.965E+00 0.965E+00 0.994E+00
         3 0.282E-01 0.391E+00 0.494E+00 0.494E+00 0.744E+00 0.965E+00 0.965E+00 0.994E+00
         4 0.755E-01 0.484E+00 0.536E+00 0.536E+00 0.100E+01 0.101E+01 0.146E+01 0.146E+01
         5 0.282E-01 0.391E+00 0.494E+00 0.494E+00 0.744E+00 0.965E+00 0.965E+00 0.994E+00
         6 0.755E-01 0.484E+00 0.536E+00 0.536E+00 0.100E+01 0.101E+01 0.146E+01 0.146E+01
         7 0.755E-01 0.484E+00 0.536E+00 0.536E+00 0.100E+01 0.101E+01 0.146E+01 0.146E+01
         8 0.494E+00 0.965E+00 0.154E+01


 Contracted 2-electron integrals neglected if value below      1.0D-12
 AO integral compression algorithm  1   Integral accuracy      1.0D-12

     8.126 MB (compressed) written to integral file ( 56.4%)


 NUMBER OF SORTED TWO-ELECTRON INTEGRALS:    1019164.     BUFFER LENGTH:  32768
 NUMBER OF SEGMENTS:   1  SEGMENT LENGTH:    1019164      RECORD LENGTH: 524288

 Memory used in sort:       1.58 MW

 SORT1 READ     1855900. AND WROTE      770922. INTEGRALS IN      3 RECORDS. CPU TIME:     0.04 SEC, REAL TIME:     0.12 SEC
 SORT2 READ      770922. AND WROTE     1019164. INTEGRALS IN     31 RECORDS. CPU TIME:     0.07 SEC, REAL TIME:     0.14 SEC

 FILE SIZES:   FILE 1:    27.4 MBYTE,  FILE 4:    12.6 MBYTE,   TOTAL:     40.0 MBYTE

 OPERATOR DM      FOR CENTER  0  COORDINATES:    0.000000    0.000000    0.000000
 OPERATOR EKIN    FOR CENTER  0  COORDINATES:    0.000000    0.000000    0.000000
 OPERATOR POT     FOR CENTER  0  COORDINATES:    0.000000    0.000000    0.000000


 **********************************************************************************************************************************
 DATASETS  * FILE   NREC   LENGTH (MB)   RECORD NAMES
              1      20       23.74       500      610      700      900      950      970     1000      129      960     1100   
                                          VAR    BASINP    GEOM    SYMINP    ZMAT    AOBASIS   BASIS     P2S    ABASIS      S 
                                         1400     1410     1420     1200     1210     1080     1600     1650     1300     1700   
                                         EKIN       V       ECP      H0       H01     AOSYM     SMH    MOLCAS    ERIS     OPER   

 PROGRAMS   *        TOTAL       INT
 CPU TIMES  *         2.82      2.72
 REAL TIME  *        12.78 SEC
 DISK USED  *        40.32 MB      
 **********************************************************************************************************************************


 PROGRAM * RHF-SCF (OPEN SHELL)       Authors: W. Meyer, H.-J. Werner


 NUMBER OF ELECTRONS:      10+    9-    SPACE SYMMETRY=1    SPIN SYMMETRY: Doublet 
 CONVERGENCE THRESHOLDS:    1.00E-05 (Density)    1.00E-07 (Energy)
 MAX. NUMBER OF ITERATIONS:       60
 INTERPOLATION TYPE:            DIIS
 INTERPOLATION STEPS:              2 (START)      1 (STEP)
 LEVEL SHIFTS:                 -0.60 (CLOSED) -0.30 (OPEN) 


 Singly occupied orbitals:      4.1
 
 Extra symmetries of mos in symmetry 1:   1   3   2   1

   Atom=CU basis=cc-pVTZ-PP        lmin=0  lmax=2

 Orbital guess generated from atomic densities. Full valence occupancy:    4   1   1   1   1   1   1   0


 Molecular orbital dump at record        2100.2

 ITERATION    DDIFF          GRAD             ENERGY        2-EL.EN.            DIPOLE MOMENTS         DIIS   ORB.
    1      0.000D+00      0.000D+00      -195.20950029    307.371506    0.00000    0.00000    0.00000    0    start
    2      0.000D+00      0.580D-01      -195.24861455    326.876908    0.00000    0.00000    0.00000    1    diag,B
    3      0.162D-01      0.547D-01      -195.33555205    319.125942    0.00000    0.00000    0.00000    2    diag,B
    4      0.681D-02      0.366D-02      -195.33659397    318.968030    0.00000    0.00000    0.00000    3    diag,B
    5      0.222D-02      0.643D-03      -195.33697419    319.137785    0.00000    0.00000    0.00000    4    diag,B
    6      0.214D-02      0.209D-03      -195.33705798    319.206590    0.00000    0.00000    0.00000    5    diag,B
    7      0.108D-02      0.880D-04      -195.33707691    319.235116    0.00000    0.00000    0.00000    6    fixocc
    8      0.713D-03      0.263D-04      -195.33707749    319.240099    0.00000    0.00000    0.00000    7    diag,B
    9      0.113D-03      0.718D-05      -195.33707753    319.240276    0.00000    0.00000    0.00000    8    diag,B
   10      0.268D-04      0.139D-05      -195.33707753    319.240742    0.00000    0.00000    0.00000    9    orth
   11      0.316D-05      0.173D-06      -195.33707753    319.240687    0.00000    0.00000    0.00000    0    orth

 Final alpha occupancy:   4   1   1   1   1   1   1   0
 Final beta  occupancy:   3   1   1   1   1   1   1   0

 !RHF STATE 1.1 Energy               -195.337077526967
 Nuclear energy                         0.00000000
 One-electron energy                 -354.95742125
 Two-electron energy                  159.62034372
 Virial quotient                       -1.50112372
 !RHF STATE 1.1 Dipole moment           0.00000000     0.00000000     0.00000000
 Dipole moment /Debye                   0.00000000     0.00000000     0.00000000
 

 !RHF expec          <1.1|EKIN|1.1>   130.127233977904
 
 !RHF expec           <1.1|POT|1.1>   -26.463344942920

 ELECTRON ORBITALS
 =================


   Orb  Occ    Energy  Couls-En    Coefficients

                                   1 1s      1 1s      1 1s      1 1s      1 1s      1 1s      1 3d0     1 3d2+    1 3d0     1 3d2+ 
                                   1 3d0     1 3d2+    1 3d0     1 3d2+    1 3d0     1 3d2+    1 5g0     1 5g4+    1 5g2+    1 5g0  
                                   1 5g4+    1 5g2+ 

   1.1   2    -5.2068  -28.7567  1.000092  0.005775  0.005129  0.003544 -0.000671 -0.000172 -0.000000 -0.000000 -0.000000  0.000000
                                -0.000000  0.000000  0.000000  0.000000 -0.000000  0.000000  0.000000  0.000000  0.000000 -0.000000
                                -0.000000  0.000000

   2.1   2    -0.4798  -17.6806 -0.000000  0.000000  0.000000 -0.000000  0.000000  0.000000  0.000002  0.997124  0.000000  0.046588
                                 0.000000  0.017032  0.000000  0.011342 -0.000000 -0.002621 -0.000000 -0.000000 -0.000000  0.000000
                                 0.000000  0.000000

   3.1   2    -0.4798  -17.6806  0.000000  0.000000 -0.000000  0.000000  0.000000 -0.000000  0.997124 -0.000002  0.046588 -0.000000
                                 0.017032 -0.000000  0.011342 -0.000000 -0.002621  0.000000 -0.000000  0.000000 -0.000000 -0.000000
                                -0.000000  0.000000

   4.1   +    -0.2445   -7.0241 -0.010376  0.958624 -0.101519  0.021803  0.030563  0.012388 -0.000000 -0.000000  0.000000 -0.000000
                                 0.000000 -0.000000 -0.000000  0.000000  0.000000  0.000000 -0.000000  0.000000 -0.000000 -0.000000
                                -0.000000  0.000000

                                   1 2px     1 2px     1 2px     1 2px     1 2px     1 2px     1 4f1+    1 4f3+    1 4f1+    1 4f3+ 
                                   1 4f1+    1 4f3+ 

   1.2   2    -3.3767  -24.8884  1.000094  0.021460  0.020918  0.001815 -0.002074 -0.001812 -0.000000  0.000000 -0.000000 -0.000000
                                 0.000000  0.000000

                                   1 2py     1 2py     1 2py     1 2py     1 2py     1 2py     1 4f1-    1 4f3-    1 4f1-    1 4f3- 
                                   1 4f1-    1 4f3- 

   1.3   2    -3.3767  -24.8884  1.000094  0.021460  0.020918  0.001815 -0.002074 -0.001812 -0.000000 -0.000000 -0.000000  0.000000
                                 0.000000 -0.000000

                                   1 3d2-    1 3d2-    1 3d2-    1 3d2-    1 3d2-    1 5g2-    1 5g4-    1 5g2-    1 5g4- 

   1.4   2    -0.4798  -17.6806  0.997124  0.046588  0.017032  0.011342 -0.002621 -0.000000 -0.000000  0.000000  0.000000

                                   1 2pz     1 2pz     1 2pz     1 2pz     1 2pz     1 2pz     1 4f0     1 4f2+    1 4f0     1 4f2+ 
                                   1 4f0     1 4f2+ 

   1.5   2    -3.3767  -24.8884  1.000094  0.021460  0.020918  0.001815 -0.002074 -0.001812 -0.000000  0.000000 -0.000000 -0.000000
                                 0.000000  0.000000

                                   1 3d1+    1 3d1+    1 3d1+    1 3d1+    1 3d1+    1 5g1+    1 5g3+    1 5g1+    1 5g3+ 

   1.6   2    -0.4798  -17.6806  0.997124  0.046588  0.017032  0.011342 -0.002621 -0.000000 -0.000000 -0.000000  0.000000

                                   1 3d1-    1 3d1-    1 3d1-    1 3d1-    1 3d1-    1 5g1-    1 5g3-    1 5g1-    1 5g3- 

   1.7   2    -0.4798  -17.6806  0.997124  0.046588  0.017032  0.011342 -0.002621 -0.000000  0.000000 -0.000000 -0.000000

 HOMO      4.1    -0.244550 =      -6.6545eV
 LUMO      2.2     0.028785 =       0.7833eV
 LUMO-HOMO         0.273335 =       7.4378eV


 **********************************************************************************************************************************
 DATASETS  * FILE   NREC   LENGTH (MB)   RECORD NAMES
              1      20       23.74       500      610      700      900      950      970     1000      129      960     1100   
                                          VAR    BASINP    GEOM    SYMINP    ZMAT    AOBASIS   BASIS     P2S    ABASIS      S 
                                         1400     1410     1420     1200     1210     1080     1600     1650     1300     1700   
                                         EKIN       V       ECP      H0       H01     AOSYM     SMH    MOLCAS    ERIS     OPER   

              2       4        2.79       700     1000      520     2100   
                                         GEOM     BASIS   MCVARS     RHF  

 PROGRAMS   *        TOTAL        HF       INT
 CPU TIMES  *         2.91      0.09      2.72
 REAL TIME  *        13.01 SEC
 DISK USED  *        40.32 MB      
 **********************************************************************************************************************************
 SETTING SCF(I)         =      -195.33707753  AU                              
 SETTING _CC_NORM_MAX   =         2.00000000                                  


 PROGRAM * UHF-SCF       Authors: W. Meyer, H.-J. Werner


 NUMBER OF ELECTRONS:      10+    9-    SPACE SYMMETRY=1    SPIN SYMMETRY: Doublet 
 CONVERGENCE THRESHOLDS:    1.00E-05 (Density)    1.00E-07 (Energy)
 MAX. NUMBER OF ITERATIONS:        0
 INTERPOLATION TYPE:            DIIS
 INTERPOLATION STEPS:              2 (START)      1 (STEP)
 LEVEL SHIFTS:                  0.20 (ALPHA)   0.20 (BETA) 


 Singly occupied orbitals:      4.1
 
 Extra symmetries of mos in symmetry 1:   1   3   2   1
 Molecular orbitals read from record     2100.2  Type=RHF/CANONICAL (state 1.1)

 Molecular orbital dump at record        2200.2

 Initial alpha occupation   4   1   1   1   1   1   1   0
 Initial beta  occupation   3   1   1   1   1   1   1   0

 ITERATION    DDIFF          GRAD             ENERGY        2-EL.EN.            DIPOLE MOMENTS         DIIS
    1      0.000D+00      0.000D+00      -195.33707753    319.240687    0.00000    0.00000    0.00000    0
 
 Final alpha occupancy:   4   1   1   1   1   1   1   0
 Final beta  occupancy:   3   1   1   1   1   1   1   0

 !UHF STATE 1.1 Energy               -195.337077526967
 Nuclear energy                         0.00000000
 One-electron energy                 -354.95742125
 Two-electron energy                  159.62034372
 Virial quotient                       -1.50112372
 !UHF STATE 1.1 Dipole moment           0.00000000     0.00000000     0.00000000
 Dipole moment /Debye                   0.00000000     0.00000000     0.00000000
 

 !UHF expec          <1.1|EKIN|1.1>   130.127233977904
 
 !UHF expec           <1.1|POT|1.1>   -26.463344942920

 ELECTRON ORBITALS FOR POSITIVE SPIN
 ===================================


   Orb  Occ    Energy  Couls-En    Coefficients

                                   1 1s      1 1s      1 1s      1 1s      1 1s      1 1s      1 3d0     1 3d2+    1 3d0     1 3d2+ 
                                   1 3d0     1 3d2+    1 3d0     1 3d2+    1 3d0     1 3d2+    1 5g0     1 5g4+    1 5g2+    1 5g0  
                                   1 5g4+    1 5g2+ 

   1.1   +    -5.2068  -28.7567  1.000092  0.005775  0.005129  0.003544 -0.000671 -0.000172 -0.000000 -0.000000 -0.000000  0.000000
                                -0.000000  0.000000  0.000000  0.000000 -0.000000  0.000000  0.000000  0.000000  0.000000 -0.000000
                                -0.000000  0.000000

   2.1   +    -0.4798  -17.6806 -0.000000  0.000000  0.000000 -0.000000  0.000000  0.000000  0.000002  0.997124  0.000000  0.046588
                                 0.000000  0.017032  0.000000  0.011342 -0.000000 -0.002621 -0.000000 -0.000000 -0.000000  0.000000
                                 0.000000  0.000000

   3.1   +    -0.4798  -17.6806  0.000000  0.000000 -0.000000  0.000000  0.000000 -0.000000  0.997124 -0.000002  0.046588 -0.000000
                                 0.017032 -0.000000  0.011342 -0.000000 -0.002621  0.000000 -0.000000  0.000000 -0.000000 -0.000000
                                -0.000000  0.000000

   4.1   +    -0.2445   -7.0241 -0.010376  0.958624 -0.101519  0.021803  0.030563  0.012388 -0.000000 -0.000000  0.000000 -0.000000
                                 0.000000 -0.000000 -0.000000  0.000000  0.000000  0.000000 -0.000000  0.000000 -0.000000 -0.000000
                                -0.000000  0.000000

                                   1 2px     1 2px     1 2px     1 2px     1 2px     1 2px     1 4f1+    1 4f3+    1 4f1+    1 4f3+ 
                                   1 4f1+    1 4f3+ 

   1.2   +    -3.3767  -24.8884  1.000094  0.021460  0.020918  0.001815 -0.002074 -0.001812 -0.000000  0.000000 -0.000000 -0.000000
                                 0.000000  0.000000

                                   1 2py     1 2py     1 2py     1 2py     1 2py     1 2py     1 4f1-    1 4f3-    1 4f1-    1 4f3- 
                                   1 4f1-    1 4f3- 

   1.3   +    -3.3767  -24.8884  1.000094  0.021460  0.020918  0.001815 -0.002074 -0.001812 -0.000000 -0.000000 -0.000000  0.000000
                                 0.000000 -0.000000

                                   1 3d2-    1 3d2-    1 3d2-    1 3d2-    1 3d2-    1 5g2-    1 5g4-    1 5g2-    1 5g4- 

   1.4   +    -0.4798  -17.6806  0.997124  0.046588  0.017032  0.011342 -0.002621 -0.000000 -0.000000  0.000000  0.000000

                                   1 2pz     1 2pz     1 2pz     1 2pz     1 2pz     1 2pz     1 4f0     1 4f2+    1 4f0     1 4f2+ 
                                   1 4f0     1 4f2+ 

   1.5   +    -3.3767  -24.8884  1.000094  0.021460  0.020918  0.001815 -0.002074 -0.001812 -0.000000  0.000000 -0.000000 -0.000000
                                 0.000000  0.000000

                                   1 3d1+    1 3d1+    1 3d1+    1 3d1+    1 3d1+    1 5g1+    1 5g3+    1 5g1+    1 5g3+ 

   1.6   +    -0.4798  -17.6806  0.997124  0.046588  0.017032  0.011342 -0.002621 -0.000000 -0.000000 -0.000000  0.000000

                                   1 3d1-    1 3d1-    1 3d1-    1 3d1-    1 3d1-    1 5g1-    1 5g3-    1 5g1-    1 5g3- 

   1.7   +    -0.4798  -17.6806  0.997124  0.046588  0.017032  0.011342 -0.002621 -0.000000  0.000000 -0.000000 -0.000000

 ELECTRON ORBITALS FOR NEGATIVE SPIN
 ===================================


   Orb  Occ    Energy  Couls-En    Coefficients

                                   1 1s      1 1s      1 1s      1 1s      1 1s      1 1s      1 3d0     1 3d2+    1 3d0     1 3d2+ 
                                   1 3d0     1 3d2+    1 3d0     1 3d2+    1 3d0     1 3d2+    1 5g0     1 5g4+    1 5g2+    1 5g0  
                                   1 5g4+    1 5g2+ 

   1.1   -    -5.2068  -28.7567  1.000092  0.005775  0.005129  0.003544 -0.000671 -0.000172 -0.000000 -0.000000 -0.000000  0.000000
                                -0.000000  0.000000  0.000000  0.000000 -0.000000  0.000000  0.000000  0.000000  0.000000 -0.000000
                                -0.000000  0.000000

   2.1   -    -0.4798  -17.6806 -0.000000  0.000000  0.000000 -0.000000  0.000000  0.000000  0.000002  0.997124  0.000000  0.046588
                                 0.000000  0.017032  0.000000  0.011342 -0.000000 -0.002621 -0.000000 -0.000000 -0.000000  0.000000
                                 0.000000  0.000000

   3.1   -    -0.4798  -17.6806  0.000000  0.000000 -0.000000  0.000000  0.000000 -0.000000  0.997124 -0.000002  0.046588 -0.000000
                                 0.017032 -0.000000  0.011342 -0.000000 -0.002621  0.000000 -0.000000  0.000000 -0.000000 -0.000000
                                -0.000000  0.000000

                                   1 2px     1 2px     1 2px     1 2px     1 2px     1 2px     1 4f1+    1 4f3+    1 4f1+    1 4f3+ 
                                   1 4f1+    1 4f3+ 

   1.2   -    -3.3767  -24.8884  1.000094  0.021460  0.020918  0.001815 -0.002074 -0.001812 -0.000000  0.000000 -0.000000 -0.000000
                                 0.000000  0.000000

                                   1 2py     1 2py     1 2py     1 2py     1 2py     1 2py     1 4f1-    1 4f3-    1 4f1-    1 4f3- 
                                   1 4f1-    1 4f3- 

   1.3   -    -3.3767  -24.8884  1.000094  0.021460  0.020918  0.001815 -0.002074 -0.001812 -0.000000 -0.000000 -0.000000  0.000000
                                 0.000000 -0.000000

                                   1 3d2-    1 3d2-    1 3d2-    1 3d2-    1 3d2-    1 5g2-    1 5g4-    1 5g2-    1 5g4- 

   1.4   -    -0.4798  -17.6806  0.997124  0.046588  0.017032  0.011342 -0.002621 -0.000000 -0.000000  0.000000  0.000000

                                   1 2pz     1 2pz     1 2pz     1 2pz     1 2pz     1 2pz     1 4f0     1 4f2+    1 4f0     1 4f2+ 
                                   1 4f0     1 4f2+ 

   1.5   -    -3.3767  -24.8884  1.000094  0.021460  0.020918  0.001815 -0.002074 -0.001812 -0.000000  0.000000 -0.000000 -0.000000
                                 0.000000  0.000000

                                   1 3d1+    1 3d1+    1 3d1+    1 3d1+    1 3d1+    1 5g1+    1 5g3+    1 5g1+    1 5g3+ 

   1.6   -    -0.4798  -17.6806  0.997124  0.046588  0.017032  0.011342 -0.002621 -0.000000 -0.000000 -0.000000  0.000000

                                   1 3d1-    1 3d1-    1 3d1-    1 3d1-    1 3d1-    1 5g1-    1 5g3-    1 5g1-    1 5g3- 

   1.7   -    -0.4798  -17.6806  0.997124  0.046588  0.017032  0.011342 -0.002621 -0.000000  0.000000 -0.000000 -0.000000

 HOMO      4.1    -0.244550 =      -6.6545eV
 LUMO     -4.1    -0.244550 =      -6.6545eV
 LUMO-HOMO         0.000000 =       0.0000eV

 EXPECTATION VALUE OF S**2:             0.75000000

 Occupation number threshold for canonical orbitals:  1.999000 (occupied),  0.001000 (virtual)

 Number of pseudo-canonical orbitals per symmetry:    3   1   1   1   1   1   1   0
 Number of active natural orbitals per symmetry:      1   0   0   0   0   0   0   0

 NATURAL CHARGE ORBITALS
 =======================


   Orb     Occ        Energy       Coefficients

                                   1 1s      1 1s      1 1s      1 1s      1 1s      1 1s      1 3d0     1 3d2+    1 3d0     1 3d2+ 
                                   1 3d0     1 3d2+    1 3d0     1 3d2+    1 3d0     1 3d2+    1 5g0     1 5g4+    1 5g2+    1 5g0  
                                   1 5g4+    1 5g2+ 

   1.1  2.00000    -5.206848     1.000092  0.005775  0.005129  0.003544 -0.000671 -0.000172 -0.000000  0.000000 -0.000000  0.000000
                                -0.000000  0.000000  0.000000  0.000000 -0.000000  0.000000  0.000000  0.000000  0.000000 -0.000000
                                -0.000000  0.000000

   2.1  2.00000    -0.479818    -0.000000 -0.000000  0.000000 -0.000000 -0.000000  0.000000 -0.000918  0.997124 -0.000043  0.046588
                                -0.000016  0.017032 -0.000010  0.011342  0.000002 -0.002621  0.000000 -0.000000 -0.000000  0.000000
                                 0.000000  0.000000

   3.1  2.00000    -0.479818     0.000000  0.000000 -0.000000  0.000000  0.000000 -0.000000  0.997124  0.000918  0.046588  0.000043
                                 0.017032  0.000016  0.011342  0.000010 -0.002621 -0.000002 -0.000000  0.000000 -0.000000 -0.000000
                                -0.000000  0.000000

   4.1  1.00000    -0.105048    -0.010376  0.958624 -0.101519  0.021803  0.030563  0.012388 -0.000000 -0.000000  0.000000 -0.000000
                                 0.000000 -0.000000 -0.000000  0.000000  0.000000  0.000000 -0.000000  0.000000 -0.000000 -0.000000
                                -0.000000  0.000000

                                   1 2px     1 2px     1 2px     1 2px     1 2px     1 2px     1 4f1+    1 4f3+    1 4f1+    1 4f3+ 
                                   1 4f1+    1 4f3+ 

   1.2  2.00000    -3.376716     1.000094  0.021460  0.020918  0.001815 -0.002074 -0.001812 -0.000000  0.000000 -0.000000 -0.000000
                                 0.000000  0.000000

                                   1 2py     1 2py     1 2py     1 2py     1 2py     1 2py     1 4f1-    1 4f3-    1 4f1-    1 4f3- 
                                   1 4f1-    1 4f3- 

   1.3  2.00000    -3.376716     1.000094  0.021460  0.020918  0.001815 -0.002074 -0.001812 -0.000000 -0.000000 -0.000000  0.000000
                                 0.000000 -0.000000

                                   1 3d2-    1 3d2-    1 3d2-    1 3d2-    1 3d2-    1 5g2-    1 5g4-    1 5g2-    1 5g4- 

   1.4  2.00000    -0.479817     0.997124  0.046588  0.017032  0.011342 -0.002621 -0.000000 -0.000000  0.000000  0.000000

                                   1 2pz     1 2pz     1 2pz     1 2pz     1 2pz     1 2pz     1 4f0     1 4f2+    1 4f0     1 4f2+ 
                                   1 4f0     1 4f2+ 

   1.5  2.00000    -3.376716     1.000094  0.021460  0.020918  0.001815 -0.002074 -0.001812 -0.000000  0.000000 -0.000000 -0.000000
                                 0.000000  0.000000

                                   1 3d1+    1 3d1+    1 3d1+    1 3d1+    1 3d1+    1 5g1+    1 5g3+    1 5g1+    1 5g3+ 

   1.6  2.00000    -0.479817     0.997124  0.046588  0.017032  0.011342 -0.002621 -0.000000 -0.000000 -0.000000  0.000000

                                   1 3d1-    1 3d1-    1 3d1-    1 3d1-    1 3d1-    1 5g1-    1 5g3-    1 5g1-    1 5g3- 

   1.7  2.00000    -0.479817     0.997124  0.046588  0.017032  0.011342 -0.002621 -0.000000  0.000000 -0.000000 -0.000000

 Natural orbitals saved to record    2200.2 (Orbital set 3)

 Orbital spaces for UNO-CAS (Min. occupation: 0.020  Max. occupation: 1.980):

 Closed:        3   1   1   1   1   1   1   0
 Active:        1   0   0   0   0   0   0   0

 No convergence



 **********************************************************************************************************************************
 DATASETS  * FILE   NREC   LENGTH (MB)   RECORD NAMES
              1      20       23.74       500      610      700      900      950      970     1000      129      960     1100   
                                          VAR    BASINP    GEOM    SYMINP    ZMAT    AOBASIS   BASIS     P2S    ABASIS      S 
                                         1400     1410     1420     1200     1210     1080     1600     1650     1300     1700   
                                         EKIN       V       ECP      H0       H01     AOSYM     SMH    MOLCAS    ERIS     OPER   

              2       5        5.35       700     1000      520     2100     2200   
                                         GEOM     BASIS   MCVARS     RHF      UHF  

 PROGRAMS   *        TOTAL       UHF        HF       INT
 CPU TIMES  *         2.94      0.02      0.09      2.72
 REAL TIME  *        13.11 SEC
 DISK USED  *        40.32 MB      
 **********************************************************************************************************************************
 SETTING SCF(I)         =      -195.33707753  AU                              


 PROGRAM * MRCC (General Multireference Coupled Cluster)    Author: M. Kallay, 2000-2005

 ***  Initialisation ***

   0 Spin projections
 
 Molecular orbitals read from record     2200.2  Type=UHF/ALPHA (state 1.1)

 ?Warning: UHF not converged
 Molecular orbitals read from record     2200.2  Type=UHF/BETA (state 1.1)

 ?Warning: UHF not converged
 
 Frozen orbitals:              0 (  0  0  0  0  0  0  0  0)
 Active orbitals:             88 ( 22 12 12  9 12  9  9  3)
 Active electrons:            19
 Spin quantum number:          0.5

 Transformed integrals will be written to file mrcc_38528/fort.55

 Load integrals                3.0 sec
 Transform integrals           3.5 sec
 Storage for integrals:        5889086
 Remaining memory:           *********

 Core energy:               0.00000000
 
 MRCC Input:
     4     0     0     0     3     0     0     1     0     0     0     1     1     0     0     7     0     0   0.000     0   64000
  ex.lev,nsing,ntrip, rest,method,dens,conver,symm, diag, CS ,spatial, HF, ndoub,nacto,nactv, tol, maxex, sacc, freq,  dboc,   mem
  2  2  2  1  0  0  0  0  0  0  0  0  0  0  0  0  0  0  0  0  0  0  2  0  0  0  0  0  0  0  0  0  0  0  2  0  0  0  0  0  0  0  0  0  0  0  2  0  0  0  0  0  0  0  0  2  0  0  0  0  0  0  0  0  0  0  0  2  0  0  0  0  0  0  0  0  2  0  0  0  0  0  0  0  0  0  0  0
 MRCC Input end
 Variable memory released
 MRCC now being run, temporary output in /global/cscratch1/sd/aannabe/mrcc_38528/mrcc.out
 **********************************************************************
                          MRCC program system
 **********************************************************************

                              Written by
  Mihaly Kallay, Zoltan Rolik, Jozsef Csontos, Peter Nagy, Gyula Samu,
      David Mester, Jozsef Csoka, Bernat Szabo, Istvan Ladjanszki,
       Lorant Szegedy, Bence Ladoczki, Klara Petrov, Mate Farkas,
                    Pal D. Mezei, and Bence Hegely

        Department of Physical Chemistry and Materials Science
            Budapest University of Technology and Economics
                  Budapest P.O.Box 91, H-1521 Hungary

                              www.mrcc.hu

                       Release date: May 23, 2018

 ************************ 2018-06-15 17:01:37 *************************
 Executing goldstone...

 Generation of CC equations in terms of H and T...
 Generation of antisymmetrized Goldstone diagrams...
 Number of diagrams in T^1 equations:    15
 Number of diagrams in T^2 equations:    38
 Number of diagrams in T^3 equations:    49
 Number of diagrams in T^4 equations:     5
 Translation of diagrams to factorized equations...
 Optimizing intermediate calculation...
 Number of floating-point operations per iteration step:   1.0462E+13
 Probable CPU time per iteration step (hours):    104.62
 Required memory (Mbytes):   90042.9
 Number of intermediates:                                  80
 Number of intermediates to be stored:                     31
 Length of intermediate file (Mbytes):     366.9

 ************************ 2018-06-15 17:01:38 *************************
 Executing xmrcc...

 **********************************************************************
 CC(3)(4) calculation


 Allocation of****** Mbytes of memory...
 Number of spinorbitals:                   176
 Number of alpha electrons:                       10
 Number of beta electrons:                         9
 Spin multiplicity:                     2
 z-component of spin:  0.5
 Spatial symmetry:                      1
 Convergence criterion:  1.0E-07
 Construction of occupation graphs...
 Number of                     0 -fold excitations:                      1
 Number of                     1 -fold excitations:                    243
 Number of                     2 -fold excitations:                 101910
 Number of                     3 -fold excitations:               24802745
 Total number of configurations:               24904899
 Calculation of coupling coefficients...
 Length of intermediate file (Mbytes):     253.7

 ======================================================================

 Spin case  1   Alpha:  0   Beta:  4
 Number of excitations:               23667627
 Spin case  2   Alpha:  1   Beta:  3
 Number of excitations:              647576712
 Spin case  3   Alpha:  2   Beta:  2
 Number of excitations:             1873585035
 Spin case  4   Alpha:  3   Beta:  1
 Number of excitations:              811308144
 Spin case  5   Alpha:  4   Beta:  0
 Number of excitations:               37449720
 Number of                     4 -fold excitations:             3393587238

 Memory requirements /Mbyte/:
               Minimal        Optimal
 Real*8:        382.0989       457.6533
 Integer:        43.5942
 Total:         425.6932       501.2476


 ************************ 2018-06-15 17:01:45 *************************
 Executing mrcc...

 **********************************************************************
 CCSDT(Q) calculation


 OpenMP parallel version is running.
 Number of CPUs:   1
 Allocation of  457.7 Mbytes of memory...
 Number of spinorbitals: 176
 Number of alpha electrons: 10
 Number of beta  electrons:  9
 Spin multiplicity: 2
 z-component of spin:  0.5
 Spatial symmetry: 1
 Convergence criterion:  1.0E-07
 Construction of occupation graphs...
 Number of 0-fold excitations: 1
 Number of 1-fold excitations: 243
 Number of 2-fold excitations: 101910
 Number of 3-fold excitations: 24802745
 Total number of determinants: 24904899
 Calculation of coupling coefficients...
 Initial cluster amplitudes are generated.
 Length of intermediate file (Mbytes):     253.7
 Reading integral list from unit 55...
 Sorting integrals...
 Sorting integrals...
 Sorting integrals...
 Sorting integrals...
 Energy of reference determinant [au]:    -195.337077526967
 Calculation of MP denominators...

 Starting CC iteration...
 ======================================================================
 Norm of residual vector:     3.47054381
 CPU time [min]:     5.898                   Wall time [min]:     5.907

 Iteration  1  CC energy:  -196.27406541  Energy decrease:   0.93698789
 ======================================================================
 Norm of residual vector:     0.95970263
 CPU time [min]:    11.560                   Wall time [min]:    11.576

 Iteration  2  CC energy:  -196.16049688  Energy decrease:   0.11356854
 ======================================================================
 Norm of residual vector:     0.25531072
 CPU time [min]:    17.950                   Wall time [min]:    18.023

 Iteration  3  CC energy:  -196.16910305  Energy decrease:   0.00860617
 ======================================================================
 Norm of residual vector:     0.10066752
 CPU time [min]:    24.895                   Wall time [min]:    24.996

 Iteration  4  CC energy:  -196.18977136  Energy decrease:   0.02066831
 ======================================================================
 Norm of residual vector:     0.04735448
 CPU time [min]:    31.409                   Wall time [min]:    31.614

 Iteration  5  CC energy:  -196.19481377  Energy decrease:   0.00504241
 ======================================================================
 Norm of residual vector:     0.02787379
 CPU time [min]:    38.235                   Wall time [min]:    38.447

 Iteration  6  CC energy:  -196.19300058  Energy decrease:   0.00181319
 ======================================================================
 Norm of residual vector:     0.01323356
 CPU time [min]:    44.290                   Wall time [min]:    44.514

 Iteration  7  CC energy:  -196.19217099  Energy decrease:   0.00082959
 ======================================================================
 Norm of residual vector:     0.00534177
 CPU time [min]:    50.565                   Wall time [min]:    50.795

 Iteration  8  CC energy:  -196.19199837  Energy decrease:   0.00017262
 ======================================================================
 Norm of residual vector:     0.00297594
 CPU time [min]:    56.860                   Wall time [min]:    57.094

 Iteration  9  CC energy:  -196.19212965  Energy decrease:   0.00013128
 ======================================================================
 Norm of residual vector:     0.00163037
 CPU time [min]:    63.234                   Wall time [min]:    63.473

 Iteration 10  CC energy:  -196.19225334  Energy decrease:   0.00012368
 ======================================================================
 Norm of residual vector:     0.00088299
 CPU time [min]:    69.614                   Wall time [min]:    69.860

 Iteration 11  CC energy:  -196.19226410  Energy decrease:   0.00001076
 ======================================================================
 Norm of residual vector:     0.00045159
 CPU time [min]:    76.055                   Wall time [min]:    76.306

 Iteration 12  CC energy:  -196.19225079  Energy decrease:   0.00001331
 ======================================================================
 Norm of residual vector:     0.00024410
 CPU time [min]:    82.688                   Wall time [min]:    82.951

 Iteration 13  CC energy:  -196.19224465  Energy decrease:   0.00000613
 ======================================================================
 Norm of residual vector:     0.00010883
 CPU time [min]:    89.562                   Wall time [min]:    89.830

 Iteration 14  CC energy:  -196.19224627  Energy decrease:   0.00000162
 ======================================================================
 Norm of residual vector:     0.00006674
 CPU time [min]:    95.866                   Wall time [min]:    96.144

 Iteration 15  CC energy:  -196.19224745  Energy decrease:   0.00000117
 ======================================================================
 Norm of residual vector:     0.00003377
 CPU time [min]:   102.155                   Wall time [min]:   102.442

 Iteration 16  CC energy:  -196.19224720  Energy decrease:   0.00000025
 ======================================================================
 Norm of residual vector:     0.00001703
 CPU time [min]:   108.097                   Wall time [min]:   108.561

 Iteration 17  CC energy:  -196.19224695  Energy decrease:   0.00000025
 ======================================================================
 Norm of residual vector:     0.00000921
 CPU time [min]:   114.675                   Wall time [min]:   115.153

 Iteration 18  CC energy:  -196.19224696  Energy decrease:   0.00000001
 ======================================================================
 Norm of residual vector:     0.00000484
 CPU time [min]:   121.236                   Wall time [min]:   121.915

 Iteration 19  CC energy:  -196.19224701  Energy decrease:   0.00000005
 ======================================================================
 Norm of residual vector:     0.00000239
 CPU time [min]:   127.739                   Wall time [min]:   128.427

 Iteration 20  CC energy:  -196.19224701  Energy decrease:   7.6312E-10
 ======================================================================
 Norm of residual vector:     0.00000126
 CPU time [min]:   134.437                   Wall time [min]:   135.329

 Iteration 21  CC energy:  -196.19224701  Energy decrease:   2.2030E-09
 ======================================================================
 Norm of residual vector:     0.00000060
 CPU time [min]:   140.695                   Wall time [min]:   141.598

 Iteration 22  CC energy:  -196.19224701  Energy decrease:   6.5705E-10
 ======================================================================
 Norm of residual vector:     0.00000028
 CPU time [min]:   146.933                   Wall time [min]:   147.840

 Iteration 23  CC energy:  -196.19224701  Energy decrease:   3.6084E-10
 ======================================================================
 Norm of residual vector:     0.00000014
 CPU time [min]:   153.160                   Wall time [min]:   154.071

 Iteration 24  CC energy:  -196.19224701  Energy decrease:   8.1761E-10
 ======================================================================
 Norm of residual vector:     0.00000007
 CPU time [min]:   158.789                   Wall time [min]:   159.704

 Iteration 25  CC energy:  -196.19224701  Energy decrease:   4.5458E-10
 ======================================================================

 Iteration has converged in 25 steps.

 Final results:
 Total CCSDT energy [au]:           -196.192247007104
 Total MP2 energy [au]:             -196.274065414921

 Perturbative corrections are calculated...
 ======================================================================
 Spin case  1   Alpha:  0   Beta:  4
 Number of excitations:        23667627
 CPU time [min]:   173.462                   Wall time [min]:   174.386
 ======================================================================
 Spin case  2   Alpha:  1   Beta:  3
 Number of excitations:        647576712
 CPU time [min]:   507.865                   Wall time [min]:   508.815
 ======================================================================
 Spin case  3   Alpha:  2   Beta:  2
 Number of excitations:        1873585035
 CPU time [min]:  1081.875                   Wall time [min]:  1082.902
 ======================================================================
 Spin case  4   Alpha:  3   Beta:  1
 Number of excitations:        811308144
 CPU time [min]:  1271.835                   Wall time [min]:  1272.899
 ======================================================================
 Spin case  5   Alpha:  4   Beta:  0
 Number of excitations:        37449720
 CPU time [min]:  1281.087                   Wall time [min]:  1282.163
 ======================================================================
 Number of 4-fold excitations: 3393587238
 CPU time [min]:  1281.087                   Wall time [min]:  1282.164

 Total CCSDT[Q] energy [au]:        -196.187399281253
 Total CCSDT(Q) energy [au]:        -196.191619023659

 ************************ 2018-06-16 14:23:55 *************************
                      Normal termination of mrcc.
 **********************************************************************
 !CCSDT STATE 1.1 Energy             -196.192247007104
 !MP2 STATE 1.1 Energy               -196.274065414921
 !CCSDT[Q] STATE 1.1 Energy          -196.187399281253
 !CCSDT(Q) STATE 1.1 Energy          -196.191619023659
 
 CPU-time for MRCC:          76865.2 sec
 Elapsed-time for MRCC:      76939.6 sec

 Variable memory set to 8000000000 words,  buffer space   230000 words



 **********************************************************************************************************************************
 DATASETS  * FILE   NREC   LENGTH (MB)   RECORD NAMES
              1      20       23.74       500      610      700      900      950      970     1000      129      960     1100   
                                          VAR    BASINP    GEOM    SYMINP    ZMAT    AOBASIS   BASIS     P2S    ABASIS      S 
                                         1400     1410     1420     1200     1210     1080     1600     1650     1300     1700   
                                         EKIN       V       ECP      H0       H01     AOSYM     SMH    MOLCAS    ERIS     OPER   

              2       5        5.35       700     1000      520     2100     2200   
                                         GEOM     BASIS   MCVARS     RHF      UHF  

 PROGRAMS   *        TOTAL      MRCC       UHF        HF       INT
 CPU TIMES  *     76882.77  76879.83      0.02      0.09      2.72
 REAL TIME  *     77031.74 SEC
 DISK USED  *        40.32 MB      
 **********************************************************************************************************************************
 SETTING POSTHF(I)      =      -196.19161902  AU                              
                                                                                                                                                                                                                                                                

         SCF            POSTHF        EKIN          POT
    -195.3370775   -196.1916190   130.1272340   -26.46334494
                                                  

 CCSDT(Q)/USERDEF energy=   -196.191619023659

        CCSDT(Q)        UHF-SCF         HF-SCF  
   -196.19161902   -195.33707753   -195.33707753
 **********************************************************************************************************************************
 Variable memory released
