
 Primary working directories    : /global/cscratch1/sd/aannabe
 Secondary working directories  : /global/cscratch1/sd/aannabe
 Wavefunction directory         : /global/homes/a/aannabe/wfu/
 Main file repository           : /global/cscratch1/sd/aannabe/

 SHA1      : 2873118e99aab1bc19f5b6fc1784693c06d15c95
 NAME      : 2015.1.8
 ARCHNAME  : linux/x86_64
 FC        : /opt/cray/pe/craype/2.5.5/bin/ftn
 BLASLIB   : -Wl,-_start-group /opt/intel/compilers_and_libraries_2016.3.210/linux/mkl/lib/intel64/libmkl_intel_ilp64.a /opt/intel/compilers_and_libraries_2016.3.210/linux/mkl/lib/intel64/libmkl_intel_thread.a /opt/intel/compilers_and_libraries_2016.3.210/linux/mkl/lib/intel64/libmkl_core.a -Wl,-_end-group
 id        : lbl

 Nodes     nprocs
 nid00456     1

 Using customized tuning parameters: mindgm=8; mindgv=16; mindgc=4; mindgr=1; noblas=0; minvec=7
 default implementation of scratch files=df  

 ***,B
 memory,512,m
 gthresh,twoint=1.e-12
 
 gprint,basis,orbitals
 gexpec,ekin,pot
 
 angstrom
 geometry={
 1                                                                               ! Number of atoms
 B 0.0 0.0 0.0
 }
 
 basis={
 Including file /global/homes/a/aannabe/docs/totals/pps/B.pp
 Including file /global/homes/a/aannabe/docs/totals/basis/aug-cc-pVnZ/B_dz.basis
 }
 
 {hf
 wf,3,2,1
 occ,1,1,0,0,0,0,0,0
 open,1.2
                                                                                 !closed,1,0,0,0,0,0,0,0
                                                                                 !sym,
 }
 scf(i)=energy
 
 _CC_NORM_MAX=2.0
 {uccsd(t)
 maxit,100
 core
 }
 posthf(i)=energy
 
 table,scf,posthf,ekin,pot
 save,2.csv
 
 

 Variables initialized (889), CPU time= 0.01 sec
 Commands  initialized (702), CPU time= 0.01 sec, 572 directives.
 Default parameters read. Elapsed time= 0.09 sec

 Checking input...
 Passed
1


                                         ***  PROGRAM SYSTEM MOLPRO  ***
                                       Copyright, TTI GmbH Stuttgart, 2015
                                    Version 2015.1 linked Sep  7 2016 23:09:38


 **********************************************************************************************************************************
 LABEL *   B                                                                             
  64 bit serial version                                                                  DATE: 11-Jun-18          TIME: 14:21:05  
 **********************************************************************************************************************************

 SHA1:             2873118e99aab1bc19f5b6fc1784693c06d15c95
 **********************************************************************************************************************************

 THRESHOLDS:

 ZERO    =  1.00D-12  ONEINT  =  1.00D-12  TWOINT  =  1.00D-12  PREFAC  =  1.00D-14  LOCALI  =  1.00D-09  EORDER  =  1.00D-04
 ENERGY  =  0.00D+00  ETEST   =  0.00D+00  EDENS   =  0.00D+00  THRDEDEF=  1.00D-06  GRADIENT=  1.00D-02  STEP    =  1.00D-03
 ORBITAL =  1.00D-05  CIVEC   =  1.00D-05  COEFF   =  1.00D-04  PRINTCI =  5.00D-02  PUNCHCI =  9.90D+01  OPTGRAD =  3.00D-04
 OPTENERG=  1.00D-06  OPTSTEP =  3.00D-04  THRGRAD =  1.00D-10  COMPRESS=  1.00D-11  VARMIN  =  1.00D-07  VARMAX  =  1.00D-03
 THRDOUB =  0.00D+00  THRDIV  =  1.00D-05  THRRED  =  1.00D-07  THRPSP  =  1.00D+00  THRDC   =  1.00D-10  THRCS   =  1.00D-10
 THRNRM  =  1.00D-08  THREQ   =  0.00D+00  THRDE   =  1.00D+00  THRREF  =  1.00D-05  SPARFAC =  1.00D+00  THRDLP  =  1.00D-07
 THRDIA  =  1.00D-10  THRDLS  =  1.00D-07  THRGPS  =  0.00D+00  THRKEX  =  0.00D+00  THRDIS  =  2.00D-01  THRVAR  =  1.00D-10
 THRLOC  =  1.00D-06  THRGAP  =  1.00D-06  THRLOCT = -1.00D+00  THRGAPT = -1.00D+00  THRORB  =  1.00D-06  THRMLTP =  0.00D+00
 THRCPQCI=  1.00D-10  KEXTA   =  0.00D+00  THRCOARS=  0.00D+00  SYMTOL  =  1.00D-06  GRADTOL =  1.00D-06  THROVL  =  1.00D-08
 THRORTH =  1.00D-08  GRID    =  1.00D-06  GRIDMAX =  1.00D-03  DTMAX   =  0.00D+00  THROCCDE=  1.00D-01  THROCCDE=  1.00D-01



 ZUNIT=ANG
 

Geometry recognized as XYZ


 Variable memory set to  512000000 words,  buffer space   230000 words

 SETTING BASIS          =    USERDEF


 Recomputing integrals since basis changed


 Using spherical harmonics



 PROGRAM * SEWARD (Integral evaluation for generally contracted gaussian basis sets)     Author: Roland Lindh, 1990

 Geometry written to block  1 of record 700

 Orientation using atomic masses  
 Molecule type: Atom
 Symmetry elements: X,Y,Z
 Rotational constants:       0.0000000      0.0000000      0.0000000 GHz  (calculated with average atomic masses)

 Point group  D2h 



 ATOMIC COORDINATES

 NR  ATOM    CHARGE       X              Y              Z

   1  B       3.00    0.000000000    0.000000000    0.000000000


          B   CORE POTENTIAL

          p POTENTIAL

 POWERS             1              3              2
 EXPONENTIALS   31.49298       22.56509       8.646690    
 COEFFICIENTS   3.000000       94.47895      -9.748000    

          s - p POTENTIAL

 POWERS             2
 EXPONENTIALS   4.062460    
 COEFFICIENTS   20.74800    


 BASIS DATA

   Nr Sym  Nuc  Type         Exponents   Contraction coefficients

    1.1 Ag    1  1s          11.760500    -0.003676
                              5.150520     0.025052
                              2.578276    -0.124923
                              1.290648    -0.066287
                              0.646080     0.100734
                              0.323418     0.337549
                              0.161898     0.430843
                              0.081044     0.248656
                              0.040569     0.031730
    2.1 Ag    1  1s           0.082513     1.000000
    3.1 Ag    1  1s           0.033005     1.000000
    4.1 Ag    1  3d0          0.349879     1.000000
    5.1 Ag    1  3d2+         0.349879     1.000000
    6.1 Ag    1  3d0          0.139952     1.000000
    7.1 Ag    1  3d2+         0.139952     1.000000
    1.2 B3u   1  2px          7.470701     0.004740
                              3.735743     0.037601
                              1.868068     0.051060
                              0.934132     0.145659
                              0.467115     0.223793
                              0.233582     0.319947
                              0.116803     0.285019
                              0.058408     0.144881
                              0.029207     0.017696
    2.2 B3u   1  2px          0.086803     1.000000
    3.2 B3u   1  2px          0.034721     1.000000
    1.3 B2u   1  2py          7.470701     0.004740
                              3.735743     0.037601
                              1.868068     0.051060
                              0.934132     0.145659
                              0.467115     0.223793
                              0.233582     0.319947
                              0.116803     0.285019
                              0.058408     0.144881
                              0.029207     0.017696
    2.3 B2u   1  2py          0.086803     1.000000
    3.3 B2u   1  2py          0.034721     1.000000
    1.4 B1g   1  3d2-         0.349879     1.000000
    2.4 B1g   1  3d2-         0.139952     1.000000
    1.5 B1u   1  2pz          7.470701     0.004740
                              3.735743     0.037601
                              1.868068     0.051060
                              0.934132     0.145659
                              0.467115     0.223793
                              0.233582     0.319947
                              0.116803     0.285019
                              0.058408     0.144881
                              0.029207     0.017696
    2.5 B1u   1  2pz          0.086803     1.000000
    3.5 B1u   1  2pz          0.034721     1.000000
    1.6 B2g   1  3d1+         0.349879     1.000000
    2.6 B2g   1  3d1+         0.139952     1.000000
    1.7 B3g   1  3d1-         0.349879     1.000000
    2.7 B3g   1  3d1-         0.139952     1.000000

 NUCLEAR CHARGE:                    3
 NUMBER OF PRIMITIVE AOS:          56
 NUMBER OF SYMMETRY AOS:           54
 NUMBER OF CONTRACTIONS:           22   (   7Ag  +   3B3u +   3B2u +   2B1g +   3B1u +   2B2g +   2B3g +   0Au  )
 NUMBER OF CORE ORBITALS:           0   (   0Ag  +   0B3u +   0B2u +   0B1g +   0B1u +   0B2g +   0B3g +   0Au  )
 NUMBER OF VALENCE ORBITALS:        4   (   1Ag  +   1B3u +   1B2u +   0B1g +   1B1u +   0B2g +   0B3g +   0Au  )


 NUCLEAR REPULSION ENERGY    0.00000000

 EXTRA SYMMETRY OF AOS IN SYMMETRY 1:   1 1 1 2 3 2 3

 Eigenvalues of metric

         1 0.298E-01 0.299E+00 0.299E+00 0.324E+00 0.170E+01 0.170E+01 0.265E+01
         2 0.105E+00 0.491E+00 0.240E+01
         3 0.105E+00 0.491E+00 0.240E+01
         4 0.299E+00 0.170E+01
         5 0.105E+00 0.491E+00 0.240E+01
         6 0.299E+00 0.170E+01
         7 0.299E+00 0.170E+01


 Contracted 2-electron integrals neglected if value below      1.0D-12
 AO integral compression algorithm  1   Integral accuracy      1.0D-12

     0.262 MB (compressed) written to integral file (100.0%)


 NUMBER OF SORTED TWO-ELECTRON INTEGRALS:       5272.     BUFFER LENGTH:  32768
 NUMBER OF SEGMENTS:   1  SEGMENT LENGTH:       5272      RECORD LENGTH: 524288

 Memory used in sort:       0.56 MW

 SORT1 READ       12220. AND WROTE        4734. INTEGRALS IN      1 RECORDS. CPU TIME:     0.00 SEC, REAL TIME:     0.01 SEC
 SORT2 READ        4734. AND WROTE        5272. INTEGRALS IN      1 RECORDS. CPU TIME:     0.01 SEC, REAL TIME:     0.02 SEC

 FILE SIZES:   FILE 1:    19.3 MBYTE,  FILE 4:     4.2 MBYTE,   TOTAL:     23.6 MBYTE

 OPERATOR DM      FOR CENTER  0  COORDINATES:    0.000000    0.000000    0.000000
 OPERATOR EKIN    FOR CENTER  0  COORDINATES:    0.000000    0.000000    0.000000
 OPERATOR POT     FOR CENTER  0  COORDINATES:    0.000000    0.000000    0.000000


 **********************************************************************************************************************************
 DATASETS  * FILE   NREC   LENGTH (MB)   RECORD NAMES
              1      20       19.12       500      610      700      900      950      970     1000      129      960     1100   
                                          VAR    BASINP    GEOM    SYMINP    ZMAT    AOBASIS   BASIS     P2S    ABASIS      S 
                                         1400     1410     1420     1200     1210     1080     1600     1650     1300     1700   
                                         EKIN       V       ECP      H0       H01     AOSYM     SMH    MOLCAS    ERIS     OPER   

 PROGRAMS   *        TOTAL       INT
 CPU TIMES  *         0.29      0.14
 REAL TIME  *         1.35 SEC
 DISK USED  *        23.83 MB      
 **********************************************************************************************************************************


 PROGRAM * RHF-SCF (OPEN SHELL)       Authors: W. Meyer, H.-J. Werner


 NUMBER OF ELECTRONS:       2+    1-    SPACE SYMMETRY=2    SPIN SYMMETRY: Doublet 
 CONVERGENCE THRESHOLDS:    1.00E-05 (Density)    1.00E-07 (Energy)
 MAX. NUMBER OF ITERATIONS:       60
 INTERPOLATION TYPE:            DIIS
 INTERPOLATION STEPS:              2 (START)      1 (STEP)
 LEVEL SHIFTS:                 -0.60 (CLOSED) -0.30 (OPEN) 


 Singly occupied orbitals:      1.2

   Atom=B  basis=ECP2MWB_GUESS     lmin=0  lmax=1

 Orbital guess generated from atomic densities. Full valence occupancy:    1   1   1   0   1   0   0   0


 Molecular orbital dump at record        2100.2

 ITERATION    DDIFF          GRAD             ENERGY        2-EL.EN.            DIPOLE MOMENTS         DIIS   ORB.
    1      0.000D+00      0.000D+00        -2.51472753      2.221818    0.00000    0.00000    0.00000    0    start
    2      0.000D+00      0.197D-01        -2.53014559      2.341345    0.00000    0.00000    0.00000    1    diag,B
    3      0.437D-01      0.961D-02        -2.53752447      2.440124    0.00000    0.00000    0.00000    2    diag,B
    4      0.298D-01      0.404D-02        -2.53927262      2.482178    0.00000    0.00000    0.00000    3    diag,B
    5      0.258D-01      0.696D-03        -2.53928621      2.479296    0.00000    0.00000    0.00000    4    diag,B
    6      0.202D-02      0.325D-03        -2.53929197      2.480117    0.00000    0.00000    0.00000    5    diag,B
    7      0.155D-02      0.183D-04        -2.53929198      2.480100    0.00000    0.00000    0.00000    6    fixocc
    8      0.106D-03      0.138D-04        -2.53929199      2.480046    0.00000    0.00000    0.00000    7    diag,B
    9      0.539D-04      0.212D-05        -2.53929199      2.480038    0.00000    0.00000    0.00000    8    diag,B
   10      0.713D-05      0.272D-06        -2.53929199      2.480038    0.00000    0.00000    0.00000    0    orth

 Final alpha occupancy:   1   1   0   0   0   0   0
 Final beta  occupancy:   1   0   0   0   0   0   0

 !RHF STATE 1.2 Energy                 -2.539291988191
 Nuclear energy                         0.00000000
 One-electron energy                   -3.77931085
 Two-electron energy                    1.24001886
 Virial quotient                       -1.93321915
 !RHF STATE 1.2 Dipole moment           0.00000000     0.00000000     0.00000000
 Dipole moment /Debye                   0.00000000     0.00000000     0.00000000
 

 !RHF expec          <1.2|EKIN|1.2>     1.313504469043
 
 !RHF expec           <1.2|POT|1.2>    -1.840495421091

 ELECTRON ORBITALS
 =================


   Orb  Occ    Energy  Couls-En    Coefficients

                                   1 1s      1 1s      1 1s      1 3d0     1 3d2+    1 3d0     1 3d2+ 

   1.1   2    -0.4938   -1.8371  1.000186 -0.000240  0.000018 -0.000356  0.000617 -0.003118  0.005400

                                   1 2px     1 2px     1 2px  

   1.2   +    -0.3117   -1.4045  0.999693  0.000467 -0.000138

 HOMO      1.2    -0.311738 =      -8.4828eV
 LUMO      1.3     0.027852 =       0.7579eV
 LUMO-HOMO         0.339590 =       9.2407eV


 **********************************************************************************************************************************
 DATASETS  * FILE   NREC   LENGTH (MB)   RECORD NAMES
              1      20       19.12       500      610      700      900      950      970     1000      129      960     1100   
                                          VAR    BASINP    GEOM    SYMINP    ZMAT    AOBASIS   BASIS     P2S    ABASIS      S 
                                         1400     1410     1420     1200     1210     1080     1600     1650     1300     1700   
                                         EKIN       V       ECP      H0       H01     AOSYM     SMH    MOLCAS    ERIS     OPER   

              2       4        2.75       700     1000      520     2100   
                                         GEOM     BASIS   MCVARS     RHF  

 PROGRAMS   *        TOTAL        HF       INT
 CPU TIMES  *         0.34      0.06      0.14
 REAL TIME  *         1.50 SEC
 DISK USED  *        23.83 MB      
 **********************************************************************************************************************************
 SETTING SCF(I)         =        -2.53929199  AU                              
 SETTING _CC_NORM_MAX   =         2.00000000                                  


 PROGRAM * CCSD (Unrestricted open-shell coupled cluster)     Authors: C. Hampel, H.-J. Werner, 1991, M. Deegan, P.J. Knowles, 1992


 Convergence thresholds:  THRVAR = 1.00D-08  THRDEN = 1.00D-06

 CCSD(T)     terms to be evaluated (factor= 1.000)


 Number of closed-shell orbitals:   1 (   1   0   0   0   0   0   0 )
 Number of active  orbitals:        1 (   0   1   0   0   0   0   0 )
 Number of external orbitals:      20 (   6   2   3   2   3   2   2 )

 Memory could be reduced to 0.30 Mwords without degradation in triples

 Number of N-1 electron functions:               3
 Number of N-2 electron functions:               3
 Number of singly external CSFs:                15
 Number of doubly external CSFs:               165
 Total number of CSFs:                         180

 Molecular orbitals read from record     2100.2  Type=RHF/CANONICAL (state 1.2)

 Integral transformation finished. Total CPU:   0.00 sec, npass=  1  Memory used:   0.07 MW

 Starting RMP2 calculation

 ITER.      SQ.NORM     CORR.ENERGY   TOTAL ENERGY   ENERGY CHANGE        DEN1      VAR(S)    VAR(P)  DIIS     TIME
   1      1.02704067    -0.04095593    -2.58024792    -0.04095593    -0.00045443  0.22D-04  0.28D-03  1  1     0.01
   2      1.02784074    -0.04147228    -2.58076427    -0.00051635    -0.00000065  0.54D-07  0.36D-06  2  2     0.01
   3      1.02785615    -0.04147817    -2.58077016    -0.00000589    -0.00000000  0.35D-09  0.10D-08  3  3     0.01
   4      1.02785621    -0.04147817    -2.58077016    -0.00000000    -0.00000000  0.21D-11  0.33D-11  4  4     0.01

 Norm of t1 vector:      0.04539808      S-energy:    -0.00242033      T1 diagnostic:  0.00040853
 Norm of t2 vector:      0.16060893      P-energy:    -0.03905784
                                         Alpha-Beta:  -0.03660114
                                         Alpha-Alpha: -0.00245670
                                         Beta-Beta:    0.00000000

 Spin contamination <S**2-Sz**2-Sz>     0.01159837
  Reference energy                     -2.539291988191
  RHF-RMP2 correlation energy          -0.041478172144
 !RHF-RMP2 energy                      -2.580770160335

 Starting UCCSD calculation

 ITER.      SQ.NORM     CORR.ENERGY   TOTAL ENERGY   ENERGY CHANGE        DEN1      VAR(S)    VAR(P)  DIIS     TIME
   1      1.04499255    -0.05193037    -2.59122236    -0.05193037    -0.00681884  0.22D-03  0.42D-02  1  1     0.02
   2      1.07009719    -0.06254059    -2.60183258    -0.01061022    -0.00056391  0.50D-04  0.30D-03  2  2     0.02
   3      1.07836489    -0.06450608    -2.60379807    -0.00196549    -0.00002306  0.22D-05  0.13D-04  3  3     0.02
   4      1.08047447    -0.06505631    -2.60434830    -0.00055023    -0.00000076  0.12D-06  0.35D-06  4  4     0.02
   5      1.07998746    -0.06488420    -2.60417618     0.00017212    -0.00000004  0.25D-08  0.23D-07  5  5     0.02
   6      1.08019813    -0.06495525    -2.60424724    -0.00007106    -0.00000000  0.11D-08  0.26D-08  6  6     0.02
   7      1.08014936    -0.06493942    -2.60423140     0.00001584    -0.00000000  0.14D-09  0.21D-09  6  1     0.02
   8      1.08015312    -0.06494050    -2.60423249    -0.00000108    -0.00000000  0.25D-10  0.34D-10  6  2     0.02
   9      1.08015349    -0.06494059    -2.60423258    -0.00000009    -0.00000000  0.70D-12  0.29D-11  6  3     0.02

 Norm of t1 vector:      0.05987579      S-energy:    -0.00282730      T1 diagnostic:  0.01131994
                                                                       D1 diagnostic:  0.01955226
 Norm of t2 vector:      0.27670991      P-energy:    -0.06211329
                                         Alpha-Beta:  -0.05940079
                                         Alpha-Alpha: -0.00271250
                                         Beta-Beta:    0.00000000

 Doubles amplitudes (print threshold =  0.500E-01):

         I         J         SYM. A    SYM. B    A         B      T(IJ, AB) [Alpha-Beta]

         1         1         3         3         1         1     -0.08908913
         1         1         3         3         1         2      0.07047750
         1         1         3         3         2         1      0.07099206
         1         1         3         3         2         2     -0.05672600
         1         1         5         5         1         1     -0.08908913
         1         1         5         5         1         2      0.07047750
         1         1         5         5         2         1      0.07099206
         1         1         5         5         2         2     -0.05672600
         2         1         1         2         2         1     -0.05634920

 Spin contamination <S**2-Sz**2-Sz>     0.00015925

 Memory could be reduced to 0.30 Mwords without degradation in triples
 

 RESULTS
 =======

  Reference energy                     -2.539291988191
  UCCSD singles energy                 -0.002827302908
  UCCSD pair energy                    -0.062113285011
  UCCSD correlation energy             -0.064940587919
  Triples (T) contribution             -0.001002198820
  Total correlation energy             -0.065942786738
 
  RHF-UCCSD energy                     -2.604232576110
  RHF-UCCSD[T] energy                  -2.605189434724
  RHF-UCCSD-T energy                   -2.605242701772
 !RHF-UCCSD(T) energy                  -2.605234774930

 Program statistics:

 Available memory in ccsd:               511999848
 Min. memory needed in ccsd:                  2925
 Max. memory used in ccsd:                    2972
 Max. memory used in cckext:                 35027 ( 9 integral passes)
 Max. memory used in cckint:                 67196 ( 1 integral passes)



 **********************************************************************************************************************************
 DATASETS  * FILE   NREC   LENGTH (MB)   RECORD NAMES
              1      20       19.12       500      610      700      900      950      970     1000      129      960     1100   
                                          VAR    BASINP    GEOM    SYMINP    ZMAT    AOBASIS   BASIS     P2S    ABASIS      S 
                                         1400     1410     1420     1200     1210     1080     1600     1650     1300     1700   
                                         EKIN       V       ECP      H0       H01     AOSYM     SMH    MOLCAS    ERIS     OPER   

              2       4        2.75       700     1000      520     2100   
                                         GEOM     BASIS   MCVARS     RHF  

 PROGRAMS   *        TOTAL  UCCSD(T)        HF       INT
 CPU TIMES  *         0.38      0.04      0.06      0.14
 REAL TIME  *         1.92 SEC
 DISK USED  *        23.83 MB      
 **********************************************************************************************************************************
 SETTING POSTHF(I)      =        -2.60523477  AU                              
                                                                                                                                                                                                                                                                

       SCF           POSTHF       EKIN          POT
    -2.53929199   -2.60523477   1.31350447   -1.84049542
                                                  

 UCCSD(T)/USERDEF energy=     -2.605234774930

        UCCSD(T)        HF-SCF  
     -2.60523477     -2.53929199
 **********************************************************************************************************************************
 Variable memory released
