
 Primary working directories    : /global/cscratch1/sd/aannabe
 Secondary working directories  : /global/cscratch1/sd/aannabe
 Wavefunction directory         : /global/homes/a/aannabe/wfu/
 Main file repository           : /global/cscratch1/sd/aannabe/

 SHA1      : 19cd028119e0e09f93f0674bd8af7968d9b3eff6
 NAME      : 2015.1.36
 ARCHNAME  : linux/x86_64
 FC        : /opt/cray/pe/craype/2.5.14/bin/ftn
 BLASLIB   : -L/opt/intel/compilers_and_libraries_2018.1.163/linux/mkl/lib/intel64 -Wl,-_start-group -lmkl_intel_ilp64 -lmkl_intel_thread -lmkl_core -Wl,-_end-group -liomp5
 id        : lbl

 Nodes     nprocs
 nid00443     1

 Using customized tuning parameters: mindgm=7; mindgv=16; mindgc=1; mindgr=1; noblas=0; minvec=7
 default implementation of scratch files=df  

 ***,Cl
 memory,512,m
 gthresh,twoint=1.e-12
 
 gprint,basis,orbitals
 gexpec,ekin,pot
 
 angstrom
 geometry={
 1                                                                               ! Number of atoms
 Cl 0.0 0.0 0.0
 }
 
 basis={
 Including file /global/homes/a/aannabe/repos/pseudopotentiallibrary/recipes/Cl/ccECP_He_core/Cl.ccECP.molpro
 Including file /global/homes/a/aannabe/repos/pseudopotentiallibrary/recipes/Cl/ccECP_He_core/cc-pCVDZ.molpro
 }
 
 {rhf
  start,atden
  wf,15,3,1
  occ,2,2,2,0,2,0,0,0
  closed,2,2,1,0,2,0,0,0
                                                                                 ! open,2.3
  orbital,4202.2
 }
 {multi
  maxiter,40
  start,4202.2
  occ,2,2,2,0,2,0,0,0
  closed,2,1,1,0,1,0,0
  wf,15,3,1;state,1
  wf,15,5,1;state,1
  wf,15,2,1;state,1
  natorb,ci,print
  orbital,5202.2
 }
 {rhf,nitord=1,maxit=0
  start,5202.2
  wf,15,3,1
  occ,2,2,2,0,2,0,0,0
  closed,2,2,1,0,2,0,0,0
                                                                                 ! open,2.3
 }
 
 scf(i)=energy
 
 _CC_NORM_MAX=2.0
 {ci
 maxit,100
 core
 }
 posthf(i)=energy
 
 table,scf,posthf,ekin,pot
 save,2.csv,new
 
 

 Variables initialized (889), CPU time= 0.00 sec
 Commands  initialized (702), CPU time= 0.01 sec, 572 directives.
 Default parameters read. Elapsed time= 0.24 sec

 Checking input...
 Passed
1


                                         ***  PROGRAM SYSTEM MOLPRO  ***
                                       Copyright, TTI GmbH Stuttgart, 2015
                                    Version 2015.1 linked Dec 29 2018 15:55:43


 **********************************************************************************************************************************
 LABEL *   Cl                                                                            
  64 bit serial version                                                                  DATE: 28-Jan-19          TIME: 15:30:07  
 **********************************************************************************************************************************

 SHA1:             19cd028119e0e09f93f0674bd8af7968d9b3eff6
 **********************************************************************************************************************************

 THRESHOLDS:

 ZERO    =  1.00D-12  ONEINT  =  1.00D-12  TWOINT  =  1.00D-12  PREFAC  =  1.00D-14  LOCALI  =  1.00D-09  EORDER  =  1.00D-04
 ENERGY  =  0.00D+00  ETEST   =  0.00D+00  EDENS   =  0.00D+00  THRDEDEF=  1.00D-06  GRADIENT=  1.00D-02  STEP    =  1.00D-03
 ORBITAL =  1.00D-05  CIVEC   =  1.00D-05  COEFF   =  1.00D-04  PRINTCI =  5.00D-02  PUNCHCI =  9.90D+01  OPTGRAD =  3.00D-04
 OPTENERG=  1.00D-06  OPTSTEP =  3.00D-04  THRGRAD =  1.00D-10  COMPRESS=  1.00D-11  VARMIN  =  1.00D-07  VARMAX  =  1.00D-03
 THRDOUB =  0.00D+00  THRDIV  =  1.00D-05  THRRED  =  1.00D-07  THRPSP  =  1.00D+00  THRDC   =  1.00D-10  THRCS   =  1.00D-10
 THRNRM  =  1.00D-08  THREQ   =  0.00D+00  THRDE   =  1.00D+00  THRREF  =  1.00D-05  SPARFAC =  1.00D+00  THRDLP  =  1.00D-07
 THRDIA  =  1.00D-10  THRDLS  =  1.00D-07  THRGPS  =  0.00D+00  THRKEX  =  0.00D+00  THRDIS  =  2.00D-01  THRVAR  =  1.00D-10
 THRLOC  =  1.00D-06  THRGAP  =  1.00D-06  THRLOCT = -1.00D+00  THRGAPT = -1.00D+00  THRORB  =  1.00D-06  THRMLTP =  0.00D+00
 THRCPQCI=  1.00D-10  KEXTA   =  0.00D+00  THRCOARS=  0.00D+00  SYMTOL  =  1.00D-06  GRADTOL =  1.00D-06  THROVL  =  1.00D-08
 THRORTH =  1.00D-08  GRID    =  1.00D-06  GRIDMAX =  1.00D-03  DTMAX   =  0.00D+00  THROCCDE=  1.00D-01  THROCCDE=  1.00D-01



 ZUNIT=ANG
 

Geometry recognized as XYZ


 Variable memory set to  512000000 words,  buffer space   230000 words

 SETTING BASIS          =    USERDEF


 Recomputing integrals since basis changed


 Using spherical harmonics



 PROGRAM * SEWARD (Integral evaluation for generally contracted gaussian basis sets)     Author: Roland Lindh, 1990

 Geometry written to block  1 of record 700

 Orientation using atomic masses  
 Molecule type: Atom
 Symmetry elements: X,Y,Z
 Rotational constants:       0.0000000      0.0000000      0.0000000 GHz  (calculated with average atomic masses)

 Point group  D2h 



 ATOMIC COORDINATES

 NR  ATOM    CHARGE       X              Y              Z

   1  CL      7.00    0.000000000    0.000000000    0.000000000


          CL  CORE POTENTIAL

          d POTENTIAL

 POWERS             1              3              2              1              1
 EXPONENTIALS   22.19627       26.14512       25.01512       0.000000       0.000000    
 COEFFICIENTS   15.00000       332.9440      -162.0000       7.000000      -15.00000    

          s - d POTENTIAL

 POWERS             2              2
 EXPONENTIALS   124.6404       52.20543    
 COEFFICIENTS   26.83736       277.2967    

          p - d POTENTIAL

 POWERS             2
 EXPONENTIALS   1.000000    
 COEFFICIENTS   0.000000    


 BASIS DATA

   Nr Sym  Nuc  Type         Exponents   Contraction coefficients

    1.1 Ag    1  1s         352.930099     0.000043    0.000023
    2.1 Ag                  170.036562    -0.000705   -0.000003
                             81.921130     0.023209   -0.006748
                             39.468403    -0.165085    0.055658
                             19.015299    -0.077480    0.025309
                              9.161293     0.225544   -0.081840
                              4.413777     0.552801   -0.278453
                              2.126493     0.349034   -0.308794
                              1.024513     0.035803    0.120581
                              0.493596     0.005039    0.535710
                              0.237807    -0.000972    0.459940
                              0.114572     0.000560    0.128297
    3.1 Ag    1  1s           8.489993     1.000000
    4.1 Ag    1  1s           0.169323     1.000000
    5.1 Ag    1  3d0         10.238478     1.000000
    6.1 Ag    1  3d2+        10.238478     1.000000
    7.1 Ag    1  3d0          0.604108     1.000000
    8.1 Ag    1  3d2+         0.604108     1.000000
    1.2 B3u   1  2px         68.625610     0.012029    0.003357
    2.2 B3u                  36.209284     0.091549    0.024632
                             19.105291     0.173813    0.047226
                             10.080623     0.269317    0.078162
                              5.318891     0.321612    0.098932
                              2.806434     0.230908    0.069537
                              1.480773     0.073834   -0.071607
                              0.781308     0.008057   -0.254488
                              0.412246     0.001346   -0.345485
                              0.217515     0.000475   -0.308020
                              0.114769     0.000280   -0.158909
                              0.060556     0.000042   -0.036181
    3.2 B3u   1  2px          3.563403     1.000000
    4.2 B3u   1  2px          0.165843     1.000000
    1.3 B2u   1  2py         68.625610     0.012029    0.003357
    2.3 B2u                  36.209284     0.091549    0.024632
                             19.105291     0.173813    0.047226
                             10.080623     0.269317    0.078162
                              5.318891     0.321612    0.098932
                              2.806434     0.230908    0.069537
                              1.480773     0.073834   -0.071607
                              0.781308     0.008057   -0.254488
                              0.412246     0.001346   -0.345485
                              0.217515     0.000475   -0.308020
                              0.114769     0.000280   -0.158909
                              0.060556     0.000042   -0.036181
    3.3 B2u   1  2py          3.563403     1.000000
    4.3 B2u   1  2py          0.165843     1.000000
    1.4 B1g   1  3d2-        10.238478     1.000000
    2.4 B1g   1  3d2-         0.604108     1.000000
    1.5 B1u   1  2pz         68.625610     0.012029    0.003357
    2.5 B1u                  36.209284     0.091549    0.024632
                             19.105291     0.173813    0.047226
                             10.080623     0.269317    0.078162
                              5.318891     0.321612    0.098932
                              2.806434     0.230908    0.069537
                              1.480773     0.073834   -0.071607
                              0.781308     0.008057   -0.254488
                              0.412246     0.001346   -0.345485
                              0.217515     0.000475   -0.308020
                              0.114769     0.000280   -0.158909
                              0.060556     0.000042   -0.036181
    3.5 B1u   1  2pz          3.563403     1.000000
    4.5 B1u   1  2pz          0.165843     1.000000
    1.6 B2g   1  3d1+        10.238478     1.000000
    2.6 B2g   1  3d1+         0.604108     1.000000
    1.7 B3g   1  3d1-        10.238478     1.000000
    2.7 B3g   1  3d1-         0.604108     1.000000

 NUCLEAR CHARGE:                    7
 NUMBER OF PRIMITIVE AOS:          68
 NUMBER OF SYMMETRY AOS:           66
 NUMBER OF CONTRACTIONS:           26   (   8Ag  +   4B3u +   4B2u +   2B1g +   4B1u +   2B2g +   2B3g +   0Au  )
 NUMBER OF CORE ORBITALS:           0   (   0Ag  +   0B3u +   0B2u +   0B1g +   0B1u +   0B2g +   0B3g +   0Au  )
 NUMBER OF VALENCE ORBITALS:        4   (   1Ag  +   1B3u +   1B2u +   0B1g +   1B1u +   0B2g +   0B3g +   0Au  )


 NUCLEAR REPULSION ENERGY    0.00000000

 EXTRA SYMMETRY OF AOS IN SYMMETRY 1:   1 1 1 1 2 3 2 3

 Eigenvalues of metric

         1 0.500E-01 0.148E+00 0.935E+00 0.935E+00 0.107E+01 0.107E+01 0.177E+01 0.203E+01
         2 0.703E-01 0.156E+00 0.174E+01 0.204E+01
         3 0.703E-01 0.156E+00 0.174E+01 0.204E+01
         4 0.935E+00 0.107E+01
         5 0.703E-01 0.156E+00 0.174E+01 0.204E+01
         6 0.935E+00 0.107E+01
         7 0.935E+00 0.107E+01


 Contracted 2-electron integrals neglected if value below      1.0D-12
 AO integral compression algorithm  1   Integral accuracy      1.0D-12

     0.262 MB (compressed) written to integral file (100.0%)


 NUMBER OF SORTED TWO-ELECTRON INTEGRALS:       9924.     BUFFER LENGTH:  32768
 NUMBER OF SEGMENTS:   1  SEGMENT LENGTH:       9924      RECORD LENGTH: 524288

 Memory used in sort:       0.57 MW

 SORT1 READ       22992. AND WROTE        9008. INTEGRALS IN      1 RECORDS. CPU TIME:     0.01 SEC, REAL TIME:     0.01 SEC
 SORT2 READ        9008. AND WROTE        9924. INTEGRALS IN      1 RECORDS. CPU TIME:     0.00 SEC, REAL TIME:     0.01 SEC

 FILE SIZES:   FILE 1:    20.1 MBYTE,  FILE 4:     4.2 MBYTE,   TOTAL:     24.4 MBYTE

 OPERATOR DM      FOR CENTER  0  COORDINATES:    0.000000    0.000000    0.000000
 OPERATOR EKIN    FOR CENTER  0  COORDINATES:    0.000000    0.000000    0.000000
 OPERATOR POT     FOR CENTER  0  COORDINATES:    0.000000    0.000000    0.000000


 **********************************************************************************************************************************
 DATASETS  * FILE   NREC   LENGTH (MB)   RECORD NAMES
              1      20       19.96       500      610      700      900      950      970     1000      129      960     1100   
                                          VAR    BASINP    GEOM    SYMINP    ZMAT    AOBASIS   BASIS     P2S    ABASIS      S 
                                         1400     1410     1420     1200     1210     1080     1600     1650     1300     1700   
                                         EKIN       V       ECP      H0       H01     AOSYM     SMH    MOLCAS    ERIS     OPER   

 PROGRAMS   *        TOTAL       INT
 CPU TIMES  *         0.34      0.22
 REAL TIME  *         1.95 SEC
 DISK USED  *        24.64 MB      
 **********************************************************************************************************************************


 PROGRAM * RHF-SCF (OPEN SHELL)       Authors: W. Meyer, H.-J. Werner


 NUMBER OF ELECTRONS:       8+    7-    SPACE SYMMETRY=3    SPIN SYMMETRY: Doublet 
 CONVERGENCE THRESHOLDS:    1.00E-05 (Density)    1.00E-07 (Energy)
 MAX. NUMBER OF ITERATIONS:       60
 INTERPOLATION TYPE:            DIIS
 INTERPOLATION STEPS:              2 (START)      1 (STEP)
 LEVEL SHIFTS:                 -0.60 (CLOSED) -0.30 (OPEN) 

 Number of closed-shell orbitals:    7 (   2   2   1   0   2   0   0 )
 Number of open-shell orbitals:      1 (   0   0   1   0   0   0   0 )



   Atom=CL basis=ECP10MWB_GUESS    lmin=0  lmax=1

 Orbital guess generated from atomic densities. Full valence occupancy:    1   1   1   0   1   0   0   0


 Molecular orbital dump at record        4202.2

 ITERATION    DDIFF          GRAD             ENERGY        2-EL.EN.            DIPOLE MOMENTS         DIIS   ORB.
    1      0.000D+00      0.000D+00      -164.21349294    291.545275    0.00000    0.00000    0.00000    0    start
    2      0.000D+00      0.205D+01      -180.87969827    199.281813    0.00000    0.00000    0.00000    1    diag,B
    3      0.152D+01      0.457D+00      -181.60541008    212.065356    0.00000    0.00000    0.00000    2    diag,B
    4      0.156D+00      0.316D-01      -181.61280860    212.436020    0.00000    0.00000    0.00000    3    diag,B
    5      0.270D-01      0.496D-02      -181.61332084    212.433061    0.00000    0.00000    0.00000    4    diag,B
    6      0.109D-01      0.118D-02      -181.61340124    212.436034    0.00000    0.00000    0.00000    5    diag,B
    7      0.627D-02      0.101D-03      -181.61340172    212.433408    0.00000    0.00000    0.00000    6    fixocc
    8      0.366D-03      0.270D-04      -181.61340176    212.432351    0.00000    0.00000    0.00000    7    diag,B
    9      0.125D-03      0.399D-05      -181.61340177    212.432463    0.00000    0.00000    0.00000    8    diag,B
   10      0.214D-04      0.412D-06      -181.61340177    212.432468    0.00000    0.00000    0.00000    9    orth
   11      0.138D-05      0.536D-07      -181.61340177    212.432468    0.00000    0.00000    0.00000    0    orth

 Final alpha occupancy:   2   2   2   0   2   0   0
 Final beta  occupancy:   2   2   1   0   2   0   0

 !RHF STATE 1.3 Energy               -181.613401765767
 Nuclear energy                         0.00000000
 One-electron energy                 -287.82963556
 Two-electron energy                  106.21623379
 Virial quotient                       -1.26078013
 !RHF STATE 1.3 Dipole moment           0.00000000     0.00000000     0.00000000
 Dipole moment /Debye                   0.00000000     0.00000000     0.00000000
 

 !RHF expec          <1.3|EKIN|1.3>   144.048432322484
 
 !RHF expec           <1.3|POT|1.3>   -29.395827457087

 ELECTRON ORBITALS
 =================


   Orb  Occ    Energy  Couls-En    Coefficients

                                   1 1s      1 1s      1 1s      1 1s      1 3d0     1 3d2+    1 3d0     1 3d2+ 

   1.1   2   -10.6939  -39.6437  0.999998 -0.000011 -0.000003  0.000014 -0.000237 -0.000411 -0.000070 -0.000121

   2.1   2    -1.0810  -11.2162  0.000007  1.000025  0.000002 -0.000030 -0.000004 -0.000007  0.001081  0.001872

                                   1 2px     1 2px     1 2px     1 2px  

   1.2   2    -8.2181  -35.9470  1.000798  0.002433 -0.000968  0.000689

   2.2   2    -0.4904   -9.1317  0.000543 -0.992126  0.000614  0.008894

                                   1 2py     1 2py     1 2py     1 2py  

   1.3   2    -8.2228  -35.9350  0.998399 -0.001076  0.001938 -0.001403

   2.3   +    -0.5680   -9.3223  0.005579 -1.032161 -0.002480 -0.036544

                                   1 2pz     1 2pz     1 2pz     1 2pz  

   1.5   2    -8.2181  -35.9470  1.000798  0.002433 -0.000968  0.000689

   2.5   2    -0.4904   -9.1317  0.000543 -0.992126  0.000614  0.008894

 HOMO      2.2    -0.490356 =     -13.3433eV
 LUMO      3.1     0.640148 =      17.4193eV
 LUMO-HOMO         1.130504 =      30.7626eV


 **********************************************************************************************************************************
 DATASETS  * FILE   NREC   LENGTH (MB)   RECORD NAMES
              1      20       19.96       500      610      700      900      950      970     1000      129      960     1100   
                                          VAR    BASINP    GEOM    SYMINP    ZMAT    AOBASIS   BASIS     P2S    ABASIS      S 
                                         1400     1410     1420     1200     1210     1080     1600     1650     1300     1700   
                                         EKIN       V       ECP      H0       H01     AOSYM     SMH    MOLCAS    ERIS     OPER   

              2       4        2.75       700     1000      520     4202   
                                         GEOM     BASIS   MCVARS     RHF  

 PROGRAMS   *        TOTAL       RHF       INT
 CPU TIMES  *         0.40      0.06      0.22
 REAL TIME  *         2.14 SEC
 DISK USED  *        24.64 MB      
 **********************************************************************************************************************************


 PROGRAM * MULTI (Direct Multiconfiguration SCF)       Authors: P.J. Knowles, H.-J. Werner (1984)     S.T. Elbert (1988)


 Number of closed-shell orbitals:   5 (   2   1   1   0   1   0   0   0 )
 Number of active  orbitals:        3 (   0   1   1   0   1   0   0   0 )
 Number of external orbitals:      18 (   6   2   2   2   2   2   2   0 )

 State symmetry 1

 Number of electrons:     5    Spin symmetry=Doublet   Space symmetry=3
 Number of states:        1
 Number of CSFs:          1   (1 determinants, 3 intermediate states)

 State symmetry 2

 Number of electrons:     5    Spin symmetry=Doublet   Space symmetry=5
 Number of states:        1
 Number of CSFs:          1   (1 determinants, 3 intermediate states)

 State symmetry 3

 Number of electrons:     5    Spin symmetry=Doublet   Space symmetry=2
 Number of states:        1
 Number of CSFs:          1   (1 determinants, 3 intermediate states)

 Iteration controls:
             1  2  3  4  5  6  7  8  9 10 11 12 13 14 15 16 17 18 19 20 21 22 23 24 25 26 27 28 29 30 31 32 33 34 35 36 37 38 39
 DIAGCI      T  T  T  T  T  T  T  T  T  T  T  T  T  T  T  T  T  T  T  T  T  T  T  T  T  T  T  T  T  T  T  T  T  T  T  T  T  T  T
 WERNER      T  T  T  T  T  T  T  T  T  T  T  T  T  T  T  T  T  T  T  T  T  T  T  T  T  T  T  T  T  T  T  T  T  T  T  T  T  T  T
 INTERNAL    F  T  T  T  T  T  T  T  T  T  T  T  T  T  T  T  T  T  T  T  T  T  T  T  T  T  T  T  T  T  T  T  T  T  T  T  T  T  T

 Molecular orbitals read from record     4202.2  Type=RHF/CANONICAL (state 1.3)
 *** IN SYMMETRY 1 ORBITAL  1 SYMMETRY CONTAMINATION OF 0.838D-03 HAS BEEN REMOVED
 *** IN SYMMETRY 1 ORBITAL  2 SYMMETRY CONTAMINATION OF 0.295D-02 HAS BEEN REMOVED

 EXTRA SYMMETRY OF MOS IN SYMMETRY 1:   1 1 1 3 2 3 2 1

 Wavefunction dump at record             5202.2

 Convergence thresholds  0.10E-01 (gradient)  0.10E-05 (energy)  0.10E-02 (step length)

 Weight factors for state symmetry  1:    0.33333
 Weight factors for state symmetry  2:    0.33333
 Weight factors for state symmetry  3:    0.33333

 Number of orbital rotations:       27   (     3 Core/Active     18 Core/Virtual   0 Active/Active      6 Active/Virtual)
 Total number of variables:         30


 ITER. MIC  NCI  NEG     ENERGY(VAR)     ENERGY(PROJ)   ENERGY CHANGE     GRAD(0)  GRAD(ORB)   GRAD(CI)     STEP       TIME

   1   15   21    0    -181.61243145    -181.61300839   -0.00057694    0.05373474 0.00000000 0.00000000  0.18D-01      0.02
   2   15   15    0    -181.61300867    -181.61300867   -0.00000000    0.00010264 0.00000000 0.00000000  0.33D-04      0.03

 ** WVFN ****  CONVERGENCE REACHED, FINAL GRADIENT:  0.12D-08



 Results for state 1.3
 =====================

 !MCSCF STATE 1.3 Energy             -181.613008671169
 Nuclear energy                         0.00000000
 Kinetic energy                       144.04650468
 One electron energy                 -287.82820695
 Two electron energy                  106.21519828
 Virial ratio                           2.26079428

 !MCSCF STATE 1.3 Dipole moment         0.00000000     0.00000000     0.00000000
 Dipole moment /Debye                   0.00000000     0.00000000     0.00000000



 Results for state 1.5
 =====================

 !MCSCF STATE 1.5 Energy             -181.613008671168
 Nuclear energy                         0.00000000
 Kinetic energy                       144.04650468
 One electron energy                 -287.82820695
 Two electron energy                  106.21519828
 Virial ratio                           2.26079428

 !MCSCF STATE 1.5 Dipole moment         0.00000000     0.00000000     0.00000000
 Dipole moment /Debye                   0.00000000     0.00000000     0.00000000



 Results for state 1.2
 =====================

 !MCSCF STATE 1.2 Energy             -181.613008671168
 Nuclear energy                         0.00000000
 Kinetic energy                       144.04650468
 One electron energy                 -287.82820695
 Two electron energy                  106.21519828
 Virial ratio                           2.26079428

 !MCSCF STATE 1.2 Dipole moment         0.00000000     0.00000000     0.00000000
 Dipole moment /Debye                   0.00000000     0.00000000     0.00000000

 State-averaged charge density matrix saved on record  5202.2 (density set 1)

 !MCSCF expec        <1.3|EKIN|1.3>   144.046504675180
 !MCSCF expec        <1.5|EKIN|1.5>   144.046504675339
 !MCSCF expec        <1.2|EKIN|1.2>   144.046504675339

 !MCSCF expec         <1.3|POT|1.3>   -29.395609556544
 !MCSCF expec         <1.5|POT|1.5>   -29.395609556566
 !MCSCF expec         <1.2|POT|1.2>   -29.395609556566


 NATURAL ORBITALS (state averaged)
 =================================

   Orb     Occ        Energy       Coefficients

                                   1 1s      1 1s      1 1s      1 1s      1 3d0     1 3d2+    1 3d0     1 3d2+ 

   1.1  2.00000   -10.694032     0.999997 -0.000015 -0.000002  0.000016  0.000000  0.000000  0.000000  0.000000

   2.1  2.00000    -1.081094     0.000024  1.000080  0.000004 -0.000089  0.000000  0.000000  0.000000  0.000000

                                   1 2px     1 2px     1 2px     1 2px  

   1.2  2.00000    -8.219814     1.000000 -0.000001  0.000000 -0.000000

   2.2  1.66667    -0.426905    -0.000001 -0.999990 -0.000001  0.000011

                                   1 2py     1 2py     1 2py     1 2py  

   1.3  2.00000    -8.219814     1.000000 -0.000001  0.000000 -0.000000

   2.3  1.66667    -0.426905    -0.000001 -0.999990 -0.000001  0.000011

                                   1 2pz     1 2pz     1 2pz     1 2pz  

   1.5  2.00000    -8.219814     1.000000 -0.000001  0.000000 -0.000000

   2.5  1.66667    -0.426905    -0.000001 -0.999990 -0.000001  0.000011

 Total charge:  -8.000000000000
 

 Natural orbital dump (state averaged) at molpro section  5202.2    (Orbital set 2)


 CI vector for state symmetry 1
 ==============================

 2 a 2           1.0000000

 TOTAL ENERGIES                      -181.61300867

 CI vector for state symmetry 2
 ==============================

 2 2 a           1.0000000

 TOTAL ENERGIES                      -181.61300867

 CI vector for state symmetry 3
 ==============================

 a 2 2           1.0000000

 TOTAL ENERGIES                      -181.61300867



 **********************************************************************************************************************************
 DATASETS  * FILE   NREC   LENGTH (MB)   RECORD NAMES
              1      21       20.00       500      610      700      900      950      970     1000      129      960     1100   
                                          VAR    BASINP    GEOM    SYMINP    ZMAT    AOBASIS   BASIS     P2S    ABASIS      S 
                                         1400     1410     1420     1200     1210     1080     1600     1650     1300     1700   
                                         EKIN       V       ECP      H0       H01     AOSYM     SMH    MOLCAS    ERIS     OPER   
                                         1380   
                                         JKOP   

              2       5        5.24       700     1000      520     4202     5202   
                                         GEOM     BASIS   MCVARS     RHF     MCSCF   

 PROGRAMS   *        TOTAL     MULTI       RHF       INT
 CPU TIMES  *         0.44      0.04      0.06      0.22
 REAL TIME  *         3.12 SEC
 DISK USED  *        34.49 MB      
 **********************************************************************************************************************************


 PROGRAM * RHF-SCF (OPEN SHELL)       Authors: W. Meyer, H.-J. Werner


 NUMBER OF ELECTRONS:       8+    7-    SPACE SYMMETRY=3    SPIN SYMMETRY: Doublet 
 CONVERGENCE THRESHOLDS:    1.00E-05 (Density)    1.00E-07 (Energy)
 MAX. NUMBER OF ITERATIONS:        0
 INTERPOLATION TYPE:            DIIS
 INTERPOLATION STEPS:              2 (START)      1 (STEP)
 LEVEL SHIFTS:                 -0.60 (CLOSED) -0.30 (OPEN) 

 Number of closed-shell orbitals:    7 (   2   2   1   0   2   0   0 )
 Number of open-shell orbitals:      1 (   0   0   1   0   0   0   0 )


 Molecular orbitals read from record     5202.2  Type=MCSCF/NATURAL (state averaged)

 Molecular orbital dump at record        2101.2

 ITERATION    DDIFF          GRAD             ENERGY        2-EL.EN.            DIPOLE MOMENTS         DIIS   ORB.
    1      0.000D+00      0.000D+00      -181.61300867    212.430397    0.00000    0.00000    0.00000    0    start

 Final alpha occupancy:   2   2   2   0   2   0   0
 Final beta  occupancy:   2   2   1   0   2   0   0

 !RHF STATE 1.3 Energy               -181.613008671169
 Nuclear energy                         0.00000000
 One-electron energy                 -287.82820695
 Two-electron energy                  106.21519828
 Virial quotient                       -1.26079428
 !RHF STATE 1.3 Dipole moment           0.00000000     0.00000000     0.00000000
 Dipole moment /Debye                   0.00000000     0.00000000     0.00000000
 

 !RHF expec          <1.3|EKIN|1.3>   144.046504675180
 
 !RHF expec           <1.3|POT|1.3>   -29.395609556544

 ELECTRON ORBITALS
 =================


   Orb  Occ    Energy  Couls-En    Coefficients

                                   1 1s      1 1s      1 1s      1 1s      1 3d0     1 3d2+    1 3d0     1 3d2+ 

   1.1   2   -10.6940  -39.6439  0.999997 -0.000015 -0.000002  0.000016  0.000000  0.000000  0.000000  0.000000

   2.1   2    -1.0811  -11.2164  0.000024  1.000080  0.000004 -0.000089  0.000000  0.000000  0.000000  0.000000

                                   1 2px     1 2px     1 2px     1 2px  

   1.2   2    -8.2198  -35.9396  1.000000 -0.000001  0.000000 -0.000000

   2.2   2    -0.4269   -9.0948 -0.000001 -0.999990 -0.000001  0.000011

                                   1 2py     1 2py     1 2py     1 2py  

   1.3   2    -8.2198  -35.9396  1.000000 -0.000001  0.000000 -0.000000

   2.3   +    -0.4269   -9.0948 -0.000001 -0.999990 -0.000001  0.000011

                                   1 2pz     1 2pz     1 2pz     1 2pz  

   1.5   2    -8.2198  -35.9396  1.000000 -0.000001  0.000000 -0.000000

   2.5   2    -0.4269   -9.0948 -0.000001 -0.999990 -0.000001  0.000011

 HOMO      2.2    -0.426905 =     -11.6167eV
 LUMO      3.1     0.653205 =      17.7746eV
 LUMO-HOMO         1.080110 =      29.3913eV


 **********************************************************************************************************************************
 DATASETS  * FILE   NREC   LENGTH (MB)   RECORD NAMES
              1      21       20.00       500      610      700      900      950      970     1000      129      960     1100   
                                          VAR    BASINP    GEOM    SYMINP    ZMAT    AOBASIS   BASIS     P2S    ABASIS      S 
                                         1400     1410     1420     1200     1210     1080     1600     1650     1300     1700   
                                         EKIN       V       ECP      H0       H01     AOSYM     SMH    MOLCAS    ERIS     OPER   
                                         1380   
                                         JKOP   

              2       6        7.74       700     1000      520     4202     5202     2101   
                                         GEOM     BASIS   MCVARS     RHF     MCSCF     RHF  

 PROGRAMS   *        TOTAL       RHF     MULTI       RHF       INT
 CPU TIMES  *         0.46      0.02      0.04      0.06      0.22
 REAL TIME  *         3.26 SEC
 DISK USED  *        34.49 MB      
 **********************************************************************************************************************************
 SETTING SCF(I)         =      -181.61300867  AU                              
 SETTING _CC_NORM_MAX   =         2.00000000                                  


 PROGRAM * CI (Multireference internally contracted CI)     Authors: H.-J. Werner, P.J. Knowles, 1987


 Convergence thresholds:  THRVAR = 1.00D-08  THRDEN = 1.00D-06

 Number of optimized states:  1  Roots:   1
 Number of reference states:  1  Roots:   1

 Reference symmetry:                   3   Doublet 
 Number of electrons:                 15
 Maximum number of shells:             3
 Maximum number of spin couplings:     5

 Reference space:        1 conf        1 CSFs
 N elec internal:        8 conf        8 CSFs
 N-1 el internal:       36 conf       64 CSFs
 N-2 el internal:       35 conf      133 CSFs

 Number of electrons in valence space:                     15
 Maximum number of open shell orbitals in reference space:  1
 Maximum number of open shell orbitals in internal spaces:  5


 Number of closed-shell orbitals:   7 (   2   2   1   0   2   0   0 )
 Number of active  orbitals:        1 (   0   0   1   0   0   0   0 )
 Number of external orbitals:      18 (   6   2   2   2   2   2   2 )

 Molecular orbitals read from record     2101.2  Type=RHF/CANONICAL (state 1.3)

 Coulomb and exchange operators available. No transformation done.

 Number of p-space configurations:   1

 Reference wavefunction optimized for reference space (refopt=1)

 State     Reference Energy 
   1        -181.61300867

 Number of blocks in overlap matrix:    63   Smallest eigenvalue:  0.10D+01
 Number of N-2 electron functions:      63
 Number of N-1 electron functions:      64

 Number of internal configurations:                    2
 Number of singly external configurations:           144
 Number of doubly external configurations:          1473
 Total number of contracted configurations:         1619
 Total number of uncontracted configurations:       3089

 Diagonal Coupling coefficients finished.               Storage:    6344 words, CPU-Time:      0.00 seconds.
 Energy denominators for pairs finished in 1 passes.    Storage:    4247 words, CPU-time:      0.00 seconds.

  ITER. STATE  ROOT     SQ.NORM     CORR.ENERGY   TOTAL ENERGY   ENERGY CHANGE       DEN1      VAR(S)    VAR(P)      TIME
    1     1     1     1.00000000     0.00000000  -181.61300867    -0.00000000    -0.34370640  0.14D-01  0.56D-01     0.00
    2     1     1     1.05408332    -0.30259388  -181.91560255    -0.30259388    -0.00345625  0.43D-03  0.57D-03     0.02
    3     1     1     1.04733821    -0.30580613  -181.91881480    -0.00321226    -0.00002701  0.46D-05  0.47D-05     0.02
    4     1     1     1.04761552    -0.30583529  -181.91884396    -0.00002916    -0.00000055  0.11D-06  0.97D-07     0.04
    5     1     1     1.04769107    -0.30583586  -181.91884453    -0.00000056    -0.00000001  0.40D-09  0.13D-08     0.05


 =====================================
 Analysis of CPU times by interactions
 =====================================

       I      S      P

 I   0.0%
 S   0.0%  20.0%
 P   0.0%   0.0%  20.0%

 Initialization:   0.0%
 Other:           60.0%

 Total CPU:        0.0 seconds
 =====================================



 Reference coefficients greater than 0.0500000
 =============================================
 22222/22           0.9769746



 RESULTS FOR STATE 1.3
 =====================

 Coefficient of reference function:   C(0) = 0.97697463 (fixed)   0.97697463 (relaxed)

 Energy contributions of configuration classes

 CLASS          SQ.NORM        ECORR1        ECORR2
 +++++++++++++++++++++++++++++++++++++++++++++++++++
 Internals    0.00000044    0.00000000   -0.00000013
 Singles      0.00886912   -0.02265863   -0.02421613
 Pairs        0.03882196   -0.28317723   -0.28161960
 Total        1.04769152   -0.30583586   -0.30583586
 +++++++++++++++++++++++++++++++++++++++++++++++++++


 Reference energy                    -181.61300867
 Nuclear energy                         0.00000000
 Kinetic energy                       144.23591947
 One electron energy                 -287.62000702
 Two electron energy                  105.70116249
 Virial quotient                       -1.26125895
 Correlation energy                    -0.30583586
 !CI(SD) STATE 1.3 Energy            -181.918844526885

 Properties without orbital relaxation:

 !CI(SD) STATE 1.3 Dipole moment        0.00000000     0.00000000     0.00000000
 Dipole moment /Debye                   0.00000000     0.00000000     0.00000000

 Cluster corrected energies          -181.93343031 (Davidson, fixed reference)
 Cluster corrected energies          -181.93343031 (Davidson, relaxed reference)

 Cluster corrected energies          -181.93178367 (Pople, fixed reference)
 Cluster corrected energies          -181.93178367 (Pople, relaxed reference)

 

 !CI(SD) expec       <1.3|EKIN|1.3>   144.235919468629
 
 !CI(SD) expec        <1.3|POT|1.3>   -29.395901910387


 **********************************************************************************************************************************
 DATASETS  * FILE   NREC   LENGTH (MB)   RECORD NAMES
              1      21       20.00       500      610      700      900      950      970     1000      129      960     1100   
                                          VAR    BASINP    GEOM    SYMINP    ZMAT    AOBASIS   BASIS     P2S    ABASIS      S 
                                         1400     1410     1420     1200     1210     1080     1600     1650     1300     1700   
                                         EKIN       V       ECP      H0       H01     AOSYM     SMH    MOLCAS    ERIS     OPER   
                                         1380   
                                         JKOP   

              2       6        7.74       700     1000      520     4202     5202     2101   
                                         GEOM     BASIS   MCVARS     RHF     MCSCF     RHF  

 PROGRAMS   *        TOTAL        CI       RHF     MULTI       RHF       INT
 CPU TIMES  *         0.56      0.09      0.02      0.04      0.06      0.22
 REAL TIME  *         3.70 SEC
 DISK USED  *        34.49 MB      
 **********************************************************************************************************************************
 SETTING POSTHF(I)      =      -181.91884453  AU                              
                                                                                                                                                                                                                                                                

         SCF            POSTHF        EKIN          POT
    -181.6130087   -181.9188445   144.2359195   -29.39590191
                                                  

 CI/USERDEF energy=   -181.918844526885

        CI              RHF-SCF         MULTI           RHF-SCF 
   -181.91884453   -181.61300867   -181.61300867   -181.61340177
 **********************************************************************************************************************************
 Molpro calculation terminated
 Variable memory released
