TACC:  Starting up job 3912555 
TACC:  Starting parallel tasks... 
  Input file(s): Br.log.qmc.in-wfj.xml 

=====================================================
                    QMCPACK 3.7.9

       (c) Copyright 2003-  QMCPACK developers

                    Please cite:
 J. Kim et al. J. Phys. Cond. Mat. 30 195901 (2018)
      https://doi.org/10.1088/1361-648X/aab9c3

  Git branch: develop
  Last git commit: 9a049a3fb3e0d7110d61a924a52203fd8296522a
  Last git commit date: Mon Jul 1 13:42:43 2019 -0500
  Last git commit subject: Merge pull request #1686 from ye-luo/rename-to-LCAOHDFParser
=====================================================
  Global options 

  Total number of MPI ranks = 1024
  Number of MPI groups      = 1
  MPI group ID              = 0
  Number of ranks in group  = 1024
  MPI ranks per node        = 64
  OMP 1st level threads     = 1
  OMP nested threading disabled or only 1 thread on the 2nd level

  Precision used in this calculation, see definitions in the manual:
  Base precision      = double
  Full precision      = double

  Structure-of-arrays (SoA) optimization enabled

  Input XML = Br.log.qmc.in-wfj.xml

  Project = Br.log
  date    = 2019-07-01 20:17:38 CDT
  host    = c417-113.stampede2.tacc.utexas.edu

 Random Number
 -------------
  Offset for the random number seeds based on time: 178

  Range of prime numbers to use as seeds over processors and threads = 1069-9767


 Particle Set 
 ------------
  Name: ion0
  All the species have the same mass 1
  Particle set size: 1

 Particle Set 
 ------------
  Name: e
  All the species have the same mass 1
  Particle set size: 7

 Wavefunction setup: 
 ------------------- 
  Name: psi0
  LCAO: SoaAtomicBasisSet<MultiQuintic,1>
Reading BasisSet from HDF5 file:Br.log.h5
<input node="atomicBasisSet" name="gaussian" expandYlm="pyscf" angular="spherical" elementType="Br" normalized="no" type="Numerical" expM="0" />
  AO BasisSet for Br
   Spherical Harmonics contain (-1)^m factor
   Angular momentum m expanded as -l, ... ,l, with the exception of L=1 (1,-1,0)
   Grid is created by the input paremters in h5
    Using log grid ri = 1e-06 rf = 100 npts = 1001
   R(n,l,m,s) 0 0 0 0
   R(n,l,m,s) 1 0 0 0
   R(n,l,m,s) 2 0 0 0
   R(n,l,m,s) 3 1 0 0
   R(n,l,m,s) 4 1 0 0
   R(n,l,m,s) 5 1 0 0
   R(n,l,m,s) 6 2 0 0
   R(n,l,m,s) 7 2 0 0
   R(n,l,m,s) 8 3 0 0
Expanding Ylm as L=1 as (1,-1,0) and L>1 as -l,-l+1,...,l-1,l
   Adding 1 spherical orbitals
   Adding 1 spherical orbitals
   Adding 1 spherical orbitals
   Adding 3 spherical orbitals
   Adding 3 spherical orbitals
   Adding 3 spherical orbitals
   Adding 5 spherical orbitals
   Adding 5 spherical orbitals
   Adding 7 spherical orbitals
  Setting cutoff radius 11.8032

   Maximum Angular Momentum  = 3
   Number of Radial functors = 9
   Basis size                = 29

  Created SPOSet builder named 'LCAOBSet' of type molecularorbital
Reuse SPOSetBuilder "LCAOBSet" type MolecularOrbital
  Building SPOSet '' with '' basis set.
Reuse SPOSetBuilder "LCAOBSet" type MolecularOrbital
  Building SPOSet '' with '' basis set.
  Creating a determinant updet group=0 sposet=updet
  Reusing a SPO set updet
Using DiracDeterminant with DelayedUpdate engine
Using rank-1 Sherman-Morrison Fahy update

  Creating a determinant downdet group=1 sposet=downdet
  Reusing a SPO set downdet
Using DiracDeterminant with DelayedUpdate engine
Using rank-1 Sherman-Morrison Fahy update

  FermionWF = SlaterDet

   Jastrow
   -------
    Name: J2   Type: Two-Body   Function: Bspline

    Radial function for species: u - u
     Number of parameters: 10
     Cusp: -0.25
     Cutoff radius: 10

     Name                        Value Type Recompute Use Index
     ---- ---------------------------- ---- --------- --- -----
     uu_0                 4.195614e-01    1         1  ON     0
     uu_1                 2.275317e-01    1         1  ON     1
     uu_2                 9.812570e-02    1         1  ON     2
     uu_3                 5.250726e-03    1         1  ON     3
     uu_4                -6.232404e-02    1         1  ON     4
     uu_5                -1.094058e-01    1         1  ON     5
     uu_6                -1.390028e-01    1         1  ON     6
     uu_7                -1.516286e-01    1         1  ON     7
     uu_8                -1.409149e-01    1         1  ON     8
     uu_9                -1.046716e-01    1         1  ON     9

    Radial function for species: u - d
     Number of parameters: 10
     Cusp: -0.5
     Cutoff radius: 10

     Name                        Value Type Recompute Use Index
     ---- ---------------------------- ---- --------- --- -----
     ud_0                 6.925006e-01    1         1  ON     0
     ud_1                 3.530931e-01    1         1  ON     1
     ud_2                 1.587480e-01    1         1  ON     2
     ud_3                 4.361324e-02    1         1  ON     3
     ud_4                -3.903396e-02    1         1  ON     4
     ud_5                -1.019994e-01    1         1  ON     5
     ud_6                -1.491468e-01    1         1  ON     6
     ud_7                -1.783683e-01    1         1  ON     7
     ud_8                -1.819351e-01    1         1  ON     8
     ud_9                -1.580355e-01    1         1  ON     9


   Jastrow
   -------
    Name: J1   Type: One-Body   Function: Bspline

    Radial function for element: Br
     Number of parameters: 10
     Cusp: 0
     Cutoff radius: 10

      Name                        Value Type Recompute Use Index
     ----- ---------------------------- ---- --------- --- -----
     eBr_0                -1.052876e+00    1         1  ON     0
     eBr_1                -9.045358e-01    1         1  ON     1
     eBr_2                -5.479796e-01    1         1  ON     2
     eBr_3                -1.344767e-01    1         1  ON     3
     eBr_4                 2.157544e-01    1         1  ON     4
     eBr_5                 4.888245e-01    1         1  ON     5
     eBr_6                 6.659830e-01    1         1  ON     6
     eBr_7                 7.044303e-01    1         1  ON     7
     eBr_8                 5.002068e-01    1         1  ON     8
     eBr_9                 9.669815e-02    1         1  ON     9


   Jastrow
   -------
    Name: J3   Type: eeI   Function: polynomial

     Ion: Br   electron-electron: u - u
      Number of parameters for e-e: 3, for e-I: 3
      Cutoff radius: 10

Expected 26 parameters, but found 0 in PolynomialFunctor3D.
         Name                        Value Type Recompute Use Index
      ------- ---------------------------- ---- --------- --- -----
       uuBr_0                 0.000000e+00    1         1  ON     0
       uuBr_1                 0.000000e+00    1         1  ON     1
       uuBr_2                 0.000000e+00    1         1  ON     2
       uuBr_3                 0.000000e+00    1         1  ON     3
       uuBr_4                 0.000000e+00    1         1  ON     4
       uuBr_5                 0.000000e+00    1         1  ON     5
       uuBr_6                 0.000000e+00    1         1  ON     6
       uuBr_7                 0.000000e+00    1         1  ON     7
       uuBr_8                 0.000000e+00    1         1  ON     8
       uuBr_9                 0.000000e+00    1         1  ON     9
      uuBr_10                 0.000000e+00    1         1  ON    10
      uuBr_11                 0.000000e+00    1         1  ON    11
      uuBr_12                 0.000000e+00    1         1  ON    12
      uuBr_13                 0.000000e+00    1         1  ON    13
      uuBr_14                 0.000000e+00    1         1  ON    14
      uuBr_15                 0.000000e+00    1         1  ON    15
      uuBr_16                 0.000000e+00    1         1  ON    16
      uuBr_17                 0.000000e+00    1         1  ON    17
      uuBr_18                 0.000000e+00    1         1  ON    18
      uuBr_19                 0.000000e+00    1         1  ON    19
      uuBr_20                 0.000000e+00    1         1  ON    20
      uuBr_21                 0.000000e+00    1         1  ON    21
      uuBr_22                 0.000000e+00    1         1  ON    22
      uuBr_23                 0.000000e+00    1         1  ON    23
      uuBr_24                 0.000000e+00    1         1  ON    24
      uuBr_25                 0.000000e+00    1         1  ON    25

     Ion: Br   electron-electron: u - d
      Number of parameters for e-e: 3, for e-I: 3
      Cutoff radius: 10

Expected 26 parameters, but found 0 in PolynomialFunctor3D.
         Name                        Value Type Recompute Use Index
      ------- ---------------------------- ---- --------- --- -----
       udBr_0                 0.000000e+00    1         1  ON     0
       udBr_1                 0.000000e+00    1         1  ON     1
       udBr_2                 0.000000e+00    1         1  ON     2
       udBr_3                 0.000000e+00    1         1  ON     3
       udBr_4                 0.000000e+00    1         1  ON     4
       udBr_5                 0.000000e+00    1         1  ON     5
       udBr_6                 0.000000e+00    1         1  ON     6
       udBr_7                 0.000000e+00    1         1  ON     7
       udBr_8                 0.000000e+00    1         1  ON     8
       udBr_9                 0.000000e+00    1         1  ON     9
      udBr_10                 0.000000e+00    1         1  ON    10
      udBr_11                 0.000000e+00    1         1  ON    11
      udBr_12                 0.000000e+00    1         1  ON    12
      udBr_13                 0.000000e+00    1         1  ON    13
      udBr_14                 0.000000e+00    1         1  ON    14
      udBr_15                 0.000000e+00    1         1  ON    15
      udBr_16                 0.000000e+00    1         1  ON    16
      udBr_17                 0.000000e+00    1         1  ON    17
      udBr_18                 0.000000e+00    1         1  ON    18
      udBr_19                 0.000000e+00    1         1  ON    19
      udBr_20                 0.000000e+00    1         1  ON    20
      udBr_21                 0.000000e+00    1         1  ON    21
      udBr_22                 0.000000e+00    1         1  ON    22
      udBr_23                 0.000000e+00    1         1  ON    23
      udBr_24                 0.000000e+00    1         1  ON    24
      udBr_25                 0.000000e+00    1         1  ON    25

  QMCHamiltonian::addOperator Kinetic to H, physical Hamiltonian 
  QMCHamiltonian::addOperator ElecElec to H, physical Hamiltonian 
QMCHamiltonian::addOperatorType added type coulomb named ElecElec
  CoulombAA for ion0 is not created.  Number of particles == 1 and nonPeriodic

  ECPotential builder for pseudopotential 

  Adding pseudopotential for Br
   Linear grid  ri=0 rf=10 npts = 10001
    ECPComponentBuilder::buildSemiLocalAndLocal 
    Assuming Hartree unit
   Number of angular momentum channels 4
   Maximum angular momentum channel 3
   Creating a Linear Grid Rmax=2.93
  Using global grid with delta = 0.001
   Making L=3 a local potential with a radial cutoff of 9.999
    Non-local pseudopotential parameters
    Maximum angular mementum = 2
    Number of non-local channels = 3
       l(0)=0
       l(1)=1
       l(2)=2
    Cutoff radius = 2.93
    Spherical grids and weights: 
                        1                 0                 0       0.08333333333
                       -1   1.224646799e-16                 0       0.08333333333
             0.4472135955       0.894427191                 0       0.08333333333
            -0.4472135955      0.7236067977      0.5257311121       0.08333333333
             0.4472135955      0.2763932023      0.8506508084       0.08333333333
            -0.4472135955     -0.2763932023      0.8506508084       0.08333333333
             0.4472135955     -0.7236067977      0.5257311121       0.08333333333
            -0.4472135955      -0.894427191   1.095357397e-16       0.08333333333
             0.4472135955     -0.7236067977     -0.5257311121       0.08333333333
            -0.4472135955     -0.2763932023     -0.8506508084       0.08333333333
             0.4472135955      0.2763932023     -0.8506508084       0.08333333333
            -0.4472135955      0.7236067977     -0.5257311121       0.08333333333
    Maximum cutoff radius 2.93
  QMCHamiltonian::addOperator LocalECP to H, physical Hamiltonian 

  Using NonLocalECP potential 
    Maximum grid on a sphere for NonLocalECPotential: 12
  QMCHamiltonian::addOperator NonLocalECP to H, physical Hamiltonian 
QMCHamiltonian::addOperatorType added type pseudo named PseudoPot

  QMCHamiltonian::add2WalkerProperty added
    4 to P::PropertyList 
    0 to P::Collectables 
    starting Index of the observables in P::PropertyList = 9
ParticleSetPool::randomize 
<init source="ion0" target="e">
</init>
  Initialization Execution time = 0.4781 secs
=========================================================
 Summary of QMC systems 
=========================================================
ParticleSetPool has: 

  ParticleSet 'e' contains 7 particles :  u(4) d(3)

    u -4.5521913788e-01 -9.9385571293e-01  1.0081484166e+00
    u -1.5149537683e+00  6.9355116100e-02 -4.4561450482e-01
    u  1.2199740236e-01 -7.3980565871e-01  1.5679209080e+00
    u -1.9057582150e-01  7.5912372566e-01  8.2612799864e-02
    d -1.1160634053e-01  1.1281129046e+00 -7.9897091189e-01
    d -1.3729667130e+00 -3.5931975693e-01  8.2021759911e-01
    d -8.6333829099e-01  2.8036543408e+00  1.4463203917e+00

  Distance table for dissimilar particles (A-B):
    source: ion0  target: e
    Using structure-of-arrays (SoA) data layout
    Distance computations use open boundary conditions in 3D.

  Distance table for similar particles (A-A):
    source/target: e
    Using structure-of-arrays (SoA) data layout
    Distance computations use open boundary conditions in 3D.


  ParticleSet 'ion0' contains 1 particles :  Br(1)

    Br  0.0000000000e+00  0.0000000000e+00  0.0000000000e+00


  Hamiltonian h0
  Kinetic         Kinetic energy
  ElecElec        CoulombAB source=e

  LocalECP        LocalECPotential: ion0
  NonLocalECP     NonLocalECPotential: ion0


=========================================================
  Start VMC
  File Root Br.log.s000 append = no 
=========================================================
  Adding 1 walkers to 0 existing sets
  Total number of walkers: 1.0240000000e+03
  Total weight: 1.0240000000e+03
  Resetting Properties of the walkers 1 x 13

<vmc function="put">
  qmc_counter=0  my_counter=0
  time step      = 1.5000000000e-01
  blocks         = 200
  steps          = 1
  substeps       = 5
  current        = 0
  target samples = 1.0240000000e+03
  walkers/mpi    = 1

  stepsbetweensamples = 200
<parameter name="blocks" condition="int">200</parameter>
<parameter name="blocks_between_recompute" condition="int">0</parameter>
<parameter name="check_properties" condition="int">100</parameter>
<parameter name="checkproperties" condition="int">100</parameter>
<parameter name="current" condition="int">0</parameter>
<parameter name="dmcwalkersperthread" condition="real">1.0000000000e+00</parameter>
<parameter name="maxcpusecs" condition="real">3.6000000000e+05</parameter>
<parameter name="record_configs" condition="int">0</parameter>
<parameter name="record_walkers" condition="int">200</parameter>
<parameter name="recordconfigs" condition="int">0</parameter>
<parameter name="recordwalkers" condition="int">200</parameter>
<parameter name="rewind" condition="int">0</parameter>
<parameter name="samples" condition="real">1.0240000000e+03</parameter>
<parameter name="samplesperthread" condition="real">1.0000000000e+00</parameter>
<parameter name="steps" condition="int">1</parameter>
<parameter name="stepsbetweensamples" condition="int">200</parameter>
<parameter name="store_configs" condition="int">0</parameter>
<parameter name="storeconfigs" condition="int">0</parameter>
<parameter name="sub_steps" condition="int">5</parameter>
<parameter name="substeps" condition="int">5</parameter>
<parameter name="tau" condition="au">1.5000000000e-01</parameter>
<parameter name="time_step" condition="au">1.5000000000e-01</parameter>
<parameter name="timestep" condition="au">1.5000000000e-01</parameter>
<parameter name="use_drift" condition="string">no</parameter>
<parameter name="usedrift" condition="string">no</parameter>
<parameter name="walkers" condition="int">1</parameter>
<parameter name="warmup_steps" condition="int">100</parameter>
<parameter name="warmupsteps" condition="int">100</parameter>
  DumpConfig==false Nothing (configurations, state) will be saved.
  Walker Samples are dumped every 200 steps.
</vmc>
  Set drift_modifier UNR parameter a = 1.0000000000e+00
  Initial partition of walkers 0 1 

  Using Particle by Particle moves
  Walker moves without drift
  Total Sample Size   =1024
  Walker distribution on root = 0 1 
  Using Locality Approximation
===== Memory Usage after the buffer registration =====
Available memory on node 0, free + buffers : 55092 MB
Memory footprint by rank 0 on node 0       : 577 MB
==================================================
  Anonymous Buffer size per walker : 2688 Bytes.
MEMORY increase 0 MB VMC::resetRun
====================================================
  SimpleFixedNodeBranch::finalize after a VMC block
    QMC counter        = 0
    time step          = 0.15
    reference energy   = -13.3114
    reference variance = 0.0626887
====================================================
  QMC Execution time = 2.3113e+00 secs
Loop execution max-interations = 20

=========================================================
  Start QMCFixedSampleLinearOptimize
  File Root Br.log.s001 append = no 
=========================================================
  Skip QMCDriver::putQMCInfo 
  Resetting Properties of the walkers 1 x 13

=========================================================
  Start VMC
  File Root Br.log.s001 append = no 
=========================================================
  Using the current 1 walkers.
  Total number of walkers: 1.0240e+03
  Total weight: 1.0240e+03
  Resetting Properties of the walkers 1 x 13

<vmc function="put">
  qmc_counter=0  my_counter=0
  time step      = 1.5000e-01
  blocks         = 500
  steps          = 1
  substeps       = 5
  current        = 0
  target samples = 5.1200e+05
  walkers/mpi    = 1

  stepsbetweensamples = 1
<parameter name="blocks" condition="int">500</parameter>
<parameter name="blocks_between_recompute" condition="int">0</parameter>
<parameter name="check_properties" condition="int">100</parameter>
<parameter name="checkproperties" condition="int">100</parameter>
<parameter name="current" condition="int">0</parameter>
<parameter name="dmcwalkersperthread" condition="real">5.0000e+02</parameter>
<parameter name="maxcpusecs" condition="real">3.6000e+05</parameter>
<parameter name="record_configs" condition="int">0</parameter>
<parameter name="record_walkers" condition="int">1</parameter>
<parameter name="recordconfigs" condition="int">0</parameter>
<parameter name="recordwalkers" condition="int">1</parameter>
<parameter name="rewind" condition="int">0</parameter>
<parameter name="samples" condition="real">5.1200e+05</parameter>
<parameter name="samplesperthread" condition="real">5.0000e+02</parameter>
<parameter name="steps" condition="int">1</parameter>
<parameter name="stepsbetweensamples" condition="int">1</parameter>
<parameter name="store_configs" condition="int">0</parameter>
<parameter name="storeconfigs" condition="int">0</parameter>
<parameter name="sub_steps" condition="int">5</parameter>
<parameter name="substeps" condition="int">5</parameter>
<parameter name="tau" condition="au">1.5000e-01</parameter>
<parameter name="time_step" condition="au">1.5000e-01</parameter>
<parameter name="timestep" condition="au">1.5000e-01</parameter>
<parameter name="use_drift" condition="string">no</parameter>
<parameter name="usedrift" condition="string">no</parameter>
<parameter name="walkers" condition="int">1</parameter>
<parameter name="warmup_steps" condition="int">0</parameter>
<parameter name="warmupsteps" condition="int">0</parameter>
  DumpConfig==false Nothing (configurations, state) will be saved.
  Walker Samples are dumped every 1 steps.
</vmc>
    Restarting, cummulative properties:
      energy     = -1.3311e+01
      variance   = 0.0000e+00
      r2accepted = 1.0000e-10
      r2proposed = 1.0000e-10
  Set drift_modifier UNR parameter a = 1.0000e+00
 Using QMCCostFunction::QMCCostFunction
  Set drift_modifier UNR parameter a = 1.0000e+00
  EstimatorManagerBase::add replace LocalEnergy estimator.
<optimization-report>
<vmc stage="main" blocks="500">
  Cannot make clones again. Use existing 1 clones
  Initial partition of walkers 0 1 

  Using Particle by Particle moves
  Walker moves without drift
  Total Sample Size   =512000
  Walker distribution on root = 0 1 
  Using Locality Approximation
===== Memory Usage after the buffer registration =====
Available memory on node 0, free + buffers : 55079 MB
Memory footprint by rank 0 on node 0       : 578 MB
==================================================
  Anonymous Buffer size per walker : 2688 Bytes.
MEMORY increase 0 MB VMC::resetRun
====================================================
  SimpleFixedNodeBranch::finalize after a VMC block
    QMC counter        = 1
    time step          = 0.15
    reference energy   = -13.2994
    reference variance = 0.0816409
====================================================
  Execution time = 4.1720e+00
</vmc>
<opt stage="setup">
  <log>
   Reading configurations from h5FileRoot Br.log.s001
  QMCCostFunction is created with 1 threads.
  Using Nonlocal PP in Opt: NonLocalECP
   Number of samples loaded to each thread : 500 
  VMC Eavg = -1.3302e+01
  VMC Evar = 1.2804e-01
  Total weights = 5.1200e+05
  Execution time = 1.5496e+00
  </log>
</opt>
<opt stage="main" walkers="512000">
  <log>

*****************************************
Building overlap and Hamiltonian matrices
*****************************************

Among totally 82 optimized parameters, largest LM parameter change : 5.2678e-02 at parameter 24

******************************************************************************
Init Cost =  -1.2631e+01    New Cost =  -1.2636e+01  Delta Cost =  -5.0348e-03
******************************************************************************

The new set of parameters is valid. Updating the trial wave function!

*****************************************************************************
Applying the update for shift_i =   1.0000e-02     and shift_s =   2.5000e-01
*****************************************************************************
  Execution time = 7.1386e+00
  </log>
  <optVariables href="Br.log.s001.opt.xml">
   uu_0                 4.090508e-01 1 1  ON 0
   uu_1                 2.180245e-01 1 1  ON 1
   uu_2                 9.461245e-02 1 1  ON 2
   uu_3                 6.119940e-03 1 1  ON 3
   uu_4                -5.477440e-02 1 1  ON 4
   uu_5                -1.024195e-01 1 1  ON 5
   uu_6                -1.341242e-01 1 1  ON 6
   uu_7                -1.490804e-01 1 1  ON 7
   uu_8                -1.403392e-01 1 1  ON 8
   uu_9                -1.028201e-01 1 1  ON 9
   ud_0                 7.192745e-01 1 1  ON 10
   ud_1                 3.645548e-01 1 1  ON 11
   ud_2                 1.569499e-01 1 1  ON 12
   ud_3                 2.936426e-02 1 1  ON 13
   ud_4                -4.411057e-02 1 1  ON 14
   ud_5                -9.871210e-02 1 1  ON 15
   ud_6                -1.401776e-01 1 1  ON 16
   ud_7                -1.747211e-01 1 1  ON 17
   ud_8                -1.825753e-01 1 1  ON 18
   ud_9                -1.624618e-01 1 1  ON 19
  eBr_0                -1.050122e+00 1 1  ON 20
  eBr_1                -9.192114e-01 1 1  ON 21
  eBr_2                -5.943633e-01 1 1  ON 22
  eBr_3                -1.391439e-01 1 1  ON 23
  eBr_4                 2.684319e-01 1 1  ON 24
  eBr_5                 4.774617e-01 1 1  ON 25
  eBr_6                 6.632096e-01 1 1  ON 26
  eBr_7                 7.095163e-01 1 1  ON 27
  eBr_8                 5.137376e-01 1 1  ON 28
  eBr_9                 1.029918e-01 1 1  ON 29
 uuBr_0                -2.849880e-05 1 1  ON 30
 uuBr_1                 1.514417e-05 1 1  ON 31
 uuBr_2                 2.531727e-05 1 1  ON 32
 uuBr_3                 3.118192e-05 1 1  ON 33
 uuBr_4                 1.443638e-06 1 1  ON 34
 uuBr_5                -1.688343e-06 1 1  ON 35
 uuBr_6                 6.991713e-05 1 1  ON 36
 uuBr_7                 1.838741e-07 1 1  ON 37
 uuBr_8                -1.356029e-05 1 1  ON 38
 uuBr_9                -2.487480e-05 1 1  ON 39
uuBr_10                 1.544275e-05 1 1  ON 40
uuBr_11                -3.602325e-06 1 1  ON 41
uuBr_12                 5.832829e-06 1 1  ON 42
uuBr_13                -4.442210e-05 1 1  ON 43
uuBr_14                -8.811956e-06 1 1  ON 44
uuBr_15                 2.938474e-07 1 1  ON 45
uuBr_16                 5.019319e-05 1 1  ON 46
uuBr_17                -5.686695e-05 1 1  ON 47
uuBr_18                 8.994621e-06 1 1  ON 48
uuBr_19                -2.136810e-06 1 1  ON 49
uuBr_20                 9.092071e-06 1 1  ON 50
uuBr_21                 1.232334e-06 1 1  ON 51
uuBr_22                -1.295126e-07 1 1  ON 52
uuBr_23                -2.098357e-06 1 1  ON 53
uuBr_24                -1.923010e-07 1 1  ON 54
uuBr_25                 5.453459e-08 1 1  ON 55
 udBr_0                -3.966782e-05 1 1  ON 56
 udBr_1                 4.718836e-05 1 1  ON 57
 udBr_2                 4.738880e-05 1 1  ON 58
 udBr_3                 4.929924e-05 1 1  ON 59
 udBr_4                 3.274357e-06 1 1  ON 60
 udBr_5                -5.949878e-06 1 1  ON 61
 udBr_6                 1.658601e-04 1 1  ON 62
 udBr_7                -2.311771e-05 1 1  ON 63
 udBr_8                -2.108445e-05 1 1  ON 64
 udBr_9                -9.048341e-05 1 1  ON 65
udBr_10                 2.394099e-05 1 1  ON 66
udBr_11                 8.821582e-07 1 1  ON 67
udBr_12                 1.084216e-05 1 1  ON 68
udBr_13                -5.068998e-05 1 1  ON 69
udBr_14                -1.535760e-05 1 1  ON 70
udBr_15                 3.721925e-07 1 1  ON 71
udBr_16                 1.320201e-04 1 1  ON 72
udBr_17                -8.047972e-05 1 1  ON 73
udBr_18                 3.888797e-06 1 1  ON 74
udBr_19                -3.921207e-06 1 1  ON 75
udBr_20                -3.666191e-06 1 1  ON 76
udBr_21                 4.686896e-06 1 1  ON 77
udBr_22                -3.173157e-07 1 1  ON 78
udBr_23                 1.437157e-06 1 1  ON 79
udBr_24                -1.038865e-06 1 1  ON 80
udBr_25                 1.490584e-07 1 1  ON 81
  </optVariables>
   Restore the number of walkers to 1, removing 0 walkers.
</opt>
</optimization-report>
  QMC Execution time = 7.151 secs
  Reusing QMCFixedSampleLinearOptimize
 Using QMCCostFunction::QMCCostFunction

=========================================================
  Start QMCFixedSampleLinearOptimize
  File Root Br.log.s002 append = no 
=========================================================
  Skip QMCDriver::putQMCInfo 
  Resetting Properties of the walkers 1 x 13

=========================================================
  Start VMC
  File Root Br.log.s002 append = no 
=========================================================
Using existing walkers 
  Resetting Properties of the walkers 1 x 13

<vmc function="put">
  qmc_counter=1  my_counter=1
  time step      = 1.5000e-01
  blocks         = 500
  steps          = 1
  substeps       = 5
  current        = 0
  target samples = 5.1200e+05
  walkers/mpi    = 1

  stepsbetweensamples = 1
<parameter name="blocks" condition="int">500</parameter>
<parameter name="blocks_between_recompute" condition="int">0</parameter>
<parameter name="check_properties" condition="int">100</parameter>
<parameter name="checkproperties" condition="int">100</parameter>
<parameter name="current" condition="int">0</parameter>
<parameter name="dmcwalkersperthread" condition="real">5.0000e+02</parameter>
<parameter name="maxcpusecs" condition="real">3.6000e+05</parameter>
<parameter name="record_configs" condition="int">0</parameter>
<parameter name="record_walkers" condition="int">1</parameter>
<parameter name="recordconfigs" condition="int">0</parameter>
<parameter name="recordwalkers" condition="int">1</parameter>
<parameter name="rewind" condition="int">0</parameter>
<parameter name="samples" condition="real">5.1200e+05</parameter>
<parameter name="samplesperthread" condition="real">5.0000e+02</parameter>
<parameter name="steps" condition="int">1</parameter>
<parameter name="stepsbetweensamples" condition="int">1</parameter>
<parameter name="store_configs" condition="int">0</parameter>
<parameter name="storeconfigs" condition="int">0</parameter>
<parameter name="sub_steps" condition="int">5</parameter>
<parameter name="substeps" condition="int">5</parameter>
<parameter name="tau" condition="au">1.5000e-01</parameter>
<parameter name="time_step" condition="au">1.5000e-01</parameter>
<parameter name="timestep" condition="au">1.5000e-01</parameter>
<parameter name="use_drift" condition="string">no</parameter>
<parameter name="usedrift" condition="string">no</parameter>
<parameter name="walkers" condition="int">1</parameter>
<parameter name="warmup_steps" condition="int">0</parameter>
<parameter name="warmupsteps" condition="int">0</parameter>
  DumpConfig==false Nothing (configurations, state) will be saved.
  Walker Samples are dumped every 1 steps.
</vmc>
  Set drift_modifier UNR parameter a = 1.0000e+00
  EstimatorManagerBase::add replace LocalEnergy estimator.
  Set drift_modifier UNR parameter a = 1.0000e+00
  EstimatorManagerBase::add replace LocalEnergy estimator.
<optimization-report>
<vmc stage="main" blocks="500">
  Cannot make clones again. Use existing 1 clones
  Initial partition of walkers 0 1 
  Using Particle by Particle moves
  Walker moves without drift
  Total Sample Size   =512000
  Walker distribution on root = 0 1 
  Using Locality Approximation
===== Memory Usage after the buffer registration =====
Available memory on node 0, free + buffers : 54375 MB
Memory footprint by rank 0 on node 0       : 592 MB
==================================================
====================================================
  SimpleFixedNodeBranch::finalize after a VMC block
    QMC counter        = 2
    time step          = 0.15
    reference energy   = -13.3089
    reference variance = 0.0415029
====================================================
  Execution time = 4.1832e+00
</vmc>
<opt stage="setup">
  <log>
   Reading configurations from h5FileRoot Br.log.s002
  QMCCostFunction is created with 1 threads.
  Using Nonlocal PP in Opt: NonLocalECP
   Number of samples loaded to each thread : 500 
  VMC Eavg = -1.3306e+01
  VMC Evar = 1.0437e-01
  Total weights = 5.1200e+05
  Execution time = 1.5149e+00
  </log>
</opt>
<opt stage="main" walkers="512000">
  <log>

*****************************************
Building overlap and Hamiltonian matrices
*****************************************

Among totally 82 optimized parameters, largest LM parameter change : 3.5684e-02 at parameter 24

******************************************************************************
Init Cost =  -1.2635e+01    New Cost =  -1.2636e+01  Delta Cost =  -1.7294e-04
******************************************************************************

The new set of parameters is valid. Updating the trial wave function!

*****************************************************************************
Applying the update for shift_i =   1.0000e-02     and shift_s =   6.2500e-02
*****************************************************************************
  Execution time = 7.0867e+00
  </log>
  <optVariables href="Br.log.s002.opt.xml">
   uu_0                 4.013030e-01 1 1  ON 0
   uu_1                 2.136695e-01 1 1  ON 1
   uu_2                 9.441852e-02 1 1  ON 2
   uu_3                 1.051511e-02 1 1  ON 3
   uu_4                -4.712029e-02 1 1  ON 4
   uu_5                -9.523491e-02 1 1  ON 5
   uu_6                -1.293560e-01 1 1  ON 6
   uu_7                -1.461494e-01 1 1  ON 7
   uu_8                -1.428783e-01 1 1  ON 8
   uu_9                -1.053199e-01 1 1  ON 9
   ud_0                 7.328585e-01 1 1  ON 10
   ud_1                 3.722016e-01 1 1  ON 11
   ud_2                 1.571467e-01 1 1  ON 12
   ud_3                 2.435075e-02 1 1  ON 13
   ud_4                -4.726544e-02 1 1  ON 14
   ud_5                -9.769012e-02 1 1  ON 15
   ud_6                -1.361587e-01 1 1  ON 16
   ud_7                -1.708583e-01 1 1  ON 17
   ud_8                -1.828585e-01 1 1  ON 18
   ud_9                -1.610392e-01 1 1  ON 19
  eBr_0                -1.043911e+00 1 1  ON 20
  eBr_1                -9.423864e-01 1 1  ON 21
  eBr_2                -6.269658e-01 1 1  ON 22
  eBr_3                -1.410401e-01 1 1  ON 23
  eBr_4                 3.041156e-01 1 1  ON 24
  eBr_5                 4.721623e-01 1 1  ON 25
  eBr_6                 6.591592e-01 1 1  ON 26
  eBr_7                 7.132564e-01 1 1  ON 27
  eBr_8                 5.287113e-01 1 1  ON 28
  eBr_9                 1.100122e-01 1 1  ON 29
 uuBr_0                -3.114741e-05 1 1  ON 30
 uuBr_1                 2.113003e-05 1 1  ON 31
 uuBr_2                 2.507843e-05 1 1  ON 32
 uuBr_3                 3.117292e-05 1 1  ON 33
 uuBr_4                 7.745789e-07 1 1  ON 34
 uuBr_5                -1.749524e-06 1 1  ON 35
 uuBr_6                 8.064929e-05 1 1  ON 36
 uuBr_7                -1.137386e-06 1 1  ON 37
 uuBr_8                -1.701664e-05 1 1  ON 38
 uuBr_9                -2.869046e-05 1 1  ON 39
uuBr_10                 1.294896e-05 1 1  ON 40
uuBr_11                 1.099306e-06 1 1  ON 41
uuBr_12                 6.328719e-06 1 1  ON 42
uuBr_13                -4.651357e-05 1 1  ON 43
uuBr_14                -9.711042e-06 1 1  ON 44
uuBr_15                 3.124338e-07 1 1  ON 45
uuBr_16                 5.582526e-05 1 1  ON 46
uuBr_17                -5.862338e-05 1 1  ON 47
uuBr_18                 6.504903e-06 1 1  ON 48
uuBr_19                -2.074114e-06 1 1  ON 49
uuBr_20                 9.305784e-06 1 1  ON 50
uuBr_21                 1.478970e-06 1 1  ON 51
uuBr_22                -1.311846e-07 1 1  ON 52
uuBr_23                -2.038404e-06 1 1  ON 53
uuBr_24                -1.770937e-07 1 1  ON 54
uuBr_25                 4.220332e-08 1 1  ON 55
 udBr_0                -4.884474e-05 1 1  ON 56
 udBr_1                 5.413996e-05 1 1  ON 57
 udBr_2                 6.050531e-05 1 1  ON 58
 udBr_3                 5.768626e-05 1 1  ON 59
 udBr_4                 2.423461e-06 1 1  ON 60
 udBr_5                -6.740644e-06 1 1  ON 61
 udBr_6                 1.965437e-04 1 1  ON 62
 udBr_7                -2.154172e-05 1 1  ON 63
 udBr_8                -1.973057e-05 1 1  ON 64
 udBr_9                -1.078147e-04 1 1  ON 65
udBr_10                 2.794052e-05 1 1  ON 66
udBr_11                -4.786979e-06 1 1  ON 67
udBr_12                 1.143801e-05 1 1  ON 68
udBr_13                -5.861578e-05 1 1  ON 69
udBr_14                -1.679120e-05 1 1  ON 70
udBr_15                 4.372446e-07 1 1  ON 71
udBr_16                 1.596471e-04 1 1  ON 72
udBr_17                -9.594299e-05 1 1  ON 73
udBr_18                 8.724122e-06 1 1  ON 74
udBr_19                -4.447992e-06 1 1  ON 75
udBr_20                -5.885483e-06 1 1  ON 76
udBr_21                 4.827607e-06 1 1  ON 77
udBr_22                -3.238624e-07 1 1  ON 78
udBr_23                 2.137089e-06 1 1  ON 79
udBr_24                -1.134361e-06 1 1  ON 80
udBr_25                 1.595551e-07 1 1  ON 81
  </optVariables>
   Restore the number of walkers to 1, removing 0 walkers.
</opt>
</optimization-report>
  QMC Execution time = 7.099 secs
  Reusing QMCFixedSampleLinearOptimize
 Using QMCCostFunction::QMCCostFunction

=========================================================
  Start QMCFixedSampleLinearOptimize
  File Root Br.log.s003 append = no 
=========================================================
  Skip QMCDriver::putQMCInfo 
  Resetting Properties of the walkers 1 x 13

=========================================================
  Start VMC
  File Root Br.log.s003 append = no 
=========================================================
Using existing walkers 
  Resetting Properties of the walkers 1 x 13

<vmc function="put">
  qmc_counter=2  my_counter=2
  time step      = 1.5000e-01
  blocks         = 500
  steps          = 1
  substeps       = 5
  current        = 0
  target samples = 5.1200e+05
  walkers/mpi    = 1

  stepsbetweensamples = 1
<parameter name="blocks" condition="int">500</parameter>
<parameter name="blocks_between_recompute" condition="int">0</parameter>
<parameter name="check_properties" condition="int">100</parameter>
<parameter name="checkproperties" condition="int">100</parameter>
<parameter name="current" condition="int">0</parameter>
<parameter name="dmcwalkersperthread" condition="real">5.0000e+02</parameter>
<parameter name="maxcpusecs" condition="real">3.6000e+05</parameter>
<parameter name="record_configs" condition="int">0</parameter>
<parameter name="record_walkers" condition="int">1</parameter>
<parameter name="recordconfigs" condition="int">0</parameter>
<parameter name="recordwalkers" condition="int">1</parameter>
<parameter name="rewind" condition="int">0</parameter>
<parameter name="samples" condition="real">5.1200e+05</parameter>
<parameter name="samplesperthread" condition="real">5.0000e+02</parameter>
<parameter name="steps" condition="int">1</parameter>
<parameter name="stepsbetweensamples" condition="int">1</parameter>
<parameter name="store_configs" condition="int">0</parameter>
<parameter name="storeconfigs" condition="int">0</parameter>
<parameter name="sub_steps" condition="int">5</parameter>
<parameter name="substeps" condition="int">5</parameter>
<parameter name="tau" condition="au">1.5000e-01</parameter>
<parameter name="time_step" condition="au">1.5000e-01</parameter>
<parameter name="timestep" condition="au">1.5000e-01</parameter>
<parameter name="use_drift" condition="string">no</parameter>
<parameter name="usedrift" condition="string">no</parameter>
<parameter name="walkers" condition="int">1</parameter>
<parameter name="warmup_steps" condition="int">0</parameter>
<parameter name="warmupsteps" condition="int">0</parameter>
  DumpConfig==false Nothing (configurations, state) will be saved.
  Walker Samples are dumped every 1 steps.
</vmc>
  Set drift_modifier UNR parameter a = 1.0000e+00
  EstimatorManagerBase::add replace LocalEnergy estimator.
  Set drift_modifier UNR parameter a = 1.0000e+00
  EstimatorManagerBase::add replace LocalEnergy estimator.
<optimization-report>
<vmc stage="main" blocks="500">
  Cannot make clones again. Use existing 1 clones
  Initial partition of walkers 0 1 
  Using Particle by Particle moves
  Walker moves without drift
  Total Sample Size   =512000
  Walker distribution on root = 0 1 
  Using Locality Approximation
===== Memory Usage after the buffer registration =====
Available memory on node 0, free + buffers : 54371 MB
Memory footprint by rank 0 on node 0       : 595 MB
==================================================
====================================================
  SimpleFixedNodeBranch::finalize after a VMC block
    QMC counter        = 3
    time step          = 0.15
    reference energy   = -13.304
    reference variance = 0.0421747
====================================================
  Execution time = 4.1943e+00
</vmc>
<opt stage="setup">
  <log>
   Reading configurations from h5FileRoot Br.log.s003
  QMCCostFunction is created with 1 threads.
  Using Nonlocal PP in Opt: NonLocalECP
   Number of samples loaded to each thread : 500 
  VMC Eavg = -1.3307e+01
  VMC Evar = 1.0009e-01
  Total weights = 5.1200e+05
  Execution time = 1.5518e+00
  </log>
</opt>
<opt stage="main" walkers="512000">
  <log>

*****************************************
Building overlap and Hamiltonian matrices
*****************************************

Among totally 82 optimized parameters, largest LM parameter change : 2.3903e-02 at parameter 22

******************************************************************************
Init Cost =  -1.2636e+01    New Cost =  -1.2636e+01  Delta Cost =  -2.6712e-05
******************************************************************************

The new set of parameters is valid. Updating the trial wave function!

*****************************************************************************
Applying the update for shift_i =   1.0000e-02     and shift_s =   1.5625e-02
*****************************************************************************
  Execution time = 7.1543e+00
  </log>
  <optVariables href="Br.log.s003.opt.xml">
   uu_0                 3.922173e-01 1 1  ON 0
   uu_1                 2.051310e-01 1 1  ON 1
   uu_2                 8.952789e-02 1 1  ON 2
   uu_3                 1.000083e-02 1 1  ON 3
   uu_4                -4.381016e-02 1 1  ON 4
   uu_5                -8.920483e-02 1 1  ON 5
   uu_6                -1.213442e-01 1 1  ON 6
   uu_7                -1.389436e-01 1 1  ON 7
   uu_8                -1.357800e-01 1 1  ON 8
   uu_9                -1.059971e-01 1 1  ON 9
   ud_0                 7.382192e-01 1 1  ON 10
   ud_1                 3.753205e-01 1 1  ON 11
   ud_2                 1.592818e-01 1 1  ON 12
   ud_3                 2.575462e-02 1 1  ON 13
   ud_4                -4.573596e-02 1 1  ON 14
   ud_5                -9.562510e-02 1 1  ON 15
   ud_6                -1.324670e-01 1 1  ON 16
   ud_7                -1.672321e-01 1 1  ON 17
   ud_8                -1.788552e-01 1 1  ON 18
   ud_9                -1.612152e-01 1 1  ON 19
  eBr_0                -1.037363e+00 1 1  ON 20
  eBr_1                -9.612721e-01 1 1  ON 21
  eBr_2                -6.508692e-01 1 1  ON 22
  eBr_3                -1.473397e-01 1 1  ON 23
  eBr_4                 3.227028e-01 1 1  ON 24
  eBr_5                 4.706453e-01 1 1  ON 25
  eBr_6                 6.556698e-01 1 1  ON 26
  eBr_7                 7.169034e-01 1 1  ON 27
  eBr_8                 5.447936e-01 1 1  ON 28
  eBr_9                 1.186512e-01 1 1  ON 29
 uuBr_0                -3.361094e-05 1 1  ON 30
 uuBr_1                 2.660597e-05 1 1  ON 31
 uuBr_2                 2.876202e-05 1 1  ON 32
 uuBr_3                 2.954599e-05 1 1  ON 33
 uuBr_4                -5.913227e-07 1 1  ON 34
 uuBr_5                -1.920109e-06 1 1  ON 35
 uuBr_6                 9.073559e-05 1 1  ON 36
 uuBr_7                -4.778761e-06 1 1  ON 37
 uuBr_8                -1.360034e-05 1 1  ON 38
 uuBr_9                -3.179831e-05 1 1  ON 39
uuBr_10                 1.094293e-05 1 1  ON 40
uuBr_11                 1.634568e-06 1 1  ON 41
uuBr_12                 4.754521e-06 1 1  ON 42
uuBr_13                -4.468499e-05 1 1  ON 43
uuBr_14                -8.773913e-06 1 1  ON 44
uuBr_15                 3.648626e-07 1 1  ON 45
uuBr_16                 5.747290e-05 1 1  ON 46
uuBr_17                -5.601473e-05 1 1  ON 47
uuBr_18                 4.895548e-06 1 1  ON 48
uuBr_19                -1.045289e-06 1 1  ON 49
uuBr_20                 8.594882e-06 1 1  ON 50
uuBr_21                 1.538375e-06 1 1  ON 51
uuBr_22                -2.398581e-07 1 1  ON 52
uuBr_23                -1.753250e-06 1 1  ON 53
uuBr_24                -2.453483e-07 1 1  ON 54
uuBr_25                 6.302343e-08 1 1  ON 55
 udBr_0                -5.340289e-05 1 1  ON 56
 udBr_1                 3.510452e-05 1 1  ON 57
 udBr_2                 5.918353e-05 1 1  ON 58
 udBr_3                 6.909737e-05 1 1  ON 59
 udBr_4                 3.989583e-06 1 1  ON 60
 udBr_5                -5.610533e-06 1 1  ON 61
 udBr_6                 1.718823e-04 1 1  ON 62
 udBr_7                -2.359772e-06 1 1  ON 63
 udBr_8                -2.158555e-05 1 1  ON 64
 udBr_9                -8.890486e-05 1 1  ON 65
udBr_10                 3.590172e-05 1 1  ON 66
udBr_11                -1.430010e-05 1 1  ON 67
udBr_12                 1.227900e-05 1 1  ON 68
udBr_13                -7.372549e-05 1 1  ON 69
udBr_14                -1.638971e-05 1 1  ON 70
udBr_15                 3.313926e-07 1 1  ON 71
udBr_16                 1.475230e-04 1 1  ON 72
udBr_17                -1.073416e-04 1 1  ON 73
udBr_18                 1.684311e-05 1 1  ON 74
udBr_19                -5.172977e-06 1 1  ON 75
udBr_20                 1.239822e-06 1 1  ON 76
udBr_21                 3.476948e-06 1 1  ON 77
udBr_22                -1.538399e-07 1 1  ON 78
udBr_23                 2.638963e-07 1 1  ON 79
udBr_24                -8.000789e-07 1 1  ON 80
udBr_25                 1.106783e-07 1 1  ON 81
  </optVariables>
   Restore the number of walkers to 1, removing 0 walkers.
</opt>
</optimization-report>
  QMC Execution time = 7.167 secs
  Reusing QMCFixedSampleLinearOptimize
 Using QMCCostFunction::QMCCostFunction

=========================================================
  Start QMCFixedSampleLinearOptimize
  File Root Br.log.s004 append = no 
=========================================================
  Skip QMCDriver::putQMCInfo 
  Resetting Properties of the walkers 1 x 13

=========================================================
  Start VMC
  File Root Br.log.s004 append = no 
=========================================================
Using existing walkers 
  Resetting Properties of the walkers 1 x 13

<vmc function="put">
  qmc_counter=3  my_counter=3
  time step      = 1.5000e-01
  blocks         = 500
  steps          = 1
  substeps       = 5
  current        = 0
  target samples = 5.1200e+05
  walkers/mpi    = 1

  stepsbetweensamples = 1
<parameter name="blocks" condition="int">500</parameter>
<parameter name="blocks_between_recompute" condition="int">0</parameter>
<parameter name="check_properties" condition="int">100</parameter>
<parameter name="checkproperties" condition="int">100</parameter>
<parameter name="current" condition="int">0</parameter>
<parameter name="dmcwalkersperthread" condition="real">5.0000e+02</parameter>
<parameter name="maxcpusecs" condition="real">3.6000e+05</parameter>
<parameter name="record_configs" condition="int">0</parameter>
<parameter name="record_walkers" condition="int">1</parameter>
<parameter name="recordconfigs" condition="int">0</parameter>
<parameter name="recordwalkers" condition="int">1</parameter>
<parameter name="rewind" condition="int">0</parameter>
<parameter name="samples" condition="real">5.1200e+05</parameter>
<parameter name="samplesperthread" condition="real">5.0000e+02</parameter>
<parameter name="steps" condition="int">1</parameter>
<parameter name="stepsbetweensamples" condition="int">1</parameter>
<parameter name="store_configs" condition="int">0</parameter>
<parameter name="storeconfigs" condition="int">0</parameter>
<parameter name="sub_steps" condition="int">5</parameter>
<parameter name="substeps" condition="int">5</parameter>
<parameter name="tau" condition="au">1.5000e-01</parameter>
<parameter name="time_step" condition="au">1.5000e-01</parameter>
<parameter name="timestep" condition="au">1.5000e-01</parameter>
<parameter name="use_drift" condition="string">no</parameter>
<parameter name="usedrift" condition="string">no</parameter>
<parameter name="walkers" condition="int">1</parameter>
<parameter name="warmup_steps" condition="int">0</parameter>
<parameter name="warmupsteps" condition="int">0</parameter>
  DumpConfig==false Nothing (configurations, state) will be saved.
  Walker Samples are dumped every 1 steps.
</vmc>
  Set drift_modifier UNR parameter a = 1.0000e+00
  EstimatorManagerBase::add replace LocalEnergy estimator.
  Set drift_modifier UNR parameter a = 1.0000e+00
  EstimatorManagerBase::add replace LocalEnergy estimator.
<optimization-report>
<vmc stage="main" blocks="500">
  Cannot make clones again. Use existing 1 clones
  Initial partition of walkers 0 1 
  Using Particle by Particle moves
  Walker moves without drift
  Total Sample Size   =512000
  Walker distribution on root = 0 1 
  Using Locality Approximation
===== Memory Usage after the buffer registration =====
Available memory on node 0, free + buffers : 54367 MB
Memory footprint by rank 0 on node 0       : 599 MB
==================================================
====================================================
  SimpleFixedNodeBranch::finalize after a VMC block
    QMC counter        = 4
    time step          = 0.15
    reference energy   = -13.3071
    reference variance = 0.0361291
====================================================
  Execution time = 4.2130e+00
</vmc>
<opt stage="setup">
  <log>
   Reading configurations from h5FileRoot Br.log.s004
  QMCCostFunction is created with 1 threads.
  Using Nonlocal PP in Opt: NonLocalECP
   Number of samples loaded to each thread : 500 
  VMC Eavg = -1.3306e+01
  VMC Evar = 1.0242e-01
  Total weights = 5.1200e+05
  Execution time = 1.5321e+00
  </log>
</opt>
<opt stage="main" walkers="512000">
  <log>

*****************************************
Building overlap and Hamiltonian matrices
*****************************************

Among totally 82 optimized parameters, largest LM parameter change : 2.0215e-02 at parameter 22

******************************************************************************
Init Cost =  -1.2636e+01    New Cost =  -1.2636e+01  Delta Cost =  -9.8244e-05
******************************************************************************

The new set of parameters is valid. Updating the trial wave function!

*****************************************************************************
Applying the update for shift_i =   1.0000e-02     and shift_s =   3.9062e-03
*****************************************************************************
  Execution time = 7.1461e+00
  </log>
  <optVariables href="Br.log.s004.opt.xml">
   uu_0                 3.852009e-01 1 1  ON 0
   uu_1                 2.002250e-01 1 1  ON 1
   uu_2                 8.757468e-02 1 1  ON 2
   uu_3                 1.090937e-02 1 1  ON 3
   uu_4                -4.167477e-02 1 1  ON 4
   uu_5                -8.760094e-02 1 1  ON 5
   uu_6                -1.204425e-01 1 1  ON 6
   uu_7                -1.379409e-01 1 1  ON 7
   uu_8                -1.339682e-01 1 1  ON 8
   uu_9                -1.010962e-01 1 1  ON 9
   ud_0                 7.395625e-01 1 1  ON 10
   ud_1                 3.771708e-01 1 1  ON 11
   ud_2                 1.597989e-01 1 1  ON 12
   ud_3                 2.638954e-02 1 1  ON 13
   ud_4                -4.424626e-02 1 1  ON 14
   ud_5                -9.281813e-02 1 1  ON 15
   ud_6                -1.277577e-01 1 1  ON 16
   ud_7                -1.609315e-01 1 1  ON 17
   ud_8                -1.744076e-01 1 1  ON 18
   ud_9                -1.567629e-01 1 1  ON 19
  eBr_0                -1.032102e+00 1 1  ON 20
  eBr_1                -9.776761e-01 1 1  ON 21
  eBr_2                -6.710844e-01 1 1  ON 22
  eBr_3                -1.515178e-01 1 1  ON 23
  eBr_4                 3.319774e-01 1 1  ON 24
  eBr_5                 4.679395e-01 1 1  ON 25
  eBr_6                 6.564070e-01 1 1  ON 26
  eBr_7                 7.205518e-01 1 1  ON 27
  eBr_8                 5.588274e-01 1 1  ON 28
  eBr_9                 1.285278e-01 1 1  ON 29
 uuBr_0                -3.348567e-05 1 1  ON 30
 uuBr_1                 1.350953e-05 1 1  ON 31
 uuBr_2                 2.557623e-05 1 1  ON 32
 uuBr_3                 3.447110e-05 1 1  ON 33
 uuBr_4                 2.675020e-07 1 1  ON 34
 uuBr_5                -9.124973e-07 1 1  ON 35
 uuBr_6                 6.701779e-05 1 1  ON 36
 uuBr_7                 1.136778e-05 1 1  ON 37
 uuBr_8                -1.314299e-05 1 1  ON 38
 uuBr_9                -1.746214e-05 1 1  ON 39
uuBr_10                 1.520712e-05 1 1  ON 40
uuBr_11                -7.395953e-06 1 1  ON 41
uuBr_12                 5.002247e-06 1 1  ON 42
uuBr_13                -5.138202e-05 1 1  ON 43
uuBr_14                -7.676530e-06 1 1  ON 44
uuBr_15                 2.449773e-07 1 1  ON 45
uuBr_16                 4.763417e-05 1 1  ON 46
uuBr_17                -6.149524e-05 1 1  ON 47
uuBr_18                 1.360462e-05 1 1  ON 48
uuBr_19                -1.962427e-06 1 1  ON 49
uuBr_20                 1.187519e-05 1 1  ON 50
uuBr_21                -1.350540e-07 1 1  ON 51
uuBr_22                 2.175257e-08 1 1  ON 52
uuBr_23                -2.409120e-06 1 1  ON 53
uuBr_24                 1.247471e-07 1 1  ON 54
uuBr_25                -7.521642e-09 1 1  ON 55
 udBr_0                -5.156334e-05 1 1  ON 56
 udBr_1                 4.812258e-05 1 1  ON 57
 udBr_2                 6.087277e-05 1 1  ON 58
 udBr_3                 6.352776e-05 1 1  ON 59
 udBr_4                 2.932245e-06 1 1  ON 60
 udBr_5                -6.483296e-06 1 1  ON 61
 udBr_6                 1.897943e-04 1 1  ON 62
 udBr_7                -1.341004e-05 1 1  ON 63
 udBr_8                -2.030797e-05 1 1  ON 64
 udBr_9                -1.007034e-04 1 1  ON 65
udBr_10                 3.177483e-05 1 1  ON 66
udBr_11                -9.752993e-06 1 1  ON 67
udBr_12                 1.142898e-05 1 1  ON 68
udBr_13                -6.773842e-05 1 1  ON 69
udBr_14                -1.638500e-05 1 1  ON 70
udBr_15                 4.001251e-07 1 1  ON 71
udBr_16                 1.562343e-04 1 1  ON 72
udBr_17                -1.035343e-04 1 1  ON 73
udBr_18                 1.355964e-05 1 1  ON 74
udBr_19                -4.521883e-06 1 1  ON 75
udBr_20                -1.365600e-06 1 1  ON 76
udBr_21                 3.847888e-06 1 1  ON 77
udBr_22                -2.376544e-07 1 1  ON 78
udBr_23                 7.015781e-07 1 1  ON 79
udBr_24                -8.559910e-07 1 1  ON 80
udBr_25                 1.206592e-07 1 1  ON 81
  </optVariables>
   Restore the number of walkers to 1, removing 0 walkers.
</opt>
</optimization-report>
  QMC Execution time = 7.159 secs
  Reusing QMCFixedSampleLinearOptimize
 Using QMCCostFunction::QMCCostFunction

=========================================================
  Start QMCFixedSampleLinearOptimize
  File Root Br.log.s005 append = no 
=========================================================
  Skip QMCDriver::putQMCInfo 
  Resetting Properties of the walkers 1 x 13

=========================================================
  Start VMC
  File Root Br.log.s005 append = no 
=========================================================
Using existing walkers 
  Resetting Properties of the walkers 1 x 13

<vmc function="put">
  qmc_counter=4  my_counter=4
  time step      = 1.5000e-01
  blocks         = 500
  steps          = 1
  substeps       = 5
  current        = 0
  target samples = 5.1200e+05
  walkers/mpi    = 1

  stepsbetweensamples = 1
<parameter name="blocks" condition="int">500</parameter>
<parameter name="blocks_between_recompute" condition="int">0</parameter>
<parameter name="check_properties" condition="int">100</parameter>
<parameter name="checkproperties" condition="int">100</parameter>
<parameter name="current" condition="int">0</parameter>
<parameter name="dmcwalkersperthread" condition="real">5.0000e+02</parameter>
<parameter name="maxcpusecs" condition="real">3.6000e+05</parameter>
<parameter name="record_configs" condition="int">0</parameter>
<parameter name="record_walkers" condition="int">1</parameter>
<parameter name="recordconfigs" condition="int">0</parameter>
<parameter name="recordwalkers" condition="int">1</parameter>
<parameter name="rewind" condition="int">0</parameter>
<parameter name="samples" condition="real">5.1200e+05</parameter>
<parameter name="samplesperthread" condition="real">5.0000e+02</parameter>
<parameter name="steps" condition="int">1</parameter>
<parameter name="stepsbetweensamples" condition="int">1</parameter>
<parameter name="store_configs" condition="int">0</parameter>
<parameter name="storeconfigs" condition="int">0</parameter>
<parameter name="sub_steps" condition="int">5</parameter>
<parameter name="substeps" condition="int">5</parameter>
<parameter name="tau" condition="au">1.5000e-01</parameter>
<parameter name="time_step" condition="au">1.5000e-01</parameter>
<parameter name="timestep" condition="au">1.5000e-01</parameter>
<parameter name="use_drift" condition="string">no</parameter>
<parameter name="usedrift" condition="string">no</parameter>
<parameter name="walkers" condition="int">1</parameter>
<parameter name="warmup_steps" condition="int">0</parameter>
<parameter name="warmupsteps" condition="int">0</parameter>
  DumpConfig==false Nothing (configurations, state) will be saved.
  Walker Samples are dumped every 1 steps.
</vmc>
  Set drift_modifier UNR parameter a = 1.0000e+00
  EstimatorManagerBase::add replace LocalEnergy estimator.
  Set drift_modifier UNR parameter a = 1.0000e+00
  EstimatorManagerBase::add replace LocalEnergy estimator.
<optimization-report>
<vmc stage="main" blocks="500">
  Cannot make clones again. Use existing 1 clones
  Initial partition of walkers 0 1 
  Using Particle by Particle moves
  Walker moves without drift
  Total Sample Size   =512000
  Walker distribution on root = 0 1 
  Using Locality Approximation
===== Memory Usage after the buffer registration =====
Available memory on node 0, free + buffers : 54364 MB
Memory footprint by rank 0 on node 0       : 602 MB
==================================================
====================================================
  SimpleFixedNodeBranch::finalize after a VMC block
    QMC counter        = 5
    time step          = 0.15
    reference energy   = -13.3104
    reference variance = 0.0382159
====================================================
  Execution time = 4.2226e+00
</vmc>
<opt stage="setup">
  <log>
   Reading configurations from h5FileRoot Br.log.s005
  QMCCostFunction is created with 1 threads.
  Using Nonlocal PP in Opt: NonLocalECP
   Number of samples loaded to each thread : 500 
  VMC Eavg = -1.3307e+01
  VMC Evar = 1.3054e-01
  Total weights = 5.1200e+05
  Execution time = 1.5219e+00
  </log>
</opt>
<opt stage="main" walkers="512000">
  <log>

*****************************************
Building overlap and Hamiltonian matrices
*****************************************

Among totally 82 optimized parameters, largest LM parameter change : 1.8339e-02 at parameter 22

******************************************************************************
Init Cost =  -1.2635e+01    New Cost =  -1.2635e+01  Delta Cost =  -4.2275e-05
******************************************************************************

The new set of parameters is valid. Updating the trial wave function!

*****************************************************************************
Applying the update for shift_i =   1.0000e-02     and shift_s =   3.9062e-03
*****************************************************************************
  Execution time = 7.1429e+00
  </log>
  <optVariables href="Br.log.s005.opt.xml">
   uu_0                 3.806138e-01 1 1  ON 0
   uu_1                 1.977549e-01 1 1  ON 1
   uu_2                 8.728716e-02 1 1  ON 2
   uu_3                 1.222500e-02 1 1  ON 3
   uu_4                -3.897578e-02 1 1  ON 4
   uu_5                -8.373541e-02 1 1  ON 5
   uu_6                -1.149677e-01 1 1  ON 6
   uu_7                -1.316364e-01 1 1  ON 7
   uu_8                -1.339295e-01 1 1  ON 8
   uu_9                -1.049170e-01 1 1  ON 9
   ud_0                 7.396372e-01 1 1  ON 10
   ud_1                 3.772880e-01 1 1  ON 11
   ud_2                 1.614686e-01 1 1  ON 12
   ud_3                 2.938709e-02 1 1  ON 13
   ud_4                -4.077568e-02 1 1  ON 14
   ud_5                -8.940576e-02 1 1  ON 15
   ud_6                -1.250352e-01 1 1  ON 16
   ud_7                -1.590024e-01 1 1  ON 17
   ud_8                -1.737556e-01 1 1  ON 18
   ud_9                -1.557218e-01 1 1  ON 19
  eBr_0                -1.027981e+00 1 1  ON 20
  eBr_1                -9.927881e-01 1 1  ON 21
  eBr_2                -6.894235e-01 1 1  ON 22
  eBr_3                -1.548117e-01 1 1  ON 23
  eBr_4                 3.387337e-01 1 1  ON 24
  eBr_5                 4.695712e-01 1 1  ON 25
  eBr_6                 6.539197e-01 1 1  ON 26
  eBr_7                 7.238287e-01 1 1  ON 27
  eBr_8                 5.737987e-01 1 1  ON 28
  eBr_9                 1.381099e-01 1 1  ON 29
 uuBr_0                -3.338251e-05 1 1  ON 30
 uuBr_1                 2.118089e-05 1 1  ON 31
 uuBr_2                 2.777751e-05 1 1  ON 32
 uuBr_3                 3.145840e-05 1 1  ON 33
 uuBr_4                -9.227299e-07 1 1  ON 34
 uuBr_5                -1.096269e-06 1 1  ON 35
 uuBr_6                 8.081209e-05 1 1  ON 36
 uuBr_7                 2.898206e-06 1 1  ON 37
 uuBr_8                -1.069457e-05 1 1  ON 38
 uuBr_9                -2.603416e-05 1 1  ON 39
uuBr_10                 1.203636e-05 1 1  ON 40
uuBr_11                -3.843821e-06 1 1  ON 41
uuBr_12                 3.620556e-06 1 1  ON 42
uuBr_13                -4.604443e-05 1 1  ON 43
uuBr_14                -7.027549e-06 1 1  ON 44
uuBr_15                 3.054382e-07 1 1  ON 45
uuBr_16                 5.490638e-05 1 1  ON 46
uuBr_17                -5.589991e-05 1 1  ON 47
uuBr_18                 9.267537e-06 1 1  ON 48
uuBr_19                -8.785475e-07 1 1  ON 49
uuBr_20                 8.773611e-06 1 1  ON 50
uuBr_21                 4.173325e-07 1 1  ON 51
uuBr_22                -1.228606e-07 1 1  ON 52
uuBr_23                -1.542303e-06 1 1  ON 53
uuBr_24                -4.687522e-08 1 1  ON 54
uuBr_25                 2.326556e-08 1 1  ON 55
 udBr_0                -5.235456e-05 1 1  ON 56
 udBr_1                 4.764206e-05 1 1  ON 57
 udBr_2                 5.966195e-05 1 1  ON 58
 udBr_3                 6.321361e-05 1 1  ON 59
 udBr_4                 2.851872e-06 1 1  ON 60
 udBr_5                -6.624810e-06 1 1  ON 61
 udBr_6                 1.895088e-04 1 1  ON 62
 udBr_7                -1.817070e-05 1 1  ON 63
 udBr_8                -2.260531e-05 1 1  ON 64
 udBr_9                -9.776076e-05 1 1  ON 65
udBr_10                 3.100184e-05 1 1  ON 66
udBr_11                -5.314064e-06 1 1  ON 67
udBr_12                 1.149305e-05 1 1  ON 68
udBr_13                -6.812209e-05 1 1  ON 69
udBr_14                -1.695758e-05 1 1  ON 70
udBr_15                 4.555246e-07 1 1  ON 71
udBr_16                 1.531783e-04 1 1  ON 72
udBr_17                -1.026237e-04 1 1  ON 73
udBr_18                 1.060036e-05 1 1  ON 74
udBr_19                -4.128516e-06 1 1  ON 75
udBr_20                -8.146862e-07 1 1  ON 76
udBr_21                 4.312680e-06 1 1  ON 77
udBr_22                -3.319431e-07 1 1  ON 78
udBr_23                 6.225734e-07 1 1  ON 79
udBr_24                -9.579162e-07 1 1  ON 80
udBr_25                 1.437564e-07 1 1  ON 81
  </optVariables>
   Restore the number of walkers to 1, removing 0 walkers.
</opt>
</optimization-report>
  QMC Execution time = 7.155 secs
  Reusing QMCFixedSampleLinearOptimize
 Using QMCCostFunction::QMCCostFunction

=========================================================
  Start QMCFixedSampleLinearOptimize
  File Root Br.log.s006 append = no 
=========================================================
  Skip QMCDriver::putQMCInfo 
  Resetting Properties of the walkers 1 x 13

=========================================================
  Start VMC
  File Root Br.log.s006 append = no 
=========================================================
Using existing walkers 
  Resetting Properties of the walkers 1 x 13

<vmc function="put">
  qmc_counter=5  my_counter=5
  time step      = 1.5000e-01
  blocks         = 500
  steps          = 1
  substeps       = 5
  current        = 0
  target samples = 5.1200e+05
  walkers/mpi    = 1

  stepsbetweensamples = 1
<parameter name="blocks" condition="int">500</parameter>
<parameter name="blocks_between_recompute" condition="int">0</parameter>
<parameter name="check_properties" condition="int">100</parameter>
<parameter name="checkproperties" condition="int">100</parameter>
<parameter name="current" condition="int">0</parameter>
<parameter name="dmcwalkersperthread" condition="real">5.0000e+02</parameter>
<parameter name="maxcpusecs" condition="real">3.6000e+05</parameter>
<parameter name="record_configs" condition="int">0</parameter>
<parameter name="record_walkers" condition="int">1</parameter>
<parameter name="recordconfigs" condition="int">0</parameter>
<parameter name="recordwalkers" condition="int">1</parameter>
<parameter name="rewind" condition="int">0</parameter>
<parameter name="samples" condition="real">5.1200e+05</parameter>
<parameter name="samplesperthread" condition="real">5.0000e+02</parameter>
<parameter name="steps" condition="int">1</parameter>
<parameter name="stepsbetweensamples" condition="int">1</parameter>
<parameter name="store_configs" condition="int">0</parameter>
<parameter name="storeconfigs" condition="int">0</parameter>
<parameter name="sub_steps" condition="int">5</parameter>
<parameter name="substeps" condition="int">5</parameter>
<parameter name="tau" condition="au">1.5000e-01</parameter>
<parameter name="time_step" condition="au">1.5000e-01</parameter>
<parameter name="timestep" condition="au">1.5000e-01</parameter>
<parameter name="use_drift" condition="string">no</parameter>
<parameter name="usedrift" condition="string">no</parameter>
<parameter name="walkers" condition="int">1</parameter>
<parameter name="warmup_steps" condition="int">0</parameter>
<parameter name="warmupsteps" condition="int">0</parameter>
  DumpConfig==false Nothing (configurations, state) will be saved.
  Walker Samples are dumped every 1 steps.
</vmc>
  Set drift_modifier UNR parameter a = 1.0000e+00
  EstimatorManagerBase::add replace LocalEnergy estimator.
  Set drift_modifier UNR parameter a = 1.0000e+00
  EstimatorManagerBase::add replace LocalEnergy estimator.
<optimization-report>
<vmc stage="main" blocks="500">
  Cannot make clones again. Use existing 1 clones
  Initial partition of walkers 0 1 
  Using Particle by Particle moves
  Walker moves without drift
  Total Sample Size   =512000
  Walker distribution on root = 0 1 
  Using Locality Approximation
===== Memory Usage after the buffer registration =====
Available memory on node 0, free + buffers : 54360 MB
Memory footprint by rank 0 on node 0       : 605 MB
==================================================
====================================================
  SimpleFixedNodeBranch::finalize after a VMC block
    QMC counter        = 6
    time step          = 0.15
    reference energy   = -13.3059
    reference variance = 0.0420613
====================================================
  Execution time = 4.2192e+00
</vmc>
<opt stage="setup">
  <log>
   Reading configurations from h5FileRoot Br.log.s006
  QMCCostFunction is created with 1 threads.
  Using Nonlocal PP in Opt: NonLocalECP
   Number of samples loaded to each thread : 500 
  VMC Eavg = -1.3306e+01
  VMC Evar = 7.8114e-02
  Total weights = 5.1200e+05
  Execution time = 1.5542e+00
  </log>
</opt>
<opt stage="main" walkers="512000">
  <log>

*****************************************
Building overlap and Hamiltonian matrices
*****************************************

Among totally 82 optimized parameters, largest LM parameter change : 1.4350e-02 at parameter 28

******************************************************************************
Init Cost =  -1.2637e+01    New Cost =  -1.2637e+01  Delta Cost =  -1.5883e-05
******************************************************************************

The new set of parameters is valid. Updating the trial wave function!

*****************************************************************************
Applying the update for shift_i =   1.0000e-02     and shift_s =   3.9062e-03
*****************************************************************************
  Execution time = 7.1806e+00
  </log>
  <optVariables href="Br.log.s006.opt.xml">
   uu_0                 3.772471e-01 1 1  ON 0
   uu_1                 1.958408e-01 1 1  ON 1
   uu_2                 8.739785e-02 1 1  ON 2
   uu_3                 1.489885e-02 1 1  ON 3
   uu_4                -3.505528e-02 1 1  ON 4
   uu_5                -7.994772e-02 1 1  ON 5
   uu_6                -1.128139e-01 1 1  ON 6
   uu_7                -1.317149e-01 1 1  ON 7
   uu_8                -1.350442e-01 1 1  ON 8
   uu_9                -1.037192e-01 1 1  ON 9
   ud_0                 7.433371e-01 1 1  ON 10
   ud_1                 3.815355e-01 1 1  ON 11
   ud_2                 1.658625e-01 1 1  ON 12
   ud_3                 3.299125e-02 1 1  ON 13
   ud_4                -3.752975e-02 1 1  ON 14
   ud_5                -8.615020e-02 1 1  ON 15
   ud_6                -1.220611e-01 1 1  ON 16
   ud_7                -1.571333e-01 1 1  ON 17
   ud_8                -1.741212e-01 1 1  ON 18
   ud_9                -1.550269e-01 1 1  ON 19
  eBr_0                -1.025413e+00 1 1  ON 20
  eBr_1                -1.004537e+00 1 1  ON 21
  eBr_2                -7.014177e-01 1 1  ON 22
  eBr_3                -1.609044e-01 1 1  ON 23
  eBr_4                 3.391148e-01 1 1  ON 24
  eBr_5                 4.689511e-01 1 1  ON 25
  eBr_6                 6.555196e-01 1 1  ON 26
  eBr_7                 7.259732e-01 1 1  ON 27
  eBr_8                 5.881489e-01 1 1  ON 28
  eBr_9                 1.479964e-01 1 1  ON 29
 uuBr_0                -3.187297e-05 1 1  ON 30
 uuBr_1                 3.037639e-05 1 1  ON 31
 uuBr_2                 2.819011e-05 1 1  ON 32
 uuBr_3                 2.718791e-05 1 1  ON 33
 uuBr_4                -1.745688e-06 1 1  ON 34
 uuBr_5                -1.572805e-06 1 1  ON 35
 uuBr_6                 9.086472e-05 1 1  ON 36
 uuBr_7                 4.913412e-07 1 1  ON 37
 uuBr_8                -9.451496e-06 1 1  ON 38
 uuBr_9                -3.359977e-05 1 1  ON 39
uuBr_10                 8.709433e-06 1 1  ON 40
uuBr_11                -2.844315e-06 1 1  ON 41
uuBr_12                 3.284765e-06 1 1  ON 42
uuBr_13                -4.224534e-05 1 1  ON 43
uuBr_14                -6.823365e-06 1 1  ON 44
uuBr_15                 2.982164e-07 1 1  ON 45
uuBr_16                 6.144336e-05 1 1  ON 46
uuBr_17                -5.390465e-05 1 1  ON 47
uuBr_18                 8.718178e-06 1 1  ON 48
uuBr_19                -8.848069e-07 1 1  ON 49
uuBr_20                 6.961164e-06 1 1  ON 50
uuBr_21                 4.102272e-07 1 1  ON 51
uuBr_22                -9.105157e-08 1 1  ON 52
uuBr_23                -1.173473e-06 1 1  ON 53
uuBr_24                -3.883996e-08 1 1  ON 54
uuBr_25                 1.239751e-08 1 1  ON 55
 udBr_0                -5.360646e-05 1 1  ON 56
 udBr_1                 4.534450e-05 1 1  ON 57
 udBr_2                 6.412719e-05 1 1  ON 58
 udBr_3                 6.464161e-05 1 1  ON 59
 udBr_4                 1.820848e-06 1 1  ON 60
 udBr_5                -6.105380e-06 1 1  ON 61
 udBr_6                 1.879558e-04 1 1  ON 62
 udBr_7                -6.610447e-06 1 1  ON 63
 udBr_8                -1.490418e-05 1 1  ON 64
 udBr_9                -9.925868e-05 1 1  ON 65
udBr_10                 3.203620e-05 1 1  ON 66
udBr_11                -1.563043e-05 1 1  ON 67
udBr_12                 9.852085e-06 1 1  ON 68
udBr_13                -6.791768e-05 1 1  ON 69
udBr_14                -1.462021e-05 1 1  ON 70
udBr_15                 3.773810e-07 1 1  ON 71
udBr_16                 1.571276e-04 1 1  ON 72
udBr_17                -1.026172e-04 1 1  ON 73
udBr_18                 1.655432e-05 1 1  ON 74
udBr_19                -4.132428e-06 1 1  ON 75
udBr_20                -2.133840e-06 1 1  ON 76
udBr_21                 3.216466e-06 1 1  ON 77
udBr_22                -1.979774e-07 1 1  ON 78
udBr_23                 1.085681e-06 1 1  ON 79
udBr_24                -8.077614e-07 1 1  ON 80
udBr_25                 1.089763e-07 1 1  ON 81
  </optVariables>
   Restore the number of walkers to 1, removing 0 walkers.
</opt>
</optimization-report>
  QMC Execution time = 7.193 secs
  Reusing QMCFixedSampleLinearOptimize
 Using QMCCostFunction::QMCCostFunction

=========================================================
  Start QMCFixedSampleLinearOptimize
  File Root Br.log.s007 append = no 
=========================================================
  Skip QMCDriver::putQMCInfo 
  Resetting Properties of the walkers 1 x 13

=========================================================
  Start VMC
  File Root Br.log.s007 append = no 
=========================================================
Using existing walkers 
  Resetting Properties of the walkers 1 x 13

<vmc function="put">
  qmc_counter=6  my_counter=6
  time step      = 1.5000e-01
  blocks         = 500
  steps          = 1
  substeps       = 5
  current        = 0
  target samples = 5.1200e+05
  walkers/mpi    = 1

  stepsbetweensamples = 1
<parameter name="blocks" condition="int">500</parameter>
<parameter name="blocks_between_recompute" condition="int">0</parameter>
<parameter name="check_properties" condition="int">100</parameter>
<parameter name="checkproperties" condition="int">100</parameter>
<parameter name="current" condition="int">0</parameter>
<parameter name="dmcwalkersperthread" condition="real">5.0000e+02</parameter>
<parameter name="maxcpusecs" condition="real">3.6000e+05</parameter>
<parameter name="record_configs" condition="int">0</parameter>
<parameter name="record_walkers" condition="int">1</parameter>
<parameter name="recordconfigs" condition="int">0</parameter>
<parameter name="recordwalkers" condition="int">1</parameter>
<parameter name="rewind" condition="int">0</parameter>
<parameter name="samples" condition="real">5.1200e+05</parameter>
<parameter name="samplesperthread" condition="real">5.0000e+02</parameter>
<parameter name="steps" condition="int">1</parameter>
<parameter name="stepsbetweensamples" condition="int">1</parameter>
<parameter name="store_configs" condition="int">0</parameter>
<parameter name="storeconfigs" condition="int">0</parameter>
<parameter name="sub_steps" condition="int">5</parameter>
<parameter name="substeps" condition="int">5</parameter>
<parameter name="tau" condition="au">1.5000e-01</parameter>
<parameter name="time_step" condition="au">1.5000e-01</parameter>
<parameter name="timestep" condition="au">1.5000e-01</parameter>
<parameter name="use_drift" condition="string">no</parameter>
<parameter name="usedrift" condition="string">no</parameter>
<parameter name="walkers" condition="int">1</parameter>
<parameter name="warmup_steps" condition="int">0</parameter>
<parameter name="warmupsteps" condition="int">0</parameter>
  DumpConfig==false Nothing (configurations, state) will be saved.
  Walker Samples are dumped every 1 steps.
</vmc>
  Set drift_modifier UNR parameter a = 1.0000e+00
  EstimatorManagerBase::add replace LocalEnergy estimator.
  Set drift_modifier UNR parameter a = 1.0000e+00
  EstimatorManagerBase::add replace LocalEnergy estimator.
<optimization-report>
<vmc stage="main" blocks="500">
  Cannot make clones again. Use existing 1 clones
  Initial partition of walkers 0 1 
  Using Particle by Particle moves
  Walker moves without drift
  Total Sample Size   =512000
  Walker distribution on root = 0 1 
  Using Locality Approximation
===== Memory Usage after the buffer registration =====
Available memory on node 0, free + buffers : 54357 MB
Memory footprint by rank 0 on node 0       : 608 MB
==================================================
====================================================
  SimpleFixedNodeBranch::finalize after a VMC block
    QMC counter        = 7
    time step          = 0.15
    reference energy   = -13.2996
    reference variance = 0.0365631
====================================================
  Execution time = 4.2619e+00
</vmc>
<opt stage="setup">
  <log>
   Reading configurations from h5FileRoot Br.log.s007
  QMCCostFunction is created with 1 threads.
  Using Nonlocal PP in Opt: NonLocalECP
   Number of samples loaded to each thread : 500 
  VMC Eavg = -1.3307e+01
  VMC Evar = 1.0492e-01
  Total weights = 5.1200e+05
  Execution time = 1.5416e+00
  </log>
</opt>
<opt stage="main" walkers="512000">
  <log>

*****************************************
Building overlap and Hamiltonian matrices
*****************************************

Among totally 82 optimized parameters, largest LM parameter change : 1.4074e-02 at parameter 22

******************************************************************************
Init Cost =  -1.2636e+01    New Cost =  -1.2636e+01  Delta Cost =   8.4716e-06
******************************************************************************

The new set of parameters is valid. Updating the trial wave function!

*****************************************************************************
Applying the update for shift_i =   1.0000e-02     and shift_s =   3.9062e-03
*****************************************************************************
  Execution time = 7.2081e+00
  </log>
  <optVariables href="Br.log.s007.opt.xml">
   uu_0                 3.753798e-01 1 1  ON 0
   uu_1                 1.947324e-01 1 1  ON 1
   uu_2                 8.671745e-02 1 1  ON 2
   uu_3                 1.575452e-02 1 1  ON 3
   uu_4                -3.321014e-02 1 1  ON 4
   uu_5                -7.698418e-02 1 1  ON 5
   uu_6                -1.093705e-01 1 1  ON 6
   uu_7                -1.287665e-01 1 1  ON 7
   uu_8                -1.297579e-01 1 1  ON 8
   uu_9                -1.024508e-01 1 1  ON 9
   ud_0                 7.486180e-01 1 1  ON 10
   ud_1                 3.873191e-01 1 1  ON 11
   ud_2                 1.719965e-01 1 1  ON 12
   ud_3                 3.896533e-02 1 1  ON 13
   ud_4                -3.214940e-02 1 1  ON 14
   ud_5                -8.172938e-02 1 1  ON 15
   ud_6                -1.203346e-01 1 1  ON 16
   ud_7                -1.559817e-01 1 1  ON 17
   ud_8                -1.757720e-01 1 1  ON 18
   ud_9                -1.617412e-01 1 1  ON 19
  eBr_0                -1.025838e+00 1 1  ON 20
  eBr_1                -1.017134e+00 1 1  ON 21
  eBr_2                -7.154914e-01 1 1  ON 22
  eBr_3                -1.635911e-01 1 1  ON 23
  eBr_4                 3.456315e-01 1 1  ON 24
  eBr_5                 4.757243e-01 1 1  ON 25
  eBr_6                 6.617570e-01 1 1  ON 26
  eBr_7                 7.222029e-01 1 1  ON 27
  eBr_8                 5.938530e-01 1 1  ON 28
  eBr_9                 1.557080e-01 1 1  ON 29
 uuBr_0                -3.364405e-05 1 1  ON 30
 uuBr_1                 9.501564e-06 1 1  ON 31
 uuBr_2                 2.945253e-05 1 1  ON 32
 uuBr_3                 4.070847e-05 1 1  ON 33
 uuBr_4                 6.108093e-07 1 1  ON 34
 uuBr_5                 2.121639e-07 1 1  ON 35
 uuBr_6                 6.571323e-05 1 1  ON 36
 uuBr_7                 2.223894e-05 1 1  ON 37
 uuBr_8                -1.011814e-05 1 1  ON 38
 uuBr_9                -2.135521e-05 1 1  ON 39
uuBr_10                 2.035711e-05 1 1  ON 40
uuBr_11                -1.951097e-05 1 1  ON 41
uuBr_12                 5.343510e-06 1 1  ON 42
uuBr_13                -5.688008e-05 1 1  ON 43
uuBr_14                -7.265218e-06 1 1  ON 44
uuBr_15                 1.689296e-07 1 1  ON 45
uuBr_16                 6.036223e-05 1 1  ON 46
uuBr_17                -7.325861e-05 1 1  ON 47
uuBr_18                 2.418282e-05 1 1  ON 48
uuBr_19                -3.114392e-06 1 1  ON 49
uuBr_20                 1.131654e-05 1 1  ON 50
uuBr_21                -1.336958e-06 1 1  ON 51
uuBr_22                 2.340142e-07 1 1  ON 52
uuBr_23                -2.138527e-06 1 1  ON 53
uuBr_24                 2.784789e-07 1 1  ON 54
uuBr_25                -4.818425e-08 1 1  ON 55
 udBr_0                -5.226519e-05 1 1  ON 56
[...]

Among totally 82 optimized parameters, largest LM parameter change : 7.9623e-03 at parameter 29

******************************************************************************
Init Cost =  -1.2637e+01    New Cost =  -1.2637e+01  Delta Cost =  -4.7806e-05
******************************************************************************

The new set of parameters is valid. Updating the trial wave function!

*****************************************************************************
Applying the update for shift_i =   1.0000e-02     and shift_s =   7.8125e-03
*****************************************************************************
  Execution time = 7.0849e+00
  </log>
  <optVariables href="Br.log.s020.opt.xml">
   uu_0                 3.793920e-01 1 1  ON 0
   uu_1                 2.024230e-01 1 1  ON 1
   uu_2                 9.611574e-02 1 1  ON 2
   uu_3                 2.498220e-02 1 1  ON 3
   uu_4                -2.434723e-02 1 1  ON 4
   uu_5                -7.039955e-02 1 1  ON 5
   uu_6                -1.043117e-01 1 1  ON 6
   uu_7                -1.227411e-01 1 1  ON 7
   uu_8                -1.259656e-01 1 1  ON 8
   uu_9                -1.036744e-01 1 1  ON 9
   ud_0                 7.770299e-01 1 1  ON 10
   ud_1                 4.157545e-01 1 1  ON 11
   ud_2                 1.996886e-01 1 1  ON 12
   ud_3                 6.561437e-02 1 1  ON 13
   ud_4                -5.827912e-03 1 1  ON 14
   ud_5                -5.501032e-02 1 1  ON 15
   ud_6                -9.248074e-02 1 1  ON 16
   ud_7                -1.286961e-01 1 1  ON 17
   ud_8                -1.505802e-01 1 1  ON 18
   ud_9                -1.456524e-01 1 1  ON 19
  eBr_0                -1.047186e+00 1 1  ON 20
  eBr_1                -1.086673e+00 1 1  ON 21
  eBr_2                -7.950317e-01 1 1  ON 22
  eBr_3                -2.238453e-01 1 1  ON 23
  eBr_4                 3.202325e-01 1 1  ON 24
  eBr_5                 4.911770e-01 1 1  ON 25
  eBr_6                 6.815850e-01 1 1  ON 26
  eBr_7                 7.593904e-01 1 1  ON 27
  eBr_8                 6.838356e-01 1 1  ON 28
  eBr_9                 2.435242e-01 1 1  ON 29
 uuBr_0                -3.597706e-05 1 1  ON 30
 uuBr_1                 3.504913e-05 1 1  ON 31
 uuBr_2                 3.834855e-05 1 1  ON 32
 uuBr_3                 3.035588e-05 1 1  ON 33
 uuBr_4                -3.421754e-06 1 1  ON 34
 uuBr_5                -1.256354e-06 1 1  ON 35
 uuBr_6                 1.089874e-04 1 1  ON 36
 uuBr_7                 5.030922e-06 1 1  ON 37
 uuBr_8                -3.213851e-06 1 1  ON 38
 uuBr_9                -4.603305e-05 1 1  ON 39
uuBr_10                 9.951331e-06 1 1  ON 40
uuBr_11                -1.210623e-05 1 1  ON 41
uuBr_12                 2.254231e-06 1 1  ON 42
uuBr_13                -4.604973e-05 1 1  ON 43
uuBr_14                -6.469562e-06 1 1  ON 44
uuBr_15                 3.626445e-07 1 1  ON 45
uuBr_16                 8.446182e-05 1 1  ON 46
uuBr_17                -6.456099e-05 1 1  ON 47
uuBr_18                 1.554488e-05 1 1  ON 48
uuBr_19                -1.005457e-06 1 1  ON 49
uuBr_20                 4.860426e-06 1 1  ON 50
uuBr_21                 2.843051e-09 1 1  ON 51
uuBr_22                -8.047423e-08 1 1  ON 52
uuBr_23                -7.885242e-07 1 1  ON 53
uuBr_24                -6.990143e-08 1 1  ON 54
uuBr_25                 1.882390e-08 1 1  ON 55
 udBr_0                -5.662295e-05 1 1  ON 56
 udBr_1                 5.516909e-05 1 1  ON 57
 udBr_2                 7.072093e-05 1 1  ON 58
 udBr_3                 6.108888e-05 1 1  ON 59
 udBr_4                -4.403561e-07 1 1  ON 60
 udBr_5                -6.812801e-06 1 1  ON 61
 udBr_6                 2.049518e-04 1 1  ON 62
 udBr_7                -8.261403e-06 1 1  ON 63
 udBr_8                -8.234028e-06 1 1  ON 64
 udBr_9                -1.068671e-04 1 1  ON 65
udBr_10                 2.854331e-05 1 1  ON 66
udBr_11                -1.812819e-05 1 1  ON 67
udBr_12                 7.761068e-06 1 1  ON 68
udBr_13                -6.522310e-05 1 1  ON 69
udBr_14                -1.329079e-05 1 1  ON 70
udBr_15                 4.370654e-07 1 1  ON 71
udBr_16                 1.648812e-04 1 1  ON 72
udBr_17                -1.010528e-04 1 1  ON 73
udBr_18                 1.751133e-05 1 1  ON 74
udBr_19                -3.428175e-06 1 1  ON 75
udBr_20                -3.630288e-06 1 1  ON 76
udBr_21                 2.953632e-06 1 1  ON 77
udBr_22                -2.241883e-07 1 1  ON 78
udBr_23                 1.267457e-06 1 1  ON 79
udBr_24                -7.959529e-07 1 1  ON 80
udBr_25                 1.068679e-07 1 1  ON 81
  </optVariables>
   Restore the number of walkers to 1, removing 0 walkers.
</opt>
</optimization-report>
  QMC Execution time = 7.096 secs

=========================================================
  Start VMC
  File Root Br.log.s021 append = no 
=========================================================
  Using the current 1 walkers.
  Total number of walkers: 1024
  Total weight: 1024
  Resetting Properties of the walkers 1 x 13

<vmc function="put">
  qmc_counter=0  my_counter=0
  time step      = 0.15
  blocks         = 200
  steps          = 1
  substeps       = 30
  current        = 0
  target samples = 4096
  walkers/mpi    = 1

  stepsbetweensamples = 50
<parameter name="blocks" condition="int">200</parameter>
<parameter name="blocks_between_recompute" condition="int">0</parameter>
<parameter name="check_properties" condition="int">100</parameter>
<parameter name="checkproperties" condition="int">100</parameter>
<parameter name="current" condition="int">0</parameter>
<parameter name="dmcwalkersperthread" condition="real">4</parameter>
<parameter name="maxcpusecs" condition="real">3.6e+05</parameter>
<parameter name="record_configs" condition="int">0</parameter>
<parameter name="record_walkers" condition="int">50</parameter>
<parameter name="recordconfigs" condition="int">0</parameter>
<parameter name="recordwalkers" condition="int">50</parameter>
<parameter name="rewind" condition="int">0</parameter>
<parameter name="samples" condition="real">4096</parameter>
<parameter name="samplesperthread" condition="real">4</parameter>
<parameter name="steps" condition="int">1</parameter>
<parameter name="stepsbetweensamples" condition="int">50</parameter>
<parameter name="store_configs" condition="int">0</parameter>
<parameter name="storeconfigs" condition="int">0</parameter>
<parameter name="sub_steps" condition="int">30</parameter>
<parameter name="substeps" condition="int">30</parameter>
<parameter name="tau" condition="au">0.15</parameter>
<parameter name="time_step" condition="au">0.15</parameter>
<parameter name="timestep" condition="au">0.15</parameter>
<parameter name="use_drift" condition="string">no</parameter>
<parameter name="usedrift" condition="string">no</parameter>
<parameter name="walkers" condition="int">1</parameter>
<parameter name="warmup_steps" condition="int">100</parameter>
<parameter name="warmupsteps" condition="int">100</parameter>
  DumpConfig==true Configurations are dumped to config.h5 with a period of 200 blocks
  Walker Samples are dumped every 50 steps.
</vmc>
  Set drift_modifier UNR parameter a = 1
  EstimatorManagerBase::add replace LocalEnergy estimator.
  Cannot make clones again. Use existing 1 clones
  Initial partition of walkers 0 1 

  Using Particle by Particle moves
  Walker moves without drift
  Total Sample Size   =4096
  Walker distribution on root = 0 1 
  Using Locality Approximation
===== Memory Usage after the buffer registration =====
Available memory on node 0, free + buffers : 54292 MB
Memory footprint by rank 0 on node 0       : 652 MB
==================================================
  Anonymous Buffer size per walker : 2688 Bytes.
MEMORY increase 0 MB VMC::resetRun
  samples are written to the config.h5
====================================================
  SimpleFixedNodeBranch::finalize after a VMC block
    QMC counter        = 21
    time step          = 0.15
    reference energy   = -13.2951
    reference variance = 0.044279
====================================================
  QMC Execution time = 3.656 secs

=========================================================
  Start DMC
  File Root Br.log.s022 append = no 
=========================================================
Using existing walkers 
  Resetting Properties of the walkers 1 x 13
  Set drift_modifier UNR parameter a = 1
  EstimatorManagerBase::add replace LocalEnergy estimator.
  Cannot make clones again. Use existing 1 clones
  Total number of walkers: 4096
  Total weight: 4096
  Creating WalkerController: target  number of walkers = 4096
  Using WalkerControlMPI for dynamic population control.
  START ALL OVER 
  WalkerControlBase parameters 
    maxCopy = 2
    Max Walkers per MPI rank 9
    Min Walkers per MPI rank 1
    Using non-blocking send/recv
  QMC counter      = 22
  time step        = 0.02
  effective time step = 0.02
  trial energy     = -13.3
  reference energy = -13.3
  Feedback = 1
  reference variance = 0.04428
  target walkers = 4096
  branching cutoff scheme classic
  branch cutoff = 50 75
  Max and minimum walkers per node= 9 1
  QMC Status (BranchMode) = 0000001101
  Initial partition of walkers on a node: 0 4 
  Updates by particle-by-particle moves
  DMC moves are rejected when a node crossing is detected
  Using Non-local T-moves v1, M. Casula et al., JCP 132, 154113 (2010)
===== Memory Usage after the buffer registration =====
Available memory on node 0, free + buffers : 54215 MB
Memory footprint by rank 0 on node 0       : 665 MB
==================================================
SimpleFixedNodeBranch::checkParameters 
  Average Energy of a population  = -13.301
  Energy Variance = 0.0446815

  Fluctuating population
  Persistent walkers are killed after 1 MC sweeps
  BranchInterval = 1
  Steps per block = 50
  Number of blocks = 150

  DMC Engine Initialization = 0.04133 secs

 Warmup is completed after 200

  TauEff     = 0.01984
 TauEff/Tau = 0.9918
  Etrial     = -13.31
 Running average of energy = -13.31
                  Variance = 0.04489
branch cutoff = 10 15
====================================================
  SimpleFixedNodeBranch::finalize after a DMC block
    QMC counter                   = 22
    time step                     = 0.02
    effective time step           = 0.0198372
    trial energy                  = -13.3207
    reference energy              = -13.3134
    reference variance            = 0.044893
    target walkers                = 4096
    branch cutoff                 = 10 15
    Max and minimum walkers per node= 9 1
    Feedback                      = 1
    QMC Status (BranchMode)       = 0000001111
====================================================
  QMC Execution time = 263.4 secs
  Reusing DMC
BRANCH resetRun
 SimpleFixedNodeBranch::resetRun detected changes in <parameter>'s 
 BranchMode : 0000001111 0000001111
  WalkerControlBase parameters 
    maxCopy = 2
    Max Walkers per MPI rank 9
    Min Walkers per MPI rank 1
    Using non-blocking send/recv
 iParam (old):                  0                 1                22              4096                 9                 1                 1                 0
 iParam (new):                100                 1                22              4096                 9                 1                 1                 0
 vParam (old):               0.02     0.01983723169      -13.32067572      -13.31337819      -13.31049192                15                10               0.2     0.04489298697      -97200.97129              7301                 1                10                 1                 1                 1                 1
 vParam (new):               0.01     0.01983723169      -13.32067572      -13.31337819      -13.31049192                15                10               0.2     0.04489298697      -97200.97129              7301                 1                10                 1                 1                 1                 1

 Using branching cutoff scheme classic
SimpleFixedNodeBranch::checkParameters 
  Average Energy of a population  = -13.3116
  Energy Variance = 0.0568875

  Using Non-local T-moves v1, M. Casula et al., JCP 132, 154113 (2010)
===== Memory Usage after the buffer registration =====
Available memory on node 0, free + buffers : 54228 MB
Memory footprint by rank 0 on node 0       : 669 MB
==================================================

=========================================================
  Start DMC
  File Root Br.log.s023 append = no 
=========================================================
Using existing walkers 
  Resetting Properties of the walkers 1 x 13
  Set drift_modifier UNR parameter a = 1
  EstimatorManagerBase::add replace LocalEnergy estimator.
  Cannot make clones again. Use existing 1 clones
SimpleFixedNodeBranch::checkParameters 
  Average Energy of a population  = -13.3115
  Energy Variance = 0.0520392

  Fluctuating population
  Persistent walkers are killed after 1 MC sweeps
  BranchInterval = 1
  Steps per block = 100
  Number of blocks = 200

  DMC Engine Initialization = 0.004184961319 secs

 Warmup is completed after 100

  TauEff     = 0.009969480387
 TauEff/Tau = 0.9969480387
  Etrial     = -13.3137681
 Running average of energy = -13.31088503
                  Variance = 0.04541006558
branch cutoff = 10 15
====================================================
  SimpleFixedNodeBranch::finalize after a DMC block
    QMC counter                   = 23
    time step                     = 0.01
    effective time step           = 0.00996973
    trial energy                  = -13.3137
    reference energy              = -13.3135
    reference variance            = 0.0454101
    target walkers                = 4096
    branch cutoff                 = 10 15
    Max and minimum walkers per node= 9 1
    Feedback                      = 1
    QMC Status (BranchMode)       = 0000001111
====================================================
  QMC Execution time = 699.7 secs
  Reusing DMC
BRANCH resetRun
 SimpleFixedNodeBranch::resetRun detected changes in <parameter>'s 
 BranchMode : 0000001111 0000001111
  WalkerControlBase parameters 
    maxCopy = 2
    Max Walkers per MPI rank 9
    Min Walkers per MPI rank 1
    Using non-blocking send/recv
 iParam (old):                  0                 1                23              4096                 9                 1                 1                 0
 iParam (new):                200                 1                23              4096                 9                 1                 1                 0
 vParam (old):               0.01    0.009969733495       -13.3137299      -13.31348579      -13.32169592                15                10               0.2     0.04541006558      -264951.6888             19901                 1                10                 1                 1                 1                 1
 vParam (new):              0.005    0.009969733495       -13.3137299      -13.31348579      -13.32169592                15                10               0.2     0.04541006558      -264951.6888             19901                 1                10                 1                 1                 1                 1

 Using branching cutoff scheme classic
SimpleFixedNodeBranch::checkParameters 
  Average Energy of a population  = -13.3214
  Energy Variance = 0.0628945

  Using Non-local T-moves v1, M. Casula et al., JCP 132, 154113 (2010)
===== Memory Usage after the buffer registration =====
Available memory on node 0, free + buffers : 54192 MB
Memory footprint by rank 0 on node 0       : 672 MB
==================================================

=========================================================
  Start DMC
  File Root Br.log.s024 append = no 
=========================================================
Using existing walkers 
  Resetting Properties of the walkers 1 x 13
  Set drift_modifier UNR parameter a = 1
  EstimatorManagerBase::add replace LocalEnergy estimator.
  Cannot make clones again. Use existing 1 clones
SimpleFixedNodeBranch::checkParameters 
  Average Energy of a population  = -13.321
  Energy Variance = 0.0628768

  Fluctuating population
  Persistent walkers are killed after 1 MC sweeps
  BranchInterval = 1
  Steps per block = 200
  Number of blocks = 250

  DMC Engine Initialization = 0.001410007477 secs

 Warmup is completed after 200

  TauEff     = 0.004994398662
 TauEff/Tau = 0.9988797324
  Etrial     = -13.36532239
 Running average of energy = -13.31589522
                  Variance = 0.04601174857
branch cutoff = 10 15
====================================================
  SimpleFixedNodeBranch::finalize after a DMC block
    QMC counter                   = 24
    time step                     = 0.005
    effective time step           = 0.00499445
    trial energy                  = -13.3216
    reference energy              = -13.3134
    reference variance            = 0.0460117
    target walkers                = 4096
    branch cutoff                 = 10 15
    Max and minimum walkers per node= 9 1
    Feedback                      = 1
    QMC Status (BranchMode)       = 0000001111
====================================================
  QMC Execution time = 1758 secs
  Reusing DMC
BRANCH resetRun
 SimpleFixedNodeBranch::resetRun detected changes in <parameter>'s 
 BranchMode : 0000001111 0000001111
  WalkerControlBase parameters 
    maxCopy = 2
    Max Walkers per MPI rank 9
    Min Walkers per MPI rank 1
    Using non-blocking send/recv
 iParam (old):                  0                 1                24              4096                 9                 1                 1                 0
 iParam (new):                400                 1                24              4096                 9                 1                 1                 0
 vParam (old):              0.005     0.00499444921      -13.32163391      -13.31336739      -13.31337173                15                10               0.2     0.04601174857      -663019.0094             49801                 1                10                 1                 1                 1                 1
 vParam (new):             0.0025     0.00499444921      -13.32163391      -13.31336739      -13.31337173                15                10               0.2     0.04601174857      -663019.0094             49801                 1                10                 1                 1                 1                 1

 Using branching cutoff scheme classic
SimpleFixedNodeBranch::checkParameters 
  Average Energy of a population  = -13.3133
  Energy Variance = 0.0397991

  Using Non-local T-moves v1, M. Casula et al., JCP 132, 154113 (2010)
===== Memory Usage after the buffer registration =====
Available memory on node 0, free + buffers : 54155 MB
Memory footprint by rank 0 on node 0       : 675 MB
==================================================

=========================================================
  Start DMC
  File Root Br.log.s025 append = no 
=========================================================
Using existing walkers 
  Resetting Properties of the walkers 1 x 13
  Set drift_modifier UNR parameter a = 1
  EstimatorManagerBase::add replace LocalEnergy estimator.
  Cannot make clones again. Use existing 1 clones
SimpleFixedNodeBranch::checkParameters 
  Average Energy of a population  = -13.3133
  Energy Variance = 0.0413248

  Fluctuating population
  Persistent walkers are killed after 1 MC sweeps
  BranchInterval = 1
  Steps per block = 400
  Number of blocks = 300

  DMC Engine Initialization = 0.0003089904785 secs

 Warmup is completed after 400

  TauEff     = 0.002498973171
 TauEff/Tau = 0.9995892686
  Etrial     = -13.21463459
 Running average of energy = -13.31219623
                  Variance = 0.04503555394
branch cutoff = 10 15
