<?xml version="1.0"?>
<molpro xmlns="http://www.molpro.net/schema/molpro-output"
  xmlns:xsd="http://www.w3.org/1999/XMLSchema"
  xmlns:cml="http://www.xml-cml.org/schema"
  xmlns:stm="http://www.xml-cml.org/schema"
  xmlns:xhtml="http://www.w3.org/1999/xhtml">
 <!--

 Nodes     nprocs
 nid00462     3
 Number of processes for MPI-2 version of Molpro:   nprocs(total)=    4   nprocs(compute)=    3   nprocs(helper)=    1

 Using customized tuning parameters: mindgm=7; mindgv=16; mindgc=1; mindgr=1; noblas=0; minvec=7
 default implementation of scratch files=sf

 --><job>
  <!--

 Variables initialized (889), CPU time= 0.03 sec
 Commands  initialized (702), CPU time= 0.02 sec, 572 directives.
 Default parameters read. Elapsed time= 0.19 sec

 Checking input...
 Passed
1


                                         ***  PROGRAM SYSTEM MOLPRO  ***
                                       Copyright, TTI GmbH Stuttgart, 2015
                                    Version 2015.1 linked Dec 29 2018 15:55:43


 **********************************************************************************************************************************
 LABEL *   Br
  64 bit mpp version                                                                     DATE: 04-Jun-19          TIME: 10:05:45
 **********************************************************************************************************************************

 SHA1:             19cd028119e0e09f93f0674bd8af7968d9b3eff6
 **********************************************************************************************************************************
  -->
  <!--

 THRESHOLDS:

 ZERO    =  1.00D-12  ONEINT  =  1.00D-12  TWOINT  =  1.00D-12  PREFAC  =  1.00D-14  LOCALI  =  1.00D-09  EORDER  =  1.00D-04
 ENERGY  =  0.00D+00  ETEST   =  0.00D+00  EDENS   =  0.00D+00  THRDEDEF=  1.00D-06  GRADIENT=  1.00D-02  STEP    =  1.00D-03
 ORBITAL =  1.00D-05  CIVEC   =  1.00D-05  COEFF   =  1.00D-04  PRINTCI =  5.00D-02  PUNCHCI =  9.90D+01  OPTGRAD =  3.00D-04
 OPTENERG=  1.00D-06  OPTSTEP =  3.00D-04  THRGRAD =  1.00D-10  COMPRESS=  1.00D-11  VARMIN  =  1.00D-07  VARMAX  =  1.00D-03
 THRDOUB =  0.00D+00  THRDIV  =  1.00D-05  THRRED  =  1.00D-07  THRPSP  =  1.00D+00  THRDC   =  1.00D-10  THRCS   =  1.00D-10
 THRNRM  =  1.00D-08  THREQ   =  0.00D+00  THRDE   =  1.00D+00  THRREF  =  1.00D-05  SPARFAC =  1.00D+00  THRDLP  =  1.00D-07
 THRDIA  =  1.00D-10  THRDLS  =  1.00D-07  THRGPS  =  0.00D+00  THRKEX  =  0.00D+00  THRDIS  =  2.00D-01  THRVAR  =  1.00D-10
 THRLOC  =  1.00D-06  THRGAP  =  1.00D-06  THRLOCT = -1.00D+00  THRGAPT = -1.00D+00  THRORB  =  1.00D-06  THRMLTP =  0.00D+00
 THRCPQCI=  1.00D-10  KEXTA   =  0.00D+00  THRCOARS=  0.00D+00  SYMTOL  =  1.00D-06  GRADTOL =  1.00D-06  THROVL  =  1.00D-08
 THRORTH =  1.00D-08  GRID    =  1.00D-06  GRIDMAX =  1.00D-03  DTMAX   =  0.00D+00  THROCCDE=  1.00D-01  THROCCDE=  1.00D-01


 ZUNIT=ANG


Geometry recognized as XYZ

 SETTING SPAR(1)        =         0.10762500
 SETTING SPAR(2)        =         2.18271900
 SETTING PPAR(1)        =         0.07288700
 SETTING PPAR(2)        =         2.07950200
 SETTING DPAR(1)        =         0.15515000
 SETTING DPAR(2)        =         1.96969700
 SETTING FPAR(1)        =         0.21890300
 SETTING FPAR(2)        =         1.76573000
 SETTING GPAR(1)        =         0.36958800
 SETTING GPAR(2)        =         1.91987200
 SETTING HPAR(1)        =         0.62457200
 SETTING HPAR(2)        =         2.07850900
 SETTING IPAR(1)        =         1.01693600
 SETTING IPAR(2)        =         2.00000000

 Variable memory set to  512000000 words,  buffer space   230000 words

  --><jobstep command="MINIMIZE" commandset="MINIMIZE">
   <!--


 PROGRAM * MINIMIZE (General minimization)     Authors: H.-J. Werner, P.J. Knowles, K.A. Peterson

 Minimize EVAL with respect to:        SPAR(1)   SPAR(2)   PPAR(1)   PPAR(2)   DPAR(1)
                                       DPAR(2)   FPAR(1)   FPAR(2)   GPAR(1)   GPAR(2)
                                       HPAR(1)   HPAR(2)   IPAR(1)
 Method BFGS will be used
 Variables are optimized in the space of (x/x0)


 Minimization using procedure=OPT_BASIS

 Running procedure=OPT_BASIS
 SETTING N              =         5.00000000

 DO I                   =         1.00000000
 SETTING SEXP(1)        =         0.10762500
 SETTING PEXP(1)        =         0.07288700
 SETTING DEXP(1)        =         0.15515000
 SETTING FEXP(1)        =         0.21890300
 SETTING GEXP(1)        =         0.36958800
 SETTING HEXP(1)        =         0.62457200
 SETTING IEXP(1)        =         1.01693600

 DO I                   =         2.00000000
 SETTING SEXP(2)        =         0.23491513
 SETTING PEXP(2)        =         0.15156866
 SETTING DEXP(2)        =         0.30559849
 SETTING FEXP(2)        =         0.38652359
 SETTING GEXP(2)        =         0.70956165
 SETTING HEXP(2)        =         1.29817852
 SETTING IEXP(2)        =         2.03387200

 DO I                   =         3.00000000
 SETTING SEXP(3)        =         0.51275372
 SETTING PEXP(3)        =         0.31518734
 SETTING DEXP(3)        =         0.60193643
 SETTING FEXP(3)        =         0.68249631
 SETTING GEXP(3)        =         1.36226755
 SETTING HEXP(3)        =         2.69827574
 SETTING IEXP(3)        =         4.06774400

 DO I                   =         4.00000000
 SETTING SEXP(4)        =         1.11919729
 SETTING PEXP(4)        =         0.65543270
 SETTING DEXP(4)        =         1.18563238
 SETTING FEXP(4)        =         1.20510420
 SETTING GEXP(4)        =         2.61537932
 SETTING HEXP(4)        =         5.60839042
 SETTING IEXP(4)        =         8.13548800

 DO I                   =         5.00000000
 SETTING SEXP(5)        =         2.44289320
 SETTING PEXP(5)        =         1.36297360
 SETTING DEXP(5)        =         2.33533654
 SETTING FEXP(5)        =         2.12788864
 SETTING GEXP(5)        =         5.02119353
 SETTING HEXP(5)        =        11.65708996
 SETTING IEXP(5)        =        16.27097600
 SETTING BASIS          =    USERDEF
   --><jobstep command="HF-SCF" commandset="SCFPRO">
    <!--


 Current variables in basis input:

 Set= 1  SEXP(1)             =       0.10762500
 Set= 1  SEXP(2)             =       0.23491513
 Set= 1  SEXP(3)             =       0.51275372
 Set= 1  SEXP(4)             =       1.11919729
 Set= 1  SEXP(5)             =       2.44289320
 Set= 1  PEXP(1)             =       0.07288700
 Set= 1  PEXP(2)             =       0.15156866
 Set= 1  PEXP(3)             =       0.31518734
 Set= 1  PEXP(4)             =       0.65543270
 Set= 1  PEXP(5)             =       1.36297360
 Set= 1  DEXP(1)             =       0.15515000
 Set= 1  DEXP(2)             =       0.30559849
 Set= 1  DEXP(3)             =       0.60193643
 Set= 1  DEXP(4)             =       1.18563238
 Set= 1  DEXP(5)             =       2.33533654
 Set= 1  FEXP(1)             =       0.21890300
 Set= 1  FEXP(2)             =       0.38652359
 Set= 1  FEXP(3)             =       0.68249631
 Set= 1  FEXP(4)             =       1.20510420
 Set= 1  GEXP(1)             =       0.36958800
 Set= 1  GEXP(2)             =       0.70956165
 Set= 1  GEXP(3)             =       1.36226755
 Set= 1  HEXP(1)             =       0.62457200
 Set= 1  HEXP(2)             =       1.29817852
 Set= 1  IEXP(1)             =       1.01693600

 Recomputing integrals since basis changed


 Using spherical harmonics



 PROGRAM * SEWARD (Integral evaluation for generally contracted gaussian basis sets)     Author: Roland Lindh, 1990

 Geometry written to block  1 of record 700

 Orientation using atomic masses
 Molecule type: Atom
 Symmetry elements: X,Y,Z
 Rotational constants:       0.0000000      0.0000000      0.0000000 GHz  (calculated with average atomic masses)

 Point group  D2h


    --><cml:molecule>
     <cml:symmetry pointGroup="D2h"/>
     <cml:atomArray>
      <cml:atom id="a1" elementType="Br" x3="0.0" y3="0.0" z3="0.0"/>
     </cml:atomArray>
     <cml:bondArray>
     </cml:bondArray>
    </cml:molecule><!--

 ATOMIC COORDINATES

 NR  ATOM    CHARGE       X              Y              Z

   1  BR      7.00    0.000000000    0.000000000    0.000000000

 NUCLEAR CHARGE:                    7
 NUMBER OF PRIMITIVE AOS:         241
 NUMBER OF SYMMETRY AOS:          171
 NUMBER OF CONTRACTIONS:          139   (  29Ag  +  20B3u +  20B2u +  14B1g +  20B1u +  14B2g +  14B3g +   8Au  )
 NUMBER OF CORE ORBITALS:           0   (   0Ag  +   0B3u +   0B2u +   0B1g +   0B1u +   0B2g +   0B3g +   0Au  )
 NUMBER OF VALENCE ORBITALS:        4   (   1Ag  +   1B3u +   1B2u +   0B1g +   1B1u +   0B2g +   0B3g +   0Au  )


 NUCLEAR REPULSION ENERGY    0.00000000

 EXTRA SYMMETRY OF AOS IN SYMMETRY 1:   1 1 1 1 1 1 2 3 2 3   2 3 2 3 2 3 4 5 6 4   5 6 4 5 6 7 8 910
 EXTRA SYMMETRY OF AOS IN SYMMETRY 2:   1 1 1 1 1 1 2 3 2 3   2 3 2 3 4 5 6 4 5 6
 EXTRA SYMMETRY OF AOS IN SYMMETRY 3:   1 1 1 1 1 1 2 3 2 3   2 3 2 3 4 5 6 4 5 6
 EXTRA SYMMETRY OF AOS IN SYMMETRY 4:   1 1 1 1 1 2 3 2 3 2   3 4 5 6
 EXTRA SYMMETRY OF AOS IN SYMMETRY 5:   1 1 1 1 1 1 2 3 2 3   2 3 2 3 4 5 6 4 5 6
 EXTRA SYMMETRY OF AOS IN SYMMETRY 6:   1 1 1 1 1 2 3 2 3 2   3 4 5 6
 EXTRA SYMMETRY OF AOS IN SYMMETRY 7:   1 1 1 1 1 2 3 2 3 2   3 4 5 6
 EXTRA SYMMETRY OF AOS IN SYMMETRY 8:   1 1 1 1 2 3 2 3

 Eigenvalues of metric

         1 0.486E-03 0.417E-02 0.115E-01 0.115E-01 0.355E-01 0.819E-01 0.819E-01 0.932E-01
         2 0.548E-03 0.833E-02 0.157E-01 0.157E-01 0.622E-01 0.162E+00 0.162E+00 0.347E+00
         3 0.548E-03 0.833E-02 0.157E-01 0.157E-01 0.622E-01 0.162E+00 0.162E+00 0.347E+00
         4 0.115E-01 0.819E-01 0.932E-01 0.932E-01 0.395E+00 0.666E+00 0.666E+00 0.100E+01
         5 0.548E-03 0.833E-02 0.157E-01 0.157E-01 0.622E-01 0.162E+00 0.162E+00 0.347E+00
         6 0.115E-01 0.819E-01 0.932E-01 0.932E-01 0.395E+00 0.666E+00 0.666E+00 0.100E+01
         7 0.115E-01 0.819E-01 0.932E-01 0.932E-01 0.395E+00 0.666E+00 0.666E+00 0.100E+01
         8 0.157E-01 0.162E+00 0.347E+00 0.347E+00 0.919E+00 0.165E+01 0.165E+01 0.290E+01


 Contracted 2-electron integrals neglected if value below      1.0D-12
 AO integral compression algorithm  1   Integral accuracy      1.0D-12

     44.564 MB (compressed) written to integral file ( 59.5%)

     Node minimum: 10.486 MB, node maximum: 17.826 MB


 NUMBER OF SORTED TWO-ELECTRON INTEGRALS:    2032684.     BUFFER LENGTH:  32768
 NUMBER OF SEGMENTS:   1  SEGMENT LENGTH:    2032684      RECORD LENGTH: 524288

 Memory used in sort:       2.59 MW

 SORT1 READ     9405658. AND WROTE     1351503. INTEGRALS IN      4 RECORDS. CPU TIME:     0.83 SEC, REAL TIME:     1.00 SEC
 SORT2 READ     4069250. AND WROTE     6117204. INTEGRALS IN    186 RECORDS. CPU TIME:     0.43 SEC, REAL TIME:     0.56 SEC

 Node minimum:     2032684.  Node maximum:     2051364. integrals

 OPERATOR DM      FOR CENTER  0  COORDINATES:    0.000000    0.000000    0.000000


 **********************************************************************************************************************************
 DATASETS  * FILE   NREC   LENGTH (MB)   RECORD NAMES
              1      19       20.04       500      610      700      900      950      970     1000      129      960     1100
                                          VAR    BASINP    GEOM    SYMINP    ZMAT    AOBASIS   BASIS     P2S    ABASIS      S
                                         1400     1410     1420     1200     1210     1080     1600     1650     1700
                                           T        V       ECP      H0       H01     AOSYM     SMH    MOLCAS    OPER

 PROGRAMS   *        TOTAL       INT
 CPU TIMES  *         4.07      3.67
 REAL TIME  *         5.62 SEC
 DISK USED  *        86.40 MB
 GA USED    *         0.00 MB       (max)       0.00 MB       (current)
 **********************************************************************************************************************************


 PROGRAM * RHF-SCF (OPEN SHELL)       Authors: W. Meyer, H.-J. Werner


 NUMBER OF ELECTRONS:       4+    3-    SPACE SYMMETRY=5    SPIN SYMMETRY: Doublet
 CONVERGENCE THRESHOLDS:    1.00E-05 (Density)    1.00E-07 (Energy)
 MAX. NUMBER OF ITERATIONS:       60
 INTERPOLATION TYPE:            DIIS
 INTERPOLATION STEPS:              2 (START)      1 (STEP)
 LEVEL SHIFTS:                 -0.60 (CLOSED) -0.30 (OPEN)

 Number of closed-shell orbitals:    3 (   1   1   1   0   0   0   0   0 )
 Number of open-shell orbitals:      1 (   0   0   0   0   1   0   0   0 )


 Orbital guess generated from atomic densities. Full valence occupancy:    1   1   1   0   1   0   0   0


 Molecular orbital dump at record        2100.2

 ITERATION    DDIFF          GRAD             ENERGY        2-EL.EN.            DIPOLE MOMENTS         DIIS   ORB.
    1      0.000D+00      0.000D+00       -13.11812289     17.402997    0.00000    0.00000    0.00000    0    start
    2      0.000D+00      0.464D-02       -13.12106665     17.517023    0.00000    0.00000    0.00000    1    diag,B
    3      0.292D-02      0.132D-02       -13.12149539     17.559518    0.00000    0.00000    0.00000    2    diag,B
    4      0.809D-03      0.383D-03       -13.12154162     17.569844    0.00000    0.00000    0.00000    3    diag,B
    5      0.492D-03      0.910D-04       -13.12154430     17.571487    0.00000    0.00000    0.00000    4    diag,B
    6      0.188D-03      0.190D-04       -13.12154440     17.571887    0.00000    0.00000    0.00000    5    diag,B
    7      0.639D-04      0.303D-05       -13.12154441     17.571928    0.00000    0.00000    0.00000    6    fixocc
    8      0.891D-05      0.808D-06       -13.12154441     17.571938    0.00000    0.00000    0.00000    0    orth

 Final alpha occupancy:   1   1   1   0   1   0   0   0
 Final beta  occupancy:   1   1   1   0   0   0   0   0

 !RHF STATE 1.5 Energy                -13.121544405454
    --><property name="Energy" method="RHF" principal="true" stateSymmetry="5" stateNumber="1"
      value="-13.1215444054541"/><!--
 Nuclear energy                         0.00000000
 One-electron energy                  -21.90751346
 Two-electron energy                    8.78596906
 Virial quotient                       -2.85076082
 !RHF STATE 1.5 Dipole moment           0.00000000     0.00000000     0.00000000
 Dipole moment /Debye                   0.00000000     0.00000000     0.00000000
    --><property name="Dipole moment" method="RHF" principal="true" stateSymmetry="5"
      stateNumber="1" value="0.0 0.0 0.0"/><!--

 Orbital energies:

         1.1          2.1          3.1
     -1.019439     0.238094     0.308975

         1.2          2.2          3.2
     -0.444796     0.194278     0.719836

         1.3          2.3          3.3
     -0.444796     0.194278     0.719836

         1.4          2.4
      0.336425     0.935369

         1.5          2.5          3.5
     -0.517518     0.180766     0.715958

         1.6          2.6
      0.316467     0.905732

         1.7          2.7
      0.316467     0.905732

         1.8          2.8
      0.729056     1.690859

 HOMO      1.2    -0.444796 =     -12.1035eV
 LUMO      2.5     0.180766 =       4.9189eV
 LUMO-HOMO         0.625563 =      17.0224eV


 **********************************************************************************************************************************
 DATASETS  * FILE   NREC   LENGTH (MB)   RECORD NAMES
              1      19       20.04       500      610      700      900      950      970     1000      129      960     1100
                                          VAR    BASINP    GEOM    SYMINP    ZMAT    AOBASIS   BASIS     P2S    ABASIS      S
                                         1400     1410     1420     1200     1210     1080     1600     1650     1700
                                           T        V       ECP      H0       H01     AOSYM     SMH    MOLCAS    OPER

              2       5        3.11       200      700     1000      520     2100
                                        OPTIONS   GEOM     BASIS   MCVARS     RHF

 PROGRAMS   *        TOTAL        HF       INT
 CPU TIMES  *         4.63      0.37      3.67
 REAL TIME  *         6.33 SEC
 DISK USED  *       157.08 MB
 SF USED    *         0.01 MB
 GA USED    *         0.00 MB       (max)       0.00 MB       (current)
 **********************************************************************************************************************************
    -->
    <time start="10:05:45" end="10:05:51" cpu="4.63" system="1.41" real="6.33"/>
    <storage units="megabyte" memory="4097.84" sf="0.01" df="70.68" eaf="86.4" ga="0.0"/>
   </jobstep><!--
 SETTING _CC_NORM_MAX   =         2.00000000
   --><jobstep command="RCISD" commandset="CCSD">
    <!--


 Current variables in basis input:

 Set= 1  SEXP(1)             =       0.10762500
 Set= 1  SEXP(2)             =       0.23491513
 Set= 1  SEXP(3)             =       0.51275372
 Set= 1  SEXP(4)             =       1.11919729
 Set= 1  SEXP(5)             =       2.44289320
 Set= 1  PEXP(1)             =       0.07288700
 Set= 1  PEXP(2)             =       0.15156866
 Set= 1  PEXP(3)             =       0.31518734
 Set= 1  PEXP(4)             =       0.65543270
 Set= 1  PEXP(5)             =       1.36297360
 Set= 1  DEXP(1)             =       0.15515000
 Set= 1  DEXP(2)             =       0.30559849
 Set= 1  DEXP(3)             =       0.60193643
 Set= 1  DEXP(4)             =       1.18563238
 Set= 1  DEXP(5)             =       2.33533654
 Set= 1  FEXP(1)             =       0.21890300
 Set= 1  FEXP(2)             =       0.38652359
 Set= 1  FEXP(3)             =       0.68249631
 Set= 1  FEXP(4)             =       1.20510420
 Set= 1  GEXP(1)             =       0.36958800
 Set= 1  GEXP(2)             =       0.70956165
 Set= 1  GEXP(3)             =       1.36226755
 Set= 1  HEXP(1)             =       0.62457200
 Set= 1  HEXP(2)             =       1.29817852
 Set= 1  IEXP(1)             =       1.01693600

 PROGRAM * CISD (Restricted open-shell CI(SD))     Authors: C. Hampel, H.-J. Werner, 1991, M. Deegan, P.J. Knowles, 1992


 Convergence thresholds:  THRVAR = 1.00D-08  THRDEN = 1.00D-06

 Number of closed-shell orbitals:   3 (   1   1   1   0   0   0   0   0 )
 Number of active  orbitals:        1 (   0   0   0   0   1   0   0   0 )
 Number of external orbitals:     135 (  28  19  19  14  19  14  14   8 )

 Number of N-1 electron functions:               7
 Number of N-2 electron functions:              21
 Number of singly external CSFs:               152
 Number of doubly external CSFs:             38940
 Total number of CSFs:                       39092

 Molecular orbitals read from record     2100.2  Type=RHF/CANONICAL (state 1.5)

 Integral transformation finished. Total CPU:   0.03 sec, npass=  1  Memory used:   0.11 MW

 Starting RMP2 calculation

 Wavefunction is spin-projected

 ITER.      SQ.NORM     CORR.ENERGY   TOTAL ENERGY   ENERGY CHANGE        DEN1      VAR(S)    VAR(P)  DIIS     TIME
   1      1.05965438    -0.17313959   -13.29468400    -0.17313959    -0.00066524  0.82D-05  0.28D-03  1  1     0.36
   2      1.06034973    -0.17385816   -13.29540256    -0.00071857    -0.00000071  0.50D-08  0.33D-06  2  2     0.37
   3      1.06036468    -0.17386678   -13.29541118    -0.00000862    -0.00000000  0.80D-11  0.45D-09  3  3     0.39
   4      1.06036482    -0.17386681   -13.29541121    -0.00000003    -0.00000000  0.47D-13  0.15D-11  4  4     0.41

 Norm of t1 vector:      0.03814159      S-energy:    -0.00289516      T1 diagnostic:  0.00006769
 Norm of t2 vector:      0.24271391      P-energy:    -0.17097164
                                         Alpha-Beta:  -0.13732317
                                         Alpha-Alpha: -0.02271765
                                         Beta-Beta:   -0.01093082

 Spin contamination <S**2-Sz**2-Sz>     0.00000000
  Reference energy                    -13.121544405454
    --><property name="energy" method="Reference" stateSymmetry="1" stateNumber="1"
      value="-13.1215444054541"/><!--
  RHF-RMP2 correlation energy          -0.173866805192
    --><property name="energy" method="RHF-RMP2 correlation" stateSymmetry="1" stateNumber="1"
      value="-0.173866805191748"/><!--
 !RHF-RMP2 energy                     -13.295411210646
    --><property name="energy" method="RHF-RMP2" principal="true" stateSymmetry="5"
      stateNumber="1" value="-13.2954112106458"/><!--
 (NB above energy spin projected)

 Starting RCISD calculation

 ITER.      SQ.NORM     CORR.ENERGY   TOTAL ENERGY   ENERGY CHANGE        DEN1      VAR(S)    VAR(P)  DIIS     TIME
   1      1.06258021    -0.17574048   -13.29728489    -0.17574048    -0.00331978  0.28D-03  0.92D-03  1  1     0.54
   2      1.06626035    -0.17958786   -13.30113227    -0.00384738    -0.00012033  0.11D-04  0.39D-04  2  2     0.61
   3      1.06696206    -0.17992404   -13.30146845    -0.00033618    -0.00000722  0.10D-05  0.25D-05  3  3     0.67
   4      1.06710889    -0.17994571   -13.30149011    -0.00002166    -0.00000035  0.91D-07  0.13D-06  4  4     0.76
   5      1.06713556    -0.17994753   -13.30149194    -0.00000182    -0.00000002  0.96D-08  0.91D-08  5  5     0.82
   6      1.06713874    -0.17994764   -13.30149205    -0.00000011    -0.00000000  0.11D-08  0.98D-09  6  6     0.90

 Norm of t1 vector:      0.04517115      S-energy:    -0.00315986      T1 diagnostic:  0.00431106
 Norm of t2 vector:      0.25514371      P-energy:    -0.17678780
                                         Alpha-Beta:  -0.14511461
                                         Alpha-Alpha: -0.02137869
                                         Beta-Beta:   -0.01029450

 Spin contamination <S**2-Sz**2-Sz>     0.00000000


 ?Inconsistent energies:

 ecorr    -0.1799476668  -0.1799476428   -0.24D-07
 estrong  -0.1767878036  -0.1767878036    0.00D+00
 eclose    0.0000000000   0.0000000000    0.00D+00
 eweak     0.0000000000   0.0000000000    0.00D+00
 edist     0.0000000000   0.0000000000    0.00D+00

 RESULTS
 =======

  Reference energy                    -13.121544405454
    --><property name="energy" method="Reference" stateSymmetry="1" stateNumber="1"
      value="-13.1215444054541"/><!--
  RCISD singles energy                 -0.003159839252
    --><property name="energy" method="RCISD singles" stateSymmetry="1" stateNumber="1"
      value="-0.315983925168675E-02"/><!--
  RCISD pair energy                    -0.176787803573
    --><property name="energy" method="RCISD pair" stateSymmetry="1" stateNumber="1"
      value="-0.176787803573417"/><!--
  RCISD correlation energy             -0.179947642825
    --><property name="energy" method="RCISD correlation" stateSymmetry="1" stateNumber="1"
      value="-0.179947642825104"/><!--

 !RHF-RCISD energy                    -13.301492048279
    --><property name="energy" method="RHF-RCISD" principal="true" stateSymmetry="1"
      stateNumber="1" value="-13.3014920482792"/><!--

 Program statistics:

 Available memory in ccsd:               511999705
 Min. memory needed in ccsd:                178585
 Max. memory used in ccsd:                  217447
 Max. memory used in cckext:                204275 ( 6 integral passes)
 Max. memory used in cckint:                106043 ( 1 integral passes)



 **********************************************************************************************************************************
 DATASETS  * FILE   NREC   LENGTH (MB)   RECORD NAMES
              1      19       20.04       500      610      700      900      950      970     1000      129      960     1100
                                          VAR    BASINP    GEOM    SYMINP    ZMAT    AOBASIS   BASIS     P2S    ABASIS      S
                                         1400     1410     1420     1200     1210     1080     1600     1650     1700
                                           T        V       ECP      H0       H01     AOSYM     SMH    MOLCAS    OPER

              2       5        3.11       200      700     1000      520     2100
                                        OPTIONS   GEOM     BASIS   MCVARS     RHF

 PROGRAMS   *        TOTAL     RCISD        HF       INT
 CPU TIMES  *         6.54      1.88      0.37      3.67
 REAL TIME  *         9.16 SEC
 DISK USED  *       170.33 MB
 SF USED    *         3.18 MB
 GA USED    *         0.00 MB       (max)       0.00 MB       (current)
 **********************************************************************************************************************************
    -->
    <time start="10:05:51" end="10:05:54" cpu="1.91" system="0.09" real="2.83"/>
    <storage units="megabyte" memory="4097.84" sf="3.18" df="83.93" eaf="86.4" ga="0.0"/>
   </jobstep><!--
 SETTING EVAL           =       -13.30149205  AU

 BFGS update of inverse hessian


 Calculating numerical derivatives: forward displacement for variable 1 of 13


 Running procedure=OPT_BASIS
 SETTING N              =         5.00000000

 DO I                   =         1.00000000
 SETTING SEXP(1)        =         0.10767881
 SETTING PEXP(1)        =         0.07288700
 SETTING DEXP(1)        =         0.15515000
 SETTING FEXP(1)        =         0.21890300
 SETTING GEXP(1)        =         0.36958800
 SETTING HEXP(1)        =         0.62457200
 SETTING IEXP(1)        =         1.01693600

 DO I                   =         2.00000000
 SETTING SEXP(2)        =         0.23503259
 SETTING PEXP(2)        =         0.15156866
 SETTING DEXP(2)        =         0.30559849
 SETTING FEXP(2)        =         0.38652359
 SETTING GEXP(2)        =         0.70956165
 SETTING HEXP(2)        =         1.29817852
 SETTING IEXP(2)        =         2.03387200

 DO I                   =         3.00000000
 SETTING SEXP(3)        =         0.51301010
 SETTING PEXP(3)        =         0.31518734
 SETTING DEXP(3)        =         0.60193643
 SETTING FEXP(3)        =         0.68249631
 SETTING GEXP(3)        =         1.36226755
 SETTING HEXP(3)        =         2.69827574
 SETTING IEXP(3)        =         4.06774400

 DO I                   =         4.00000000
 SETTING SEXP(4)        =         1.11975689
 SETTING PEXP(4)        =         0.65543270
 SETTING DEXP(4)        =         1.18563238
 SETTING FEXP(4)        =         1.20510420
 SETTING GEXP(4)        =         2.61537932
 SETTING HEXP(4)        =         5.60839042
 SETTING IEXP(4)        =         8.13548800

 DO I                   =         5.00000000
 SETTING SEXP(5)        =         2.44411464
 SETTING PEXP(5)        =         1.36297360
 SETTING DEXP(5)        =         2.33533654
 SETTING FEXP(5)        =         2.12788864
 SETTING GEXP(5)        =         5.02119353
 SETTING HEXP(5)        =        11.65708996
 SETTING IEXP(5)        =        16.27097600
 SETTING BASIS          =    USERDEF
   --><jobstep command="HF-SCF" commandset="SCFPRO">
    <!--


 Current variables in basis input:

 Set= 1  SEXP(1)             =       0.10767881
 Set= 1  SEXP(2)             =       0.23503259
 Set= 1  SEXP(3)             =       0.51301010
 Set= 1  SEXP(4)             =       1.11975689
 Set= 1  SEXP(5)             =       2.44411464
 Set= 1  PEXP(1)             =       0.07288700
 Set= 1  PEXP(2)             =       0.15156866
 Set= 1  PEXP(3)             =       0.31518734
 Set= 1  PEXP(4)             =       0.65543270
 Set= 1  PEXP(5)             =       1.36297360
 Set= 1  DEXP(1)             =       0.15515000
 Set= 1  DEXP(2)             =       0.30559849
 Set= 1  DEXP(3)             =       0.60193643
 Set= 1  DEXP(4)             =       1.18563238
 Set= 1  DEXP(5)             =       2.33533654
 Set= 1  FEXP(1)             =       0.21890300
 Set= 1  FEXP(2)             =       0.38652359
 Set= 1  FEXP(3)             =       0.68249631
 Set= 1  FEXP(4)             =       1.20510420
 Set= 1  GEXP(1)             =       0.36958800
 Set= 1  GEXP(2)             =       0.70956165
 Set= 1  GEXP(3)             =       1.36226755
 Set= 1  HEXP(1)             =       0.62457200
 Set= 1  HEXP(2)             =       1.29817852
 Set= 1  IEXP(1)             =       1.01693600

 Recomputing integrals since basis changed


 Using spherical harmonics



 PROGRAM * SEWARD (Integral evaluation for generally contracted gaussian basis sets)     Author: Roland Lindh, 1990

 Geometry written to block  1 of record 700

 Orientation using atomic masses
 Molecule type: Atom
 Symmetry elements: X,Y,Z
 Rotational constants:       0.0000000      0.0000000      0.0000000 GHz  (calculated with average atomic masses)

 Point group  D2h



 ATOMIC COORDINATES

 NR  ATOM    CHARGE       X              Y              Z

   1  BR      7.00    0.000000000    0.000000000    0.000000000

 NUCLEAR CHARGE:                    7
 NUMBER OF PRIMITIVE AOS:         241
 NUMBER OF SYMMETRY AOS:          171
 NUMBER OF CONTRACTIONS:          139   (  29Ag  +  20B3u +  20B2u +  14B1g +  20B1u +  14B2g +  14B3g +   8Au  )
 NUMBER OF CORE ORBITALS:           0   (   0Ag  +   0B3u +   0B2u +   0B1g +   0B1u +   0B2g +   0B3g +   0Au  )
 NUMBER OF VALENCE ORBITALS:        4   (   1Ag  +   1B3u +   1B2u +   0B1g +   1B1u +   0B2g +   0B3g +   0Au  )


 NUCLEAR REPULSION ENERGY    0.00000000

 EXTRA SYMMETRY OF AOS IN SYMMETRY 1:   1 1 1 1 1 1 2 3 2 3   2 3 2 3 2 3 4 5 6 4   5 6 4 5 6 7 8 910
 EXTRA SYMMETRY OF AOS IN SYMMETRY 2:   1 1 1 1 1 1 2 3 2 3   2 3 2 3 4 5 6 4 5 6
 EXTRA SYMMETRY OF AOS IN SYMMETRY 3:   1 1 1 1 1 1 2 3 2 3   2 3 2 3 4 5 6 4 5 6
 EXTRA SYMMETRY OF AOS IN SYMMETRY 4:   1 1 1 1 1 2 3 2 3 2   3 4 5 6
 EXTRA SYMMETRY OF AOS IN SYMMETRY 5:   1 1 1 1 1 1 2 3 2 3   2 3 2 3 4 5 6 4 5 6
 EXTRA SYMMETRY OF AOS IN SYMMETRY 6:   1 1 1 1 1 2 3 2 3 2   3 4 5 6
 EXTRA SYMMETRY OF AOS IN SYMMETRY 7:   1 1 1 1 1 2 3 2 3 2   3 4 5 6
 EXTRA SYMMETRY OF AOS IN SYMMETRY 8:   1 1 1 1 2 3 2 3

 Eigenvalues of metric

         1 0.485E-03 0.417E-02 0.115E-01 0.115E-01 0.355E-01 0.819E-01 0.819E-01 0.932E-01
         2 0.548E-03 0.833E-02 0.157E-01 0.157E-01 0.622E-01 0.162E+00 0.162E+00 0.347E+00
         3 0.548E-03 0.833E-02 0.157E-01 0.157E-01 0.622E-01 0.162E+00 0.162E+00 0.347E+00
         4 0.115E-01 0.819E-01 0.932E-01 0.932E-01 0.395E+00 0.666E+00 0.666E+00 0.100E+01
         5 0.548E-03 0.833E-02 0.157E-01 0.157E-01 0.622E-01 0.162E+00 0.162E+00 0.347E+00
         6 0.115E-01 0.819E-01 0.932E-01 0.932E-01 0.395E+00 0.666E+00 0.666E+00 0.100E+01
         7 0.115E-01 0.819E-01 0.932E-01 0.932E-01 0.395E+00 0.666E+00 0.666E+00 0.100E+01
         8 0.157E-01 0.162E+00 0.347E+00 0.347E+00 0.919E+00 0.165E+01 0.165E+01 0.290E+01


 Contracted 2-electron integrals neglected if value below      1.0D-12
 AO integral compression algorithm  1   Integral accuracy      1.0D-12

     44.564 MB (compressed) written to integral file ( 59.5%)

     Node minimum: 11.796 MB, node maximum: 16.777 MB


 NUMBER OF SORTED TWO-ELECTRON INTEGRALS:    2032684.     BUFFER LENGTH:  32768
 NUMBER OF SEGMENTS:   1  SEGMENT LENGTH:    2032684      RECORD LENGTH: 524288

 Memory used in sort:       2.59 MW

 SORT1 READ     9405658. AND WROTE     1351503. INTEGRALS IN      4 RECORDS. CPU TIME:     0.83 SEC, REAL TIME:     0.97 SEC
 SORT2 READ     4069250. AND WROTE     6117204. INTEGRALS IN    183 RECORDS. CPU TIME:     0.58 SEC, REAL TIME:     0.74 SEC

 Node minimum:     2032684.  Node maximum:     2051364. integrals

 OPERATOR DM      FOR CENTER  0  COORDINATES:    0.000000    0.000000    0.000000


 **********************************************************************************************************************************
 DATASETS  * FILE   NREC   LENGTH (MB)   RECORD NAMES
              1      19       20.04       500      610      700      900      950      970     1001      129      960     1100
                                          VAR    BASINP    GEOM    SYMINP    ZMAT    AOBASIS   BASIS     P2S    ABASIS      S
                                         1400     1410     1420     1200     1210     1080     1600     1650     1700
                                           T        V       ECP      H0       H01     AOSYM     SMH    MOLCAS    OPER

              2       6        3.18       200      700     1000      520     2100     1001
                                        OPTIONS   GEOM     BASIS   MCVARS     RHF     BASIS

 PROGRAMS   *        TOTAL       INT     RCISD        HF       INT
 CPU TIMES  *        10.43      3.82      1.88      0.37      3.67
 REAL TIME  *        13.69 SEC
 DISK USED  *       170.33 MB
 SF USED    *         3.18 MB
 GA USED    *         0.00 MB       (max)       0.00 MB       (current)
 **********************************************************************************************************************************


 PROGRAM * RHF-SCF (OPEN SHELL)       Authors: W. Meyer, H.-J. Werner


 NUMBER OF ELECTRONS:       4+    3-    SPACE SYMMETRY=5    SPIN SYMMETRY: Doublet
 CONVERGENCE THRESHOLDS:    1.00E-05 (Density)    1.00E-07 (Energy)
 MAX. NUMBER OF ITERATIONS:       60
 INTERPOLATION TYPE:            DIIS
 INTERPOLATION STEPS:              2 (START)      1 (STEP)
 LEVEL SHIFTS:                 -0.60 (CLOSED) -0.30 (OPEN)

 Number of closed-shell orbitals:    3 (   1   1   1   0   0   0   0   0 )
 Number of open-shell orbitals:      1 (   0   0   0   0   1   0   0   0 )


 Molecular orbitals read from record     2100.2  Type=RHF/CANONICAL (state 1.5)
 Present occupation:       1   1   1   0   1   0   0   0
 Present closed-shells:    1   1   1   0   0   0   0   0
 Wavefunction symmetry:    5   Doublet

 Orbital overlap <old|new>:  < 1.1| 1.1> = 1.000000   < 1.2| 1.2> = 1.000000   < 1.3| 1.3> = 1.000000   < 1.5| 1.5> = 1.000000

 Molecular orbital dump at record        2101.2

 ITERATION    DDIFF          GRAD             ENERGY        2-EL.EN.            DIPOLE MOMENTS         DIIS   ORB.
    1      0.000D+00      0.000D+00       -13.12154441     17.571938    0.00000    0.00000    0.00000    0    start
    2      0.000D+00      0.480D-06       -13.12154441     17.571945    0.00000    0.00000    0.00000    0    orth

 Final alpha occupancy:   1   1   1   0   1   0   0   0
 Final beta  occupancy:   1   1   1   0   0   0   0   0

 !RHF STATE 1.5 Energy                -13.121544405500
    --><property name="Energy" method="RHF" principal="true" stateSymmetry="5" stateNumber="1"
      value="-13.1215444054997"/><!--
 Nuclear energy                         0.00000000
 One-electron energy                  -21.90751667
 Two-electron energy                    8.78597226
 Virial quotient                       -2.85075956
 !RHF STATE 1.5 Dipole moment           0.00000000     0.00000000     0.00000000
 Dipole moment /Debye                   0.00000000     0.00000000     0.00000000
    --><property name="Dipole moment" method="RHF" principal="true" stateSymmetry="5"
      stateNumber="1" value="0.0 0.0 0.0"/><!--

 Orbital energies:

         1.1          2.1          3.1
     -1.019438     0.238265     0.308980

         1.2          2.2          3.2
     -0.444796     0.194278     0.719836

         1.3          2.3          3.3
     -0.444796     0.194278     0.719836

         1.4          2.4
      0.336425     0.935370

         1.5          2.5          3.5
     -0.517516     0.180767     0.715958

         1.6          2.6
      0.316468     0.905732

         1.7          2.7
      0.316468     0.905732

         1.8          2.8
      0.729056     1.690859

 HOMO      1.2    -0.444796 =     -12.1035eV
 LUMO      2.5     0.180767 =       4.9189eV
 LUMO-HOMO         0.625563 =      17.0224eV


 **********************************************************************************************************************************
 DATASETS  * FILE   NREC   LENGTH (MB)   RECORD NAMES
              1      19       20.04       500      610      700      900      950      970     1001      129      960     1100
                                          VAR    BASINP    GEOM    SYMINP    ZMAT    AOBASIS   BASIS     P2S    ABASIS      S
                                         1400     1410     1420     1200     1210     1080     1600     1650     1700
                                           T        V       ECP      H0       H01     AOSYM     SMH    MOLCAS    OPER

              2       7        5.75       200      700     1000      520     2100     1001     2101
                                        OPTIONS   GEOM     BASIS   MCVARS     RHF     BASIS     RHF

 PROGRAMS   *        TOTAL        HF       INT     RCISD        HF       INT
 CPU TIMES  *        10.75      0.14      3.82      1.88      0.37      3.67
 REAL TIME  *        14.04 SEC
 DISK USED  *       170.33 MB
 SF USED    *         3.18 MB
 GA USED    *         0.00 MB       (max)       0.00 MB       (current)
 **********************************************************************************************************************************
    -->
    <time start="10:05:54" end="10:05:59" cpu="4.21" system="0.38" real="4.88"/>
    <storage units="megabyte" memory="4097.84" sf="3.18" df="83.93" eaf="86.4" ga="0.0"/>
   </jobstep><!--
 SETTING _CC_NORM_MAX   =         2.00000000
   --><jobstep command="RCISD" commandset="CCSD">
    <!--


 Current variables in basis input:

 Set= 1  SEXP(1)             =       0.10767881
 Set= 1  SEXP(2)             =       0.23503259
 Set= 1  SEXP(3)             =       0.51301010
 Set= 1  SEXP(4)             =       1.11975689
 Set= 1  SEXP(5)             =       2.44411464
 Set= 1  PEXP(1)             =       0.07288700
 Set= 1  PEXP(2)             =       0.15156866
 Set= 1  PEXP(3)             =       0.31518734
 Set= 1  PEXP(4)             =       0.65543270
 Set= 1  PEXP(5)             =       1.36297360
 Set= 1  DEXP(1)             =       0.15515000
 Set= 1  DEXP(2)             =       0.30559849
 Set= 1  DEXP(3)             =       0.60193643
 Set= 1  DEXP(4)             =       1.18563238
 Set= 1  DEXP(5)             =       2.33533654
 Set= 1  FEXP(1)             =       0.21890300
 Set= 1  FEXP(2)             =       0.38652359
 Set= 1  FEXP(3)             =       0.68249631
 Set= 1  FEXP(4)             =       1.20510420
 Set= 1  GEXP(1)             =       0.36958800
 Set= 1  GEXP(2)             =       0.70956165
 Set= 1  GEXP(3)             =       1.36226755
 Set= 1  HEXP(1)             =       0.62457200
 Set= 1  HEXP(2)             =       1.29817852
 Set= 1  IEXP(1)             =       1.01693600

 PROGRAM * CISD (Restricted open-shell CI(SD))     Authors: C. Hampel, H.-J. Werner, 1991, M. Deegan, P.J. Knowles, 1992


 Convergence thresholds:  THRVAR = 1.00D-08  THRDEN = 1.00D-06

 Number of closed-shell orbitals:   3 (   1   1   1   0   0   0   0   0 )
 Number of active  orbitals:        1 (   0   0   0   0   1   0   0   0 )
 Number of external orbitals:     135 (  28  19  19  14  19  14  14   8 )

 Number of N-1 electron functions:               7
 Number of N-2 electron functions:              21
 Number of singly external CSFs:               152
 Number of doubly external CSFs:             38940
 Total number of CSFs:                       39092

 Molecular orbitals read from record     2101.2  Type=RHF/CANONICAL (state 1.5)

 Integral transformation finished. Total CPU:   0.04 sec, npass=  1  Memory used:   0.11 MW

 Starting RMP2 calculation

 Wavefunction is spin-projected

 ITER.      SQ.NORM     CORR.ENERGY   TOTAL ENERGY   ENERGY CHANGE        DEN1      VAR(S)    VAR(P)  DIIS     TIME
   1      1.05965436    -0.17313967   -13.29468407    -0.17313967    -0.00066525  0.82D-05  0.28D-03  1  1     0.12
   2      1.06034971    -0.17385824   -13.29540264    -0.00071857    -0.00000071  0.50D-08  0.33D-06  2  2     0.14
   3      1.06036466    -0.17386685   -13.29541126    -0.00000862    -0.00000000  0.80D-11  0.45D-09  3  3     0.15
   4      1.06036480    -0.17386688   -13.29541129    -0.00000003    -0.00000000  0.47D-13  0.15D-11  4  4     0.16

 Norm of t1 vector:      0.03814156      S-energy:    -0.00289515      T1 diagnostic:  0.00006788
 Norm of t2 vector:      0.24271387      P-energy:    -0.17097173
                                         Alpha-Beta:  -0.13732325
                                         Alpha-Alpha: -0.02271765
                                         Beta-Beta:   -0.01093082

 Spin contamination <S**2-Sz**2-Sz>     0.00000000
  Reference energy                    -13.121544405500
    --><property name="energy" method="Reference" stateSymmetry="1" stateNumber="1"
      value="-13.1215444054997"/><!--
  RHF-RMP2 correlation energy          -0.173866883494
    --><property name="energy" method="RHF-RMP2 correlation" stateSymmetry="1" stateNumber="1"
      value="-0.173866883493626"/><!--
 !RHF-RMP2 energy                     -13.295411288993
    --><property name="energy" method="RHF-RMP2" principal="true" stateSymmetry="5"
      stateNumber="1" value="-13.2954112889933"/><!--
 (NB above energy spin projected)

 Starting RCISD calculation

 ITER.      SQ.NORM     CORR.ENERGY   TOTAL ENERGY   ENERGY CHANGE        DEN1      VAR(S)    VAR(P)  DIIS     TIME
   1      1.06258016    -0.17574053   -13.29728493    -0.17574053    -0.00331979  0.28D-03  0.92D-03  1  1     0.24
   2      1.06626029    -0.17958791   -13.30113231    -0.00384738    -0.00012033  0.11D-04  0.39D-04  2  2     0.31
   3      1.06696200    -0.17992409   -13.30146850    -0.00033618    -0.00000722  0.10D-05  0.25D-05  3  3     0.38
   4      1.06710884    -0.17994575   -13.30149016    -0.00002166    -0.00000035  0.91D-07  0.13D-06  4  4     0.45
   5      1.06713550    -0.17994758   -13.30149198    -0.00000182    -0.00000002  0.96D-08  0.91D-08  5  5     0.53
   6      1.06713869    -0.17994769   -13.30149209    -0.00000011    -0.00000000  0.11D-08  0.98D-09  6  6     0.60

 Norm of t1 vector:      0.04517054      S-energy:    -0.00315984      T1 diagnostic:  0.00431062
 Norm of t2 vector:      0.25514370      P-energy:    -0.17678787
                                         Alpha-Beta:  -0.14511468
                                         Alpha-Alpha: -0.02137870
                                         Beta-Beta:   -0.01029450

 Spin contamination <S**2-Sz**2-Sz>     0.00000000


 ?Inconsistent energies:

 ecorr    -0.1799477119  -0.1799476880   -0.24D-07
 estrong  -0.1767878737  -0.1767878737   -0.28D-16
 eclose    0.0000000000   0.0000000000    0.00D+00
 eweak     0.0000000000   0.0000000000    0.00D+00
 edist     0.0000000000   0.0000000000    0.00D+00

 RESULTS
 =======

  Reference energy                    -13.121544405500
    --><property name="energy" method="Reference" stateSymmetry="1" stateNumber="1"
      value="-13.1215444054997"/><!--
  RCISD singles energy                 -0.003159814232
    --><property name="energy" method="RCISD singles" stateSymmetry="1" stateNumber="1"
      value="-0.315981423245001E-02"/><!--
  RCISD pair energy                    -0.176787873725
    --><property name="energy" method="RCISD pair" stateSymmetry="1" stateNumber="1"
      value="-0.17678787372475"/><!--
  RCISD correlation energy             -0.179947687957
    --><property name="energy" method="RCISD correlation" stateSymmetry="1" stateNumber="1"
      value="-0.1799476879572"/><!--

 !RHF-RCISD energy                    -13.301492093457
    --><property name="energy" method="RHF-RCISD" principal="true" stateSymmetry="1"
      stateNumber="1" value="-13.3014920934569"/><!--

 Program statistics:

 Available memory in ccsd:               511997796
 Min. memory needed in ccsd:                178585
 Max. memory used in ccsd:                  217447
 Max. memory used in cckext:                204275 ( 6 integral passes)
 Max. memory used in cckint:                106043 ( 1 integral passes)



 **********************************************************************************************************************************
 DATASETS  * FILE   NREC   LENGTH (MB)   RECORD NAMES
              1      19       20.04       500      610      700      900      950      970     1001      129      960     1100
                                          VAR    BASINP    GEOM    SYMINP    ZMAT    AOBASIS   BASIS     P2S    ABASIS      S
                                         1400     1410     1420     1200     1210     1080     1600     1650     1700
                                           T        V       ECP      H0       H01     AOSYM     SMH    MOLCAS    OPER

              2       7        5.75       200      700     1000      520     2100     1001     2101
                                        OPTIONS   GEOM     BASIS   MCVARS     RHF     BASIS     RHF

 PROGRAMS   *        TOTAL     RCISD        HF       INT     RCISD        HF       INT
 CPU TIMES  *        12.29      1.50      0.14      3.82      1.88      0.37      3.67
 REAL TIME  *        15.86 SEC
 DISK USED  *       178.24 MB
 SF USED    *         3.20 MB
 GA USED    *         0.00 MB       (max)       0.00 MB       (current)
 **********************************************************************************************************************************
    -->
    <time start="10:05:59" end="10:06:01" cpu="1.54" system="0.12" real="1.82"/>
    <storage units="megabyte" memory="4097.84" sf="3.2" df="91.84" eaf="86.4" ga="0.0"/>
   </jobstep><!--
 SETTING EVAL           =       -13.30149209  AU


 Calculating numerical derivatives: backward displacement for variable 1 of 13


 Running procedure=OPT_BASIS
 SETTING N              =         5.00000000

 DO I                   =         1.00000000
 SETTING SEXP(1)        =         0.10757119
 SETTING PEXP(1)        =         0.07288700
 SETTING DEXP(1)        =         0.15515000
 SETTING FEXP(1)        =         0.21890300
 SETTING GEXP(1)        =         0.36958800
 SETTING HEXP(1)        =         0.62457200
 SETTING IEXP(1)        =         1.01693600

 DO I                   =         2.00000000
 SETTING SEXP(2)        =         0.23479767
 SETTING PEXP(2)        =         0.15156866
 SETTING DEXP(2)        =         0.30559849
 SETTING FEXP(2)        =         0.38652359
 SETTING GEXP(2)        =         0.70956165
 SETTING HEXP(2)        =         1.29817852
 SETTING IEXP(2)        =         2.03387200

 DO I                   =         3.00000000
 SETTING SEXP(3)        =         0.51249735
 SETTING PEXP(3)        =         0.31518734
 SETTING DEXP(3)        =         0.60193643
 SETTING FEXP(3)        =         0.68249631
 SETTING GEXP(3)        =         1.36226755
 SETTING HEXP(3)        =         2.69827574
 SETTING IEXP(3)        =         4.06774400

 DO I                   =         4.00000000
 SETTING SEXP(4)        =         1.11863769
 SETTING PEXP(4)        =         0.65543270
 SETTING DEXP(4)        =         1.18563238
 SETTING FEXP(4)        =         1.20510420
 SETTING GEXP(4)        =         2.61537932
 SETTING HEXP(4)        =         5.60839042
 SETTING IEXP(4)        =         8.13548800

 DO I                   =         5.00000000
 SETTING SEXP(5)        =         2.44167175
 SETTING PEXP(5)        =         1.36297360
 SETTING DEXP(5)        =         2.33533654
 SETTING FEXP(5)        =         2.12788864
 SETTING GEXP(5)        =         5.02119353
 SETTING HEXP(5)        =        11.65708996
 SETTING IEXP(5)        =        16.27097600
 SETTING BASIS          =    USERDEF
   --><jobstep command="HF-SCF" commandset="SCFPRO">
    <!--


 Current variables in basis input:

 Set= 1  SEXP(1)             =       0.10757119
 Set= 1  SEXP(2)             =       0.23479767
 Set= 1  SEXP(3)             =       0.51249735
 Set= 1  SEXP(4)             =       1.11863769
 Set= 1  SEXP(5)             =       2.44167175
 Set= 1  PEXP(1)             =       0.07288700
 Set= 1  PEXP(2)             =       0.15156866
 Set= 1  PEXP(3)             =       0.31518734
 Set= 1  PEXP(4)             =       0.65543270
 Set= 1  PEXP(5)             =       1.36297360
 Set= 1  DEXP(1)             =       0.15515000
 Set= 1  DEXP(2)             =       0.30559849
 Set= 1  DEXP(3)             =       0.60193643
 Set= 1  DEXP(4)             =       1.18563238
 Set= 1  DEXP(5)             =       2.33533654
 Set= 1  FEXP(1)             =       0.21890300
 Set= 1  FEXP(2)             =       0.38652359
 Set= 1  FEXP(3)             =       0.68249631
 Set= 1  FEXP(4)             =       1.20510420
 Set= 1  GEXP(1)             =       0.36958800
 Set= 1  GEXP(2)             =       0.70956165
 Set= 1  GEXP(3)             =       1.36226755
 Set= 1  HEXP(1)             =       0.62457200
 Set= 1  HEXP(2)             =       1.29817852
 Set= 1  IEXP(1)             =       1.01693600

 Recomputing integrals since basis changed


 Using spherical harmonics



 PROGRAM * SEWARD (Integral evaluation for generally contracted gaussian basis sets)     Author: Roland Lindh, 1990

 Geometry written to block  1 of record 700

 Orientation using atomic masses
 Molecule type: Atom
 Symmetry elements: X,Y,Z
 Rotational constants:       0.0000000      0.0000000      0.0000000 GHz  (calculated with average atomic masses)

 Point group  D2h



 ATOMIC COORDINATES

 NR  ATOM    CHARGE       X              Y              Z

   1  BR      7.00    0.000000000    0.000000000    0.000000000

 NUCLEAR CHARGE:                    7
 NUMBER OF PRIMITIVE AOS:         241
 NUMBER OF SYMMETRY AOS:          171
 NUMBER OF CONTRACTIONS:          139   (  29Ag  +  20B3u +  20B2u +  14B1g +  20B1u +  14B2g +  14B3g +   8Au  )
 NUMBER OF CORE ORBITALS:           0   (   0Ag  +   0B3u +   0B2u +   0B1g +   0B1u +   0B2g +   0B3g +   0Au  )
 NUMBER OF VALENCE ORBITALS:        4   (   1Ag  +   1B3u +   1B2u +   0B1g +   1B1u +   0B2g +   0B3g +   0Au  )


 NUCLEAR REPULSION ENERGY    0.00000000

 EXTRA SYMMETRY OF AOS IN SYMMETRY 1:   1 1 1 1 1 1 2 3 2 3   2 3 2 3 2 3 4 5 6 4   5 6 4 5 6 7 8 910
 EXTRA SYMMETRY OF AOS IN SYMMETRY 2:   1 1 1 1 1 1 2 3 2 3   2 3 2 3 4 5 6 4 5 6
 EXTRA SYMMETRY OF AOS IN SYMMETRY 3:   1 1 1 1 1 1 2 3 2 3   2 3 2 3 4 5 6 4 5 6
 EXTRA SYMMETRY OF AOS IN SYMMETRY 4:   1 1 1 1 1 2 3 2 3 2   3 4 5 6
 EXTRA SYMMETRY OF AOS IN SYMMETRY 5:   1 1 1 1 1 1 2 3 2 3   2 3 2 3 4 5 6 4 5 6
 EXTRA SYMMETRY OF AOS IN SYMMETRY 6:   1 1 1 1 1 2 3 2 3 2   3 4 5 6
 EXTRA SYMMETRY OF AOS IN SYMMETRY 7:   1 1 1 1 1 2 3 2 3 2   3 4 5 6
 EXTRA SYMMETRY OF AOS IN SYMMETRY 8:   1 1 1 1 2 3 2 3

 Eigenvalues of metric

         1 0.486E-03 0.417E-02 0.115E-01 0.115E-01 0.355E-01 0.819E-01 0.819E-01 0.932E-01
         2 0.548E-03 0.833E-02 0.157E-01 0.157E-01 0.622E-01 0.162E+00 0.162E+00 0.347E+00
         3 0.548E-03 0.833E-02 0.157E-01 0.157E-01 0.622E-01 0.162E+00 0.162E+00 0.347E+00
         4 0.115E-01 0.819E-01 0.932E-01 0.932E-01 0.395E+00 0.666E+00 0.666E+00 0.100E+01
         5 0.548E-03 0.833E-02 0.157E-01 0.157E-01 0.622E-01 0.162E+00 0.162E+00 0.347E+00
         6 0.115E-01 0.819E-01 0.932E-01 0.932E-01 0.395E+00 0.666E+00 0.666E+00 0.100E+01
         7 0.115E-01 0.819E-01 0.932E-01 0.932E-01 0.395E+00 0.666E+00 0.666E+00 0.100E+01
         8 0.157E-01 0.162E+00 0.347E+00 0.347E+00 0.919E+00 0.165E+01 0.165E+01 0.290E+01


 Contracted 2-electron integrals neglected if value below      1.0D-12
 AO integral compression algorithm  1   Integral accuracy      1.0D-12

     44.564 MB (compressed) written to integral file ( 59.5%)

     Node minimum: 11.796 MB, node maximum: 16.777 MB


 NUMBER OF SORTED TWO-ELECTRON INTEGRALS:    2032684.     BUFFER LENGTH:  32768
 NUMBER OF SEGMENTS:   1  SEGMENT LENGTH:    2032684      RECORD LENGTH: 524288

 Memory used in sort:       2.59 MW

 SORT1 READ     9405658. AND WROTE     1351503. INTEGRALS IN      4 RECORDS. CPU TIME:     7.38 SEC, REAL TIME:     7.60 SEC
 SORT2 READ     4069250. AND WROTE     6117204. INTEGRALS IN    183 RECORDS. CPU TIME:     0.31 SEC, REAL TIME:     0.46 SEC

 Node minimum:     2032684.  Node maximum:     2051364. integrals

 OPERATOR DM      FOR CENTER  0  COORDINATES:    0.000000    0.000000    0.000000


 **********************************************************************************************************************************
 DATASETS  * FILE   NREC   LENGTH (MB)   RECORD NAMES
              1      19       20.04       500      610      700      900      950      970     1002      129      960     1100
                                          VAR    BASINP    GEOM    SYMINP    ZMAT    AOBASIS   BASIS     P2S    ABASIS      S
                                         1400     1410     1420     1200     1210     1080     1600     1650     1700
                                           T        V       ECP      H0       H01     AOSYM     SMH    MOLCAS    OPER

              2       8        5.83       200      700     1000      520     2100     1001     2101     1002
                                        OPTIONS   GEOM     BASIS   MCVARS     RHF     BASIS     RHF     BASIS

 PROGRAMS   *        TOTAL       INT     RCISD        HF       INT     RCISD        HF       INT
 CPU TIMES  *        22.33      9.94      1.50      0.14      3.82      1.88      0.37      3.67
 REAL TIME  *        26.72 SEC
 DISK USED  *       178.24 MB
 SF USED    *         3.20 MB
 GA USED    *         0.00 MB       (max)       0.00 MB       (current)
 **********************************************************************************************************************************


 PROGRAM * RHF-SCF (OPEN SHELL)       Authors: W. Meyer, H.-J. Werner


 NUMBER OF ELECTRONS:       4+    3-    SPACE SYMMETRY=5    SPIN SYMMETRY: Doublet
 CONVERGENCE THRESHOLDS:    1.00E-05 (Density)    1.00E-07 (Energy)
 MAX. NUMBER OF ITERATIONS:       60
 INTERPOLATION TYPE:            DIIS
 INTERPOLATION STEPS:              2 (START)      1 (STEP)
 LEVEL SHIFTS:                 -0.60 (CLOSED) -0.30 (OPEN)

 Number of closed-shell orbitals:    3 (   1   1   1   0   0   0   0   0 )
 Number of open-shell orbitals:      1 (   0   0   0   0   1   0   0   0 )


 Molecular orbitals read from record     2100.2  Type=RHF/CANONICAL (state 1.5)
 Present occupation:       1   1   1   0   1   0   0   0
 Present closed-shells:    1   1   1   0   0   0   0   0
 Wavefunction symmetry:    5   Doublet

 Orbital overlap <old|new>:  < 1.1| 1.1> = 1.000000   < 1.2| 1.2> = 1.000000   < 1.3| 1.3> = 1.000000   < 1.5| 1.5> = 1.000000

 Molecular orbital dump at record        2102.2

 ITERATION    DDIFF          GRAD             ENERGY        2-EL.EN.            DIPOLE MOMENTS         DIIS   ORB.
    1      0.000D+00      0.000D+00       -13.12154441     17.571938    0.00000    0.00000    0.00000    0    start
    2      0.000D+00      0.465D-06       -13.12154441     17.571944    0.00000    0.00000    0.00000    0    orth

 Final alpha occupancy:   1   1   1   0   1   0   0   0
 Final beta  occupancy:   1   1   1   0   0   0   0   0

 !RHF STATE 1.5 Energy                -13.121544405517
    --><property name="Energy" method="RHF" principal="true" stateSymmetry="5" stateNumber="1"
      value="-13.1215444055165"/><!--
 Nuclear energy                         0.00000000
 One-electron energy                  -21.90751658
 Two-electron energy                    8.78597218
 Virial quotient                       -2.85075956
 !RHF STATE 1.5 Dipole moment           0.00000000     0.00000000     0.00000000
 Dipole moment /Debye                   0.00000000     0.00000000     0.00000000
    --><property name="Dipole moment" method="RHF" principal="true" stateSymmetry="5"
      stateNumber="1" value="0.0 0.0 0.0"/><!--

 Orbital energies:

         1.1          2.1          3.1
     -1.019438     0.237923     0.308971

         1.2          2.2          3.2
     -0.444796     0.194278     0.719836

         1.3          2.3          3.3
     -0.444796     0.194278     0.719836

         1.4          2.4
      0.336425     0.935370

         1.5          2.5          3.5
     -0.517516     0.180767     0.715958

         1.6          2.6
      0.316468     0.905732

         1.7          2.7
      0.316468     0.905732

         1.8          2.8
      0.729056     1.690859

 HOMO      1.2    -0.444796 =     -12.1035eV
 LUMO      2.5     0.180767 =       4.9189eV
 LUMO-HOMO         0.625563 =      17.0224eV


 **********************************************************************************************************************************
 DATASETS  * FILE   NREC   LENGTH (MB)   RECORD NAMES
              1      19       20.04       500      610      700      900      950      970     1002      129      960     1100
                                          VAR    BASINP    GEOM    SYMINP    ZMAT    AOBASIS   BASIS     P2S    ABASIS      S
                                         1400     1410     1420     1200     1210     1080     1600     1650     1700
                                           T        V       ECP      H0       H01     AOSYM     SMH    MOLCAS    OPER

              2       9        8.40       200      700     1000      520     2100     1001     2101     1002     2102
                                        OPTIONS   GEOM     BASIS   MCVARS     RHF     BASIS     RHF     BASIS     RHF

 PROGRAMS   *        TOTAL        HF       INT     RCISD        HF       INT     RCISD        HF       INT
 CPU TIMES  *        22.79      0.17      9.94      1.50      0.14      3.82      1.88      0.37      3.67
 REAL TIME  *        27.23 SEC
 DISK USED  *       178.24 MB
 SF USED    *         3.20 MB
 GA USED    *         0.00 MB       (max)       0.00 MB       (current)
 **********************************************************************************************************************************
    -->
    <time start="10:06:01" end="10:06:12" cpu="10.5" system="0.37" real="11.37"/>
    <storage units="megabyte" memory="4097.84" sf="3.2" df="91.84" eaf="86.4" ga="0.0"/>
   </jobstep><!--
 SETTING _CC_NORM_MAX   =         2.00000000
   --><jobstep command="RCISD" commandset="CCSD">
    <!--


 Current variables in basis input:

 Set= 1  SEXP(1)             =       0.10757119
 Set= 1  SEXP(2)             =       0.23479767
 Set= 1  SEXP(3)             =       0.51249735
 Set= 1  SEXP(4)             =       1.11863769
 Set= 1  SEXP(5)             =       2.44167175
 Set= 1  PEXP(1)             =       0.07288700
 Set= 1  PEXP(2)             =       0.15156866
 Set= 1  PEXP(3)             =       0.31518734
 Set= 1  PEXP(4)             =       0.65543270
 Set= 1  PEXP(5)             =       1.36297360
 Set= 1  DEXP(1)             =       0.15515000
 Set= 1  DEXP(2)             =       0.30559849
 Set= 1  DEXP(3)             =       0.60193643
 Set= 1  DEXP(4)             =       1.18563238
 Set= 1  DEXP(5)             =       2.33533654
 Set= 1  FEXP(1)             =       0.21890300
 Set= 1  FEXP(2)             =       0.38652359
 Set= 1  FEXP(3)             =       0.68249631
 Set= 1  FEXP(4)             =       1.20510420
 Set= 1  GEXP(1)             =       0.36958800
 Set= 1  GEXP(2)             =       0.70956165
 Set= 1  GEXP(3)             =       1.36226755
 Set= 1  HEXP(1)             =       0.62457200
 Set= 1  HEXP(2)             =       1.29817852
 Set= 1  IEXP(1)             =       1.01693600

 PROGRAM * CISD (Restricted open-shell CI(SD))     Authors: C. Hampel, H.-J. Werner, 1991, M. Deegan, P.J. Knowles, 1992


 Convergence thresholds:  THRVAR = 1.00D-08  THRDEN = 1.00D-06

 Number of closed-shell orbitals:   3 (   1   1   1   0   0   0   0   0 )
 Number of active  orbitals:        1 (   0   0   0   0   1   0   0   0 )
 Number of external orbitals:     135 (  28  19  19  14  19  14  14   8 )

 Number of N-1 electron functions:               7
 Number of N-2 electron functions:              21
 Number of singly external CSFs:               152
 Number of doubly external CSFs:             38940
 Total number of CSFs:                       39092

 Molecular orbitals read from record     2102.2  Type=RHF/CANONICAL (state 1.5)

 Integral transformation finished. Total CPU:   0.04 sec, npass=  1  Memory used:   0.11 MW

 Starting RMP2 calculation

 Wavefunction is spin-projected

 ITER.      SQ.NORM     CORR.ENERGY   TOTAL ENERGY   ENERGY CHANGE        DEN1      VAR(S)    VAR(P)  DIIS     TIME
   1      1.05965436    -0.17313957   -13.29468398    -0.17313957    -0.00066524  0.82D-05  0.28D-03  1  1     0.19
   2      1.06034971    -0.17385814   -13.29540254    -0.00071857    -0.00000071  0.50D-08  0.33D-06  2  2     0.21
   3      1.06036467    -0.17386676   -13.29541116    -0.00000862    -0.00000000  0.80D-11  0.45D-09  3  3     0.22
   4      1.06036481    -0.17386679   -13.29541119    -0.00000003    -0.00000000  0.47D-13  0.15D-11  4  4     0.23

 Norm of t1 vector:      0.03814156      S-energy:    -0.00289515      T1 diagnostic:  0.00006790
 Norm of t2 vector:      0.24271388      P-energy:    -0.17097163
                                         Alpha-Beta:  -0.13732316
                                         Alpha-Alpha: -0.02271765
                                         Beta-Beta:   -0.01093082

 Spin contamination <S**2-Sz**2-Sz>     0.00000000
  Reference energy                    -13.121544405517
    --><property name="energy" method="Reference" stateSymmetry="1" stateNumber="1"
      value="-13.1215444055165"/><!--
  RHF-RMP2 correlation energy          -0.173866786301
    --><property name="energy" method="RHF-RMP2 correlation" stateSymmetry="1" stateNumber="1"
      value="-0.173866786300603"/><!--
 !RHF-RMP2 energy                     -13.295411191817
    --><property name="energy" method="RHF-RMP2" principal="true" stateSymmetry="5"
      stateNumber="1" value="-13.2954111918171"/><!--
 (NB above energy spin projected)

 Starting RCISD calculation

 ITER.      SQ.NORM     CORR.ENERGY   TOTAL ENERGY   ENERGY CHANGE        DEN1      VAR(S)    VAR(P)  DIIS     TIME
   1      1.06258017    -0.17574045   -13.29728486    -0.17574045    -0.00331978  0.28D-03  0.92D-03  1  1     0.33
   2      1.06626031    -0.17958783   -13.30113224    -0.00384738    -0.00012033  0.11D-04  0.39D-04  2  2     0.40
   3      1.06696201    -0.17992402   -13.30146842    -0.00033618    -0.00000722  0.10D-05  0.25D-05  3  3     0.47
   4      1.06710885    -0.17994568   -13.30149009    -0.00002166    -0.00000035  0.91D-07  0.13D-06  4  4     0.53
   5      1.06713551    -0.17994750   -13.30149191    -0.00000182    -0.00000002  0.96D-08  0.91D-08  5  5     0.59
   6      1.06713870    -0.17994761   -13.30149202    -0.00000011    -0.00000000  0.11D-08  0.98D-09  6  6     0.66

 Norm of t1 vector:      0.04517051      S-energy:    -0.00315984      T1 diagnostic:  0.00431059
 Norm of t2 vector:      0.25514374      P-energy:    -0.17678780
                                         Alpha-Beta:  -0.14511460
                                         Alpha-Alpha: -0.02137870
                                         Beta-Beta:   -0.01029450

 Spin contamination <S**2-Sz**2-Sz>     0.00000000


 ?Inconsistent energies:

 ecorr    -0.1799476384  -0.1799476145   -0.24D-07
 estrong  -0.1767878008  -0.1767878008    0.00D+00
 eclose    0.0000000000   0.0000000000    0.00D+00
 eweak     0.0000000000   0.0000000000    0.00D+00
 edist     0.0000000000   0.0000000000    0.00D+00

 RESULTS
 =======

  Reference energy                    -13.121544405517
    --><property name="energy" method="Reference" stateSymmetry="1" stateNumber="1"
      value="-13.1215444055165"/><!--
  RCISD singles energy                 -0.003159813661
    --><property name="energy" method="RCISD singles" stateSymmetry="1" stateNumber="1"
      value="-0.315981366106519E-02"/><!--
  RCISD pair energy                    -0.176787800808
    --><property name="energy" method="RCISD pair" stateSymmetry="1" stateNumber="1"
      value="-0.176787800808262"/><!--
  RCISD correlation energy             -0.179947614469
    --><property name="energy" method="RCISD correlation" stateSymmetry="1" stateNumber="1"
      value="-0.179947614469327"/><!--

 !RHF-RCISD energy                    -13.301492019986
    --><property name="energy" method="RHF-RCISD" principal="true" stateSymmetry="1"
      stateNumber="1" value="-13.3014920199859"/><!--

 Program statistics:

 Available memory in ccsd:               511997796
 Min. memory needed in ccsd:                178585
 Max. memory used in ccsd:                  217447
 Max. memory used in cckext:                204275 ( 6 integral passes)
 Max. memory used in cckint:                106043 ( 1 integral passes)



 **********************************************************************************************************************************
 DATASETS  * FILE   NREC   LENGTH (MB)   RECORD NAMES
              1      19       20.04       500      610      700      900      950      970     1002      129      960     1100
                                          VAR    BASINP    GEOM    SYMINP    ZMAT    AOBASIS   BASIS     P2S    ABASIS      S
                                         1400     1410     1420     1200     1210     1080     1600     1650     1700
                                           T        V       ECP      H0       H01     AOSYM     SMH    MOLCAS    OPER

              2       9        8.40       200      700     1000      520     2100     1001     2101     1002     2102
                                        OPTIONS   GEOM     BASIS   MCVARS     RHF     BASIS     RHF     BASIS     RHF

 PROGRAMS   *        TOTAL     RCISD        HF       INT     RCISD        HF       INT     RCISD        HF       INT
 CPU TIMES  *        24.17      1.35      0.17      9.94      1.50      0.14      3.82      1.88      0.37      3.67
 REAL TIME  *        29.58 SEC
 DISK USED  *       186.17 MB
 SF USED    *         3.20 MB
 GA USED    *         0.00 MB       (max)       0.00 MB       (current)
 **********************************************************************************************************************************
    -->
    <time start="10:06:12" end="10:06:14" cpu="1.38" system="0.1" real="2.35"/>
    <storage units="megabyte" memory="4097.84" sf="3.2" df="99.77" eaf="86.4" ga="0.0"/>
   </jobstep><!--
 SETTING EVAL           =       -13.30149202  AU

 Numerical derivatives for variable  1:

      Current         Variable       Gradient        Hessian
     -13.301492       0.107625      -0.000073       1.000000


 Calculating numerical derivatives: forward displacement for variable 2 of 13


 Running procedure=OPT_BASIS
 SETTING N              =         5.00000000

 DO I                   =         1.00000000
 SETTING SEXP(1)        =         0.10762500
 SETTING PEXP(1)        =         0.07288700
 SETTING DEXP(1)        =         0.15515000
 SETTING FEXP(1)        =         0.21890300
 SETTING GEXP(1)        =         0.36958800
 SETTING HEXP(1)        =         0.62457200
 SETTING IEXP(1)        =         1.01693600

 DO I                   =         2.00000000
 SETTING SEXP(2)        =         0.23503259
 SETTING PEXP(2)        =         0.15156866
 SETTING DEXP(2)        =         0.30559849
 SETTING FEXP(2)        =         0.38652359
 SETTING GEXP(2)        =         0.70956165
 SETTING HEXP(2)        =         1.29817852
 SETTING IEXP(2)        =         2.03387200

 DO I                   =         3.00000000
 SETTING SEXP(3)        =         0.51326660
 SETTING PEXP(3)        =         0.31518734
 SETTING DEXP(3)        =         0.60193643
 SETTING FEXP(3)        =         0.68249631
 SETTING GEXP(3)        =         1.36226755
 SETTING HEXP(3)        =         2.69827574
 SETTING IEXP(3)        =         4.06774400

 DO I                   =         4.00000000
 SETTING SEXP(4)        =         1.12087693
 SETTING PEXP(4)        =         0.65543270
 SETTING DEXP(4)        =         1.18563238
 SETTING FEXP(4)        =         1.20510420
 SETTING GEXP(4)        =         2.61537932
 SETTING HEXP(4)        =         5.60839042
 SETTING IEXP(4)        =         8.13548800

 DO I                   =         5.00000000
 SETTING SEXP(5)        =         2.44778265
 SETTING PEXP(5)        =         1.36297360
 SETTING DEXP(5)        =         2.33533654
 SETTING FEXP(5)        =         2.12788864
 SETTING GEXP(5)        =         5.02119353
 SETTING HEXP(5)        =        11.65708996
 SETTING IEXP(5)        =        16.27097600
 SETTING BASIS          =    USERDEF
   --><jobstep command="HF-SCF" commandset="SCFPRO">
    <!--


 Current variables in basis input:

 Set= 1  SEXP(1)             =       0.10762500
 Set= 1  SEXP(2)             =       0.23503259
 Set= 1  SEXP(3)             =       0.51326660
 Set= 1  SEXP(4)             =       1.12087693
 Set= 1  SEXP(5)             =       2.44778265
 Set= 1  PEXP(1)             =       0.07288700
 Set= 1  PEXP(2)             =       0.15156866
 Set= 1  PEXP(3)             =       0.31518734
 Set= 1  PEXP(4)             =       0.65543270
 Set= 1  PEXP(5)             =       1.36297360
 Set= 1  DEXP(1)             =       0.15515000
 Set= 1  DEXP(2)             =       0.30559849
 Set= 1  DEXP(3)             =       0.60193643
 Set= 1  DEXP(4)             =       1.18563238
 Set= 1  DEXP(5)             =       2.33533654
 Set= 1  FEXP(1)             =       0.21890300
 Set= 1  FEXP(2)             =       0.38652359
 Set= 1  FEXP(3)             =       0.68249631
 Set= 1  FEXP(4)             =       1.20510420
 Set= 1  GEXP(1)             =       0.36958800
 Set= 1  GEXP(2)             =       0.70956165
 Set= 1  GEXP(3)             =       1.36226755
 Set= 1  HEXP(1)             =       0.62457200
 Set= 1  HEXP(2)             =       1.29817852
 Set= 1  IEXP(1)             =       1.01693600

 Recomputing integrals since basis changed


 Using spherical harmonics



 PROGRAM * SEWARD (Integral evaluation for generally contracted gaussian basis sets)     Author: Roland Lindh, 1990

 Geometry written to block  1 of record 700

 Orientation using atomic masses
 Molecule type: Atom
 Symmetry elements: X,Y,Z
 Rotational constants:       0.0000000      0.0000000      0.0000000 GHz  (calculated with average atomic masses)

 Point group  D2h



 ATOMIC COORDINATES

 NR  ATOM    CHARGE       X              Y              Z

   1  BR      7.00    0.000000000    0.000000000    0.000000000

 NUCLEAR CHARGE:                    7
 NUMBER OF PRIMITIVE AOS:         241
 NUMBER OF SYMMETRY AOS:          171
 NUMBER OF CONTRACTIONS:          139   (  29Ag  +  20B3u +  20B2u +  14B1g +  20B1u +  14B2g +  14B3g +   8Au  )
 NUMBER OF CORE ORBITALS:           0   (   0Ag  +   0B3u +   0B2u +   0B1g +   0B1u +   0B2g +   0B3g +   0Au  )
 NUMBER OF VALENCE ORBITALS:        4   (   1Ag  +   1B3u +   1B2u +   0B1g +   1B1u +   0B2g +   0B3g +   0Au  )


 NUCLEAR REPULSION ENERGY    0.00000000

 EXTRA SYMMETRY OF AOS IN SYMMETRY 1:   1 1 1 1 1 1 2 3 2 3   2 3 2 3 2 3 4 5 6 4   5 6 4 5 6 7 8 910
 EXTRA SYMMETRY OF AOS IN SYMMETRY 2:   1 1 1 1 1 1 2 3 2 3   2 3 2 3 4 5 6 4 5 6
 EXTRA SYMMETRY OF AOS IN SYMMETRY 3:   1 1 1 1 1 1 2 3 2 3   2 3 2 3 4 5 6 4 5 6
 EXTRA SYMMETRY OF AOS IN SYMMETRY 4:   1 1 1 1 1 2 3 2 3 2   3 4 5 6
 EXTRA SYMMETRY OF AOS IN SYMMETRY 5:   1 1 1 1 1 1 2 3 2 3   2 3 2 3 4 5 6 4 5 6
 EXTRA SYMMETRY OF AOS IN SYMMETRY 6:   1 1 1 1 1 2 3 2 3 2   3 4 5 6
 EXTRA SYMMETRY OF AOS IN SYMMETRY 7:   1 1 1 1 1 2 3 2 3 2   3 4 5 6
 EXTRA SYMMETRY OF AOS IN SYMMETRY 8:   1 1 1 1 2 3 2 3

 Eigenvalues of metric

         1 0.485E-03 0.419E-02 0.115E-01 0.115E-01 0.356E-01 0.819E-01 0.819E-01 0.932E-01
         2 0.548E-03 0.833E-02 0.157E-01 0.157E-01 0.622E-01 0.162E+00 0.162E+00 0.347E+00
         3 0.548E-03 0.833E-02 0.157E-01 0.157E-01 0.622E-01 0.162E+00 0.162E+00 0.347E+00
         4 0.115E-01 0.819E-01 0.932E-01 0.932E-01 0.395E+00 0.666E+00 0.666E+00 0.100E+01
         5 0.548E-03 0.833E-02 0.157E-01 0.157E-01 0.622E-01 0.162E+00 0.162E+00 0.347E+00
         6 0.115E-01 0.819E-01 0.932E-01 0.932E-01 0.395E+00 0.666E+00 0.666E+00 0.100E+01
         7 0.115E-01 0.819E-01 0.932E-01 0.932E-01 0.395E+00 0.666E+00 0.666E+00 0.100E+01
         8 0.157E-01 0.162E+00 0.347E+00 0.347E+00 0.919E+00 0.165E+01 0.165E+01 0.290E+01


 Contracted 2-electron integrals neglected if value below      1.0D-12
 AO integral compression algorithm  1   Integral accuracy      1.0D-12

     44.827 MB (compressed) written to integral file ( 59.2%)

     Node minimum: 12.845 MB, node maximum: 18.350 MB


 NUMBER OF SORTED TWO-ELECTRON INTEGRALS:    2032684.     BUFFER LENGTH:  32768
 NUMBER OF SEGMENTS:   1  SEGMENT LENGTH:    2032684      RECORD LENGTH: 524288

 Memory used in sort:       2.59 MW

 SORT1 READ     9405658. AND WROTE     1351503. INTEGRALS IN      4 RECORDS. CPU TIME:     0.67 SEC, REAL TIME:     0.88 SEC
 SORT2 READ     4069250. AND WROTE     6117204. INTEGRALS IN    147 RECORDS. CPU TIME:     0.58 SEC, REAL TIME:     0.74 SEC

 Node minimum:     2032684.  Node maximum:     2051364. integrals

 OPERATOR DM      FOR CENTER  0  COORDINATES:    0.000000    0.000000    0.000000


 **********************************************************************************************************************************
 DATASETS  * FILE   NREC   LENGTH (MB)   RECORD NAMES
              1      19       20.04       500      610      700      900      950      970     1003      129      960     1100
                                          VAR    BASINP    GEOM    SYMINP    ZMAT    AOBASIS   BASIS     P2S    ABASIS      S
                                         1400     1410     1420     1200     1210     1080     1600     1650     1700
                                           T        V       ECP      H0       H01     AOSYM     SMH    MOLCAS    OPER

              2      10        8.47       200      700     1000      520     2100     1001     2101     1002     2102     1003
                                        OPTIONS   GEOM     BASIS   MCVARS     RHF     BASIS     RHF     BASIS     RHF     BASIS

 PROGRAMS   *        TOTAL       INT     RCISD        HF       INT     RCISD        HF       INT     RCISD        HF       INT
 CPU TIMES  *        27.94      3.69      1.35      0.17      9.94      1.50      0.14      3.82      1.88      0.37      3.67
 REAL TIME  *        34.12 SEC
 DISK USED  *       186.76 MB
 SF USED    *         3.20 MB
 GA USED    *         0.00 MB       (max)       0.00 MB       (current)
 **********************************************************************************************************************************


 PROGRAM * RHF-SCF (OPEN SHELL)       Authors: W. Meyer, H.-J. Werner


 NUMBER OF ELECTRONS:       4+    3-    SPACE SYMMETRY=5    SPIN SYMMETRY: Doublet
 CONVERGENCE THRESHOLDS:    1.00E-05 (Density)    1.00E-07 (Energy)
 MAX. NUMBER OF ITERATIONS:       60
 INTERPOLATION TYPE:            DIIS
 INTERPOLATION STEPS:              2 (START)      1 (STEP)
 LEVEL SHIFTS:                 -0.60 (CLOSED) -0.30 (OPEN)

 Number of closed-shell orbitals:    3 (   1   1   1   0   0   0   0   0 )
 Number of open-shell orbitals:      1 (   0   0   0   0   1   0   0   0 )


 Molecular orbitals read from record     2100.2  Type=RHF/CANONICAL (state 1.5)
 Present occupation:       1   1   1   0   1   0   0   0
 Present closed-shells:    1   1   1   0   0   0   0   0
 Wavefunction symmetry:    5   Doublet

 Orbital overlap <old|new>:  < 1.1| 1.1> = 1.000000   < 1.2| 1.2> = 1.000000   < 1.3| 1.3> = 1.000000   < 1.5| 1.5> = 1.000000

 Molecular orbital dump at record        2103.2

 ITERATION    DDIFF          GRAD             ENERGY        2-EL.EN.            DIPOLE MOMENTS         DIIS   ORB.
    1      0.000D+00      0.000D+00       -13.12154441     17.571938    0.00000    0.00000    0.00000    0    start
    2      0.000D+00      0.486D-06       -13.12154441     17.571944    0.00000    0.00000    0.00000    0    orth

 Final alpha occupancy:   1   1   1   0   1   0   0   0
 Final beta  occupancy:   1   1   1   0   0   0   0   0

 !RHF STATE 1.5 Energy                -13.121544405482
    --><property name="Energy" method="RHF" principal="true" stateSymmetry="5" stateNumber="1"
      value="-13.121544405482"/><!--
 Nuclear energy                         0.00000000
 One-electron energy                  -21.90751659
 Two-electron energy                    8.78597219
 Virial quotient                       -2.85075961
 !RHF STATE 1.5 Dipole moment           0.00000000     0.00000000     0.00000000
 Dipole moment /Debye                   0.00000000     0.00000000     0.00000000
    --><property name="Dipole moment" method="RHF" principal="true" stateSymmetry="5"
      stateNumber="1" value="0.0 0.0 0.0"/><!--

 Orbital energies:

         1.1          2.1          3.1
     -1.019438     0.238204     0.308978

         1.2          2.2          3.2
     -0.444796     0.194278     0.719836

         1.3          2.3          3.3
     -0.444796     0.194278     0.719836

         1.4          2.4
      0.336425     0.935370

         1.5          2.5          3.5
     -0.517516     0.180767     0.715958

         1.6          2.6
      0.316468     0.905732

         1.7          2.7
      0.316468     0.905732

         1.8          2.8
      0.729056     1.690859

 HOMO      1.2    -0.444796 =     -12.1035eV
 LUMO      2.5     0.180767 =       4.9189eV
 LUMO-HOMO         0.625563 =      17.0224eV


 **********************************************************************************************************************************
 DATASETS  * FILE   NREC   LENGTH (MB)   RECORD NAMES
              1      19       20.04       500      610      700      900      950      970     1003      129      960     1100
                                          VAR    BASINP    GEOM    SYMINP    ZMAT    AOBASIS   BASIS     P2S    ABASIS      S
                                         1400     1410     1420     1200     1210     1080     1600     1650     1700
                                           T        V       ECP      H0       H01     AOSYM     SMH    MOLCAS    OPER

              2      11       11.04       200      700     1000      520     2100     1001     2101     1002     2102     1003
                                        OPTIONS   GEOM     BASIS   MCVARS     RHF     BASIS     RHF     BASIS     RHF     BASIS
                                         2103
                                          RHF

 PROGRAMS   *        TOTAL        HF       INT     RCISD        HF       INT     RCISD        HF       INT     RCISD        HF
 CPU TIMES  *        28.21      0.13      3.69      1.35      0.17      9.94      1.50      0.14      3.82      1.88      0.37
 REAL TIME  *        34.43 SEC
 DISK USED  *       186.76 MB
 SF USED    *         3.20 MB
 GA USED    *         0.00 MB       (max)       0.00 MB       (current)
 **********************************************************************************************************************************
    -->
    <time start="10:06:15" end="10:06:19" cpu="4.04" system="0.47" real="4.85"/>
    <storage units="megabyte" memory="4097.84" sf="3.2" df="99.77" eaf="86.99" ga="0.0"/>
   </jobstep><!--
 SETTING _CC_NORM_MAX   =         2.00000000
   --><jobstep command="RCISD" commandset="CCSD">
    <!--


 Current variables in basis input:

 Set= 1  SEXP(1)             =       0.10762500
 Set= 1  SEXP(2)             =       0.23503259
 Set= 1  SEXP(3)             =       0.51326660
 Set= 1  SEXP(4)             =       1.12087693
 Set= 1  SEXP(5)             =       2.44778265
 Set= 1  PEXP(1)             =       0.07288700
 Set= 1  PEXP(2)             =       0.15156866
 Set= 1  PEXP(3)             =       0.31518734
 Set= 1  PEXP(4)             =       0.65543270
 Set= 1  PEXP(5)             =       1.36297360
 Set= 1  DEXP(1)             =       0.15515000
 Set= 1  DEXP(2)             =       0.30559849
 Set= 1  DEXP(3)             =       0.60193643
 Set= 1  DEXP(4)             =       1.18563238
 Set= 1  DEXP(5)             =       2.33533654
 Set= 1  FEXP(1)             =       0.21890300
 Set= 1  FEXP(2)             =       0.38652359
 Set= 1  FEXP(3)             =       0.68249631
[...]
  RCISD correlation energy             -0.179947608364
    --><property name="energy" method="RCISD correlation" stateSymmetry="1" stateNumber="1"
      value="-0.179947608364466"/><!--

 !RHF-RCISD energy                    -13.301492013872
    --><property name="energy" method="RHF-RCISD" principal="true" stateSymmetry="1"
      stateNumber="1" value="-13.3014920138717"/><!--

 Program statistics:

 Available memory in ccsd:               511997796
 Min. memory needed in ccsd:                178585
 Max. memory used in ccsd:                  217447
 Max. memory used in cckext:                204275 ( 6 integral passes)
 Max. memory used in cckint:                106043 ( 1 integral passes)



 **********************************************************************************************************************************
 DATASETS  * FILE   NREC   LENGTH (MB)   RECORD NAMES
              1      19       20.04       500      610      700      900      950      970     1019      129      960     1100
                                          VAR    BASINP    GEOM    SYMINP    ZMAT    AOBASIS   BASIS     P2S    ABASIS      S
                                         1400     1410     1420     1200     1210     1080     1600     1650     1700
                                           T        V       ECP      H0       H01     AOSYM     SMH    MOLCAS    OPER

              2      43       53.31       200      700     1000      520     2100     1001     2101     1002     2102     1003
                                        OPTIONS   GEOM     BASIS   MCVARS     RHF     BASIS     RHF     BASIS     RHF     BASIS
                                         2103     1004     2104     1005     2105     1006     2106     1007     2107     1008
                                          RHF     BASIS     RHF     BASIS     RHF     BASIS     RHF     BASIS     RHF     BASIS
                                         2108     1009     2109     1010     2110     1011     2111     1012     2112     1013
                                          RHF     BASIS     RHF     BASIS     RHF     BASIS     RHF     BASIS     RHF     BASIS
                                         2113     1014     2114     1015     2115     1016     2116     1017     2117     1018
                                          RHF     BASIS     RHF     BASIS     RHF     BASIS     RHF     BASIS     RHF     BASIS
                                         2118     1019     2119
                                          RHF     BASIS     RHF

 PROGRAMS   *        TOTAL     RCISD        HF       INT     RCISD        HF       INT     RCISD        HF       INT     RCISD
 CPU TIMES  *       145.71      1.69      2.17      3.91      1.36      0.23      2.81      1.94      2.15      3.39      1.34
 REAL TIME  *       193.50 SEC
 DISK USED  *       323.06 MB
 SF USED    *         3.20 MB
 GA USED    *         0.00 MB       (max)       0.00 MB       (current)
 **********************************************************************************************************************************
    -->
    <time start="10:08:56" end="10:08:58" cpu="1.74" system="0.14" real="2.44"/>
    <storage units="megabyte" memory="4097.84" sf="3.2" df="234.5" eaf="88.56" ga="0.0"/>
   </jobstep><!--
 SETTING EVAL           =       -13.30149201  AU


 Calculating numerical derivatives: backward displacement for variable10 of 13


 Running procedure=OPT_BASIS
 SETTING N              =         5.00000000

 DO I                   =         1.00000000
 SETTING SEXP(1)        =         0.10762500
 SETTING PEXP(1)        =         0.07288700
 SETTING DEXP(1)        =         0.15515000
 SETTING FEXP(1)        =         0.21890300
 SETTING GEXP(1)        =         0.36958800
 SETTING HEXP(1)        =         0.62457200
 SETTING IEXP(1)        =         1.01693600

 DO I                   =         2.00000000
 SETTING SEXP(2)        =         0.23491513
 SETTING PEXP(2)        =         0.15156866
 SETTING DEXP(2)        =         0.30559849
 SETTING FEXP(2)        =         0.38652359
 SETTING GEXP(2)        =         0.70920687
 SETTING HEXP(2)        =         1.29817852
 SETTING IEXP(2)        =         2.03387200

 DO I                   =         3.00000000
 SETTING SEXP(3)        =         0.51275372
 SETTING PEXP(3)        =         0.31518734
 SETTING DEXP(3)        =         0.60193643
 SETTING FEXP(3)        =         0.68249631
 SETTING GEXP(3)        =         1.36090562
 SETTING HEXP(3)        =         2.69827574
 SETTING IEXP(3)        =         4.06774400

 DO I                   =         4.00000000
 SETTING SEXP(4)        =         1.11919729
 SETTING PEXP(4)        =         0.65543270
 SETTING DEXP(4)        =         1.18563238
 SETTING FEXP(4)        =         1.20510420
 SETTING GEXP(4)        =         2.61145822
 SETTING HEXP(4)        =         5.60839042
 SETTING IEXP(4)        =         8.13548800

 DO I                   =         5.00000000
 SETTING SEXP(5)        =         2.44289320
 SETTING PEXP(5)        =         1.36297360
 SETTING DEXP(5)        =         2.33533654
 SETTING FEXP(5)        =         2.12788864
 SETTING GEXP(5)        =         5.01115868
 SETTING HEXP(5)        =        11.65708996
 SETTING IEXP(5)        =        16.27097600
 SETTING BASIS          =    USERDEF
   --><jobstep command="HF-SCF" commandset="SCFPRO">
    <!--


 Current variables in basis input:

 Set= 1  SEXP(1)             =       0.10762500
 Set= 1  SEXP(2)             =       0.23491513
 Set= 1  SEXP(3)             =       0.51275372
 Set= 1  SEXP(4)             =       1.11919729
 Set= 1  SEXP(5)             =       2.44289320
 Set= 1  PEXP(1)             =       0.07288700
 Set= 1  PEXP(2)             =       0.15156866
 Set= 1  PEXP(3)             =       0.31518734
 Set= 1  PEXP(4)             =       0.65543270
 Set= 1  PEXP(5)             =       1.36297360
 Set= 1  DEXP(1)             =       0.15515000
 Set= 1  DEXP(2)             =       0.30559849
 Set= 1  DEXP(3)             =       0.60193643
 Set= 1  DEXP(4)             =       1.18563238
 Set= 1  DEXP(5)             =       2.33533654
 Set= 1  FEXP(1)             =       0.21890300
 Set= 1  FEXP(2)             =       0.38652359
 Set= 1  FEXP(3)             =       0.68249631
 Set= 1  FEXP(4)             =       1.20510420
 Set= 1  GEXP(1)             =       0.36958800
 Set= 1  GEXP(2)             =       0.70920687
 Set= 1  GEXP(3)             =       1.36090562
 Set= 1  HEXP(1)             =       0.62457200
 Set= 1  HEXP(2)             =       1.29817852
 Set= 1  IEXP(1)             =       1.01693600

 Recomputing integrals since basis changed


 Using spherical harmonics



 PROGRAM * SEWARD (Integral evaluation for generally contracted gaussian basis sets)     Author: Roland Lindh, 1990

 Geometry written to block  1 of record 700

 Orientation using atomic masses
 Molecule type: Atom
 Symmetry elements: X,Y,Z
 Rotational constants:       0.0000000      0.0000000      0.0000000 GHz  (calculated with average atomic masses)

 Point group  D2h



 ATOMIC COORDINATES

 NR  ATOM    CHARGE       X              Y              Z

   1  BR      7.00    0.000000000    0.000000000    0.000000000

 NUCLEAR CHARGE:                    7
 NUMBER OF PRIMITIVE AOS:         241
 NUMBER OF SYMMETRY AOS:          171
 NUMBER OF CONTRACTIONS:          139   (  29Ag  +  20B3u +  20B2u +  14B1g +  20B1u +  14B2g +  14B3g +   8Au  )
 NUMBER OF CORE ORBITALS:           0   (   0Ag  +   0B3u +   0B2u +   0B1g +   0B1u +   0B2g +   0B3g +   0Au  )
 NUMBER OF VALENCE ORBITALS:        4   (   1Ag  +   1B3u +   1B2u +   0B1g +   1B1u +   0B2g +   0B3g +   0Au  )


 NUCLEAR REPULSION ENERGY    0.00000000

 EXTRA SYMMETRY OF AOS IN SYMMETRY 1:   1 1 1 1 1 1 2 3 2 3   2 3 2 3 2 3 4 5 6 4   5 6 4 5 6 7 8 910
 EXTRA SYMMETRY OF AOS IN SYMMETRY 2:   1 1 1 1 1 1 2 3 2 3   2 3 2 3 4 5 6 4 5 6
 EXTRA SYMMETRY OF AOS IN SYMMETRY 3:   1 1 1 1 1 1 2 3 2 3   2 3 2 3 4 5 6 4 5 6
 EXTRA SYMMETRY OF AOS IN SYMMETRY 4:   1 1 1 1 1 2 3 2 3 2   3 4 5 6
 EXTRA SYMMETRY OF AOS IN SYMMETRY 5:   1 1 1 1 1 1 2 3 2 3   2 3 2 3 4 5 6 4 5 6
 EXTRA SYMMETRY OF AOS IN SYMMETRY 6:   1 1 1 1 1 2 3 2 3 2   3 4 5 6
 EXTRA SYMMETRY OF AOS IN SYMMETRY 7:   1 1 1 1 1 2 3 2 3 2   3 4 5 6
 EXTRA SYMMETRY OF AOS IN SYMMETRY 8:   1 1 1 1 2 3 2 3

 Eigenvalues of metric

         1 0.486E-03 0.417E-02 0.115E-01 0.115E-01 0.355E-01 0.819E-01 0.819E-01 0.930E-01
         2 0.548E-03 0.833E-02 0.157E-01 0.157E-01 0.622E-01 0.162E+00 0.162E+00 0.347E+00
         3 0.548E-03 0.833E-02 0.157E-01 0.157E-01 0.622E-01 0.162E+00 0.162E+00 0.347E+00
         4 0.115E-01 0.819E-01 0.930E-01 0.930E-01 0.395E+00 0.665E+00 0.665E+00 0.100E+01
         5 0.548E-03 0.833E-02 0.157E-01 0.157E-01 0.622E-01 0.162E+00 0.162E+00 0.347E+00
         6 0.115E-01 0.819E-01 0.930E-01 0.930E-01 0.395E+00 0.665E+00 0.665E+00 0.100E+01
         7 0.115E-01 0.819E-01 0.930E-01 0.930E-01 0.395E+00 0.665E+00 0.665E+00 0.100E+01
         8 0.157E-01 0.162E+00 0.347E+00 0.347E+00 0.919E+00 0.165E+01 0.165E+01 0.290E+01


 Contracted 2-electron integrals neglected if value below      1.0D-12
 AO integral compression algorithm  1   Integral accuracy      1.0D-12

     44.564 MB (compressed) written to integral file ( 59.5%)

     Node minimum: 12.059 MB, node maximum: 17.564 MB


 NUMBER OF SORTED TWO-ELECTRON INTEGRALS:    2032684.     BUFFER LENGTH:  32768
 NUMBER OF SEGMENTS:   1  SEGMENT LENGTH:    2032684      RECORD LENGTH: 524288

 Memory used in sort:       2.59 MW

 SORT1 READ     9405658. AND WROTE     1351503. INTEGRALS IN      4 RECORDS. CPU TIME:     0.63 SEC, REAL TIME:     1.15 SEC
 SORT2 READ     4069250. AND WROTE     6117204. INTEGRALS IN    171 RECORDS. CPU TIME:     0.14 SEC, REAL TIME:     6.96 SEC

 Node minimum:     2032684.  Node maximum:     2051364. integrals

 OPERATOR DM      FOR CENTER  0  COORDINATES:    0.000000    0.000000    0.000000


 **********************************************************************************************************************************
 DATASETS  * FILE   NREC   LENGTH (MB)   RECORD NAMES
              1      19       20.04       500      610      700      900      950      970     1020      129      960     1100
                                          VAR    BASINP    GEOM    SYMINP    ZMAT    AOBASIS   BASIS     P2S    ABASIS      S
                                         1400     1410     1420     1200     1210     1080     1600     1650     1700
                                           T        V       ECP      H0       H01     AOSYM     SMH    MOLCAS    OPER

              2      44       53.38       200      700     1000      520     2100     1001     2101     1002     2102     1003
                                        OPTIONS   GEOM     BASIS   MCVARS     RHF     BASIS     RHF     BASIS     RHF     BASIS
                                         2103     1004     2104     1005     2105     1006     2106     1007     2107     1008
                                          RHF     BASIS     RHF     BASIS     RHF     BASIS     RHF     BASIS     RHF     BASIS
                                         2108     1009     2109     1010     2110     1011     2111     1012     2112     1013
                                          RHF     BASIS     RHF     BASIS     RHF     BASIS     RHF     BASIS     RHF     BASIS
                                         2113     1014     2114     1015     2115     1016     2116     1017     2117     1018
                                          RHF     BASIS     RHF     BASIS     RHF     BASIS     RHF     BASIS     RHF     BASIS
                                         2118     1019     2119     1020
                                          RHF     BASIS     RHF     BASIS

 PROGRAMS   *        TOTAL       INT     RCISD        HF       INT     RCISD        HF       INT     RCISD        HF       INT
 CPU TIMES  *       149.57      3.75      1.69      2.17      3.91      1.36      0.23      2.81      1.94      2.15      3.39
 REAL TIME  *       205.07 SEC
 DISK USED  *       323.06 MB
 SF USED    *         3.20 MB
 GA USED    *         0.00 MB       (max)       0.00 MB       (current)
 **********************************************************************************************************************************


 PROGRAM * RHF-SCF (OPEN SHELL)       Authors: W. Meyer, H.-J. Werner


 NUMBER OF ELECTRONS:       4+    3-    SPACE SYMMETRY=5    SPIN SYMMETRY: Doublet
 CONVERGENCE THRESHOLDS:    1.00E-05 (Density)    1.00E-07 (Energy)
 MAX. NUMBER OF ITERATIONS:       60
 INTERPOLATION TYPE:            DIIS
 INTERPOLATION STEPS:              2 (START)      1 (STEP)
 LEVEL SHIFTS:                 -0.60 (CLOSED) -0.30 (OPEN)

 Number of closed-shell orbitals:    3 (   1   1   1   0   0   0   0   0 )
 Number of open-shell orbitals:      1 (   0   0   0   0   1   0   0   0 )


 Molecular orbitals read from record     2100.2  Type=RHF/CANONICAL (state 1.5)
 Present occupation:       1   1   1   0   1   0   0   0
 Present closed-shells:    1   1   1   0   0   0   0   0
 Wavefunction symmetry:    5   Doublet

 Orbital overlap <old|new>:  < 1.1| 1.1> = 1.000000   < 1.2| 1.2> = 1.000000   < 1.3| 1.3> = 1.000000   < 1.5| 1.5> = 1.000000

 Molecular orbital dump at record        2120.2

 ITERATION    DDIFF          GRAD             ENERGY        2-EL.EN.            DIPOLE MOMENTS         DIIS   ORB.
    1      0.000D+00      0.000D+00       -13.12154441     17.571938    0.00000    0.00000    0.00000    0    start
    2      0.000D+00      0.465D-06       -13.12154441     17.571944    0.00000    0.00000    0.00000    0    orth

 Final alpha occupancy:   1   1   1   0   1   0   0   0
 Final beta  occupancy:   1   1   1   0   0   0   0   0

 !RHF STATE 1.5 Energy                -13.121544405508
    --><property name="Energy" method="RHF" principal="true" stateSymmetry="5" stateNumber="1"
      value="-13.1215444055082"/><!--
 Nuclear energy                         0.00000000
 One-electron energy                  -21.90751663
 Two-electron energy                    8.78597222
 Virial quotient                       -2.85075956
 !RHF STATE 1.5 Dipole moment           0.00000000     0.00000000     0.00000000
 Dipole moment /Debye                   0.00000000     0.00000000     0.00000000
    --><property name="Dipole moment" method="RHF" principal="true" stateSymmetry="5"
      stateNumber="1" value="0.0 0.0 0.0"/><!--

 Orbital energies:

         1.1          2.1          3.1
     -1.019438     0.238094     0.308976

         1.2          2.2          3.2
     -0.444796     0.194278     0.719836

         1.3          2.3          3.3
     -0.444796     0.194278     0.719836

         1.4          2.4
      0.336425     0.935370

         1.5          2.5          3.5
     -0.517516     0.180767     0.715958

         1.6          2.6
      0.316468     0.905732

         1.7          2.7
      0.316468     0.905732

         1.8          2.8
      0.729056     1.690859

 HOMO      1.2    -0.444796 =     -12.1035eV
 LUMO      2.5     0.180767 =       4.9189eV
 LUMO-HOMO         0.625563 =      17.0224eV


 **********************************************************************************************************************************
 DATASETS  * FILE   NREC   LENGTH (MB)   RECORD NAMES
              1      19       20.04       500      610      700      900      950      970     1020      129      960     1100
                                          VAR    BASINP    GEOM    SYMINP    ZMAT    AOBASIS   BASIS     P2S    ABASIS      S
                                         1400     1410     1420     1200     1210     1080     1600     1650     1700
                                           T        V       ECP      H0       H01     AOSYM     SMH    MOLCAS    OPER

              2      45       55.95       200      700     1000      520     2100     1001     2101     1002     2102     1003
                                        OPTIONS   GEOM     BASIS   MCVARS     RHF     BASIS     RHF     BASIS     RHF     BASIS
                                         2103     1004     2104     1005     2105     1006     2106     1007     2107     1008
                                          RHF     BASIS     RHF     BASIS     RHF     BASIS     RHF     BASIS     RHF     BASIS
                                         2108     1009     2109     1010     2110     1011     2111     1012     2112     1013
                                          RHF     BASIS     RHF     BASIS     RHF     BASIS     RHF     BASIS     RHF     BASIS
                                         2113     1014     2114     1015     2115     1016     2116     1017     2117     1018
                                          RHF     BASIS     RHF     BASIS     RHF     BASIS     RHF     BASIS     RHF     BASIS
                                         2118     1019     2119     1020     2120
                                          RHF     BASIS     RHF     BASIS     RHF

 PROGRAMS   *        TOTAL        HF       INT     RCISD        HF       INT     RCISD        HF       INT     RCISD        HF
 CPU TIMES  *       150.65      1.08      3.75      1.69      2.17      3.91      1.36      0.23      2.81      1.94      2.15
 REAL TIME  *       206.29 SEC
 DISK USED  *       323.06 MB
 SF USED    *         3.20 MB
 GA USED    *         0.00 MB       (max)       0.00 MB       (current)
 **********************************************************************************************************************************
    -->
    <time start="10:08:58" end="10:09:11" cpu="4.94" system="0.4" real="12.79"/>
    <storage units="megabyte" memory="4097.84" sf="3.2" df="234.5" eaf="88.56" ga="0.0"/>
   </jobstep><!--
 SETTING _CC_NORM_MAX   =         2.00000000
   --><jobstep command="RCISD" commandset="CCSD">
    <!--


 Current variables in basis input:

 Set= 1  SEXP(1)             =       0.10762500
 Set= 1  SEXP(2)             =       0.23491513
 Set= 1  SEXP(3)             =       0.51275372
 Set= 1  SEXP(4)             =       1.11919729
 Set= 1  SEXP(5)             =       2.44289320
 Set= 1  PEXP(1)             =       0.07288700
 Set= 1  PEXP(2)             =       0.15156866
 Set= 1  PEXP(3)             =       0.31518734
 Set= 1  PEXP(4)             =       0.65543270
 Set= 1  PEXP(5)             =       1.36297360
 Set= 1  DEXP(1)             =       0.15515000
 Set= 1  DEXP(2)             =       0.30559849
 Set= 1  DEXP(3)             =       0.60193643
 Set= 1  DEXP(4)             =       1.18563238
 Set= 1  DEXP(5)             =       2.33533654
 Set= 1  FEXP(1)             =       0.21890300
 Set= 1  FEXP(2)             =       0.38652359
 Set= 1  FEXP(3)             =       0.68249631
 Set= 1  FEXP(4)             =       1.20510420
 Set= 1  GEXP(1)             =       0.36958800
 Set= 1  GEXP(2)             =       0.70920687
 Set= 1  GEXP(3)             =       1.36090562
 Set= 1  HEXP(1)             =       0.62457200
 Set= 1  HEXP(2)             =       1.29817852
 Set= 1  IEXP(1)             =       1.01693600

 PROGRAM * CISD (Restricted open-shell CI(SD))     Authors: C. Hampel, H.-J. Werner, 1991, M. Deegan, P.J. Knowles, 1992


 Convergence thresholds:  THRVAR = 1.00D-08  THRDEN = 1.00D-06

 Number of closed-shell orbitals:   3 (   1   1   1   0   0   0   0   0 )
 Number of active  orbitals:        1 (   0   0   0   0   1   0   0   0 )
 Number of external orbitals:     135 (  28  19  19  14  19  14  14   8 )

 Number of N-1 electron functions:               7
 Number of N-2 electron functions:              21
 Number of singly external CSFs:               152
 Number of doubly external CSFs:             38940
 Total number of CSFs:                       39092

 Molecular orbitals read from record     2120.2  Type=RHF/CANONICAL (state 1.5)

 Integral transformation finished. Total CPU:   0.04 sec, npass=  1  Memory used:   0.11 MW

 Starting RMP2 calculation
