
 Primary working directories    : /global/cscratch1/sd/aannabe
 Secondary working directories  : /global/cscratch1/sd/aannabe
 Wavefunction directory         : /global/homes/a/aannabe/wfu/
 Main file repository           : /global/cscratch1/sd/aannabe/

 SHA1      : 19cd028119e0e09f93f0674bd8af7968d9b3eff6
 NAME      : 2015.1.36
 ARCHNAME  : linux/x86_64
 FC        : /opt/cray/pe/craype/2.5.14/bin/ftn
 BLASLIB   : -L/opt/intel/compilers_and_libraries_2018.1.163/linux/mkl/lib/intel64 -Wl,-_start-group -lmkl_intel_ilp64 -lmkl_intel_thread -lmkl_core -Wl,-_end-group -liomp5
 id        : lbl

 Nodes     nprocs
 nid00471     1

 Using customized tuning parameters: mindgm=7; mindgv=16; mindgc=1; mindgr=1; noblas=0; minvec=7
 default implementation of scratch files=df  

 ***,Al
 memory,512,m
 gthresh,twoint=1.e-12
 
 gprint,basis,orbitals
 gexpec,ekin,pot
 
 angstrom
 geometry={
 1                                                                               ! Number of atoms
 Al 0.0 0.0 0.0
 }
 
 basis={
 Including file /global/homes/a/aannabe/repos/pseudopotentiallibrary/recipes/Al/ccECP_He_core/Al.ccECP.molpro
 Including file /global/homes/a/aannabe/repos/pseudopotentiallibrary/recipes/Al/ccECP_He_core/cc-pCVQZ.molpro
 }
 
 {hf
  wf,11,2,1
  occ,2,2,1,0,1,0,0,0
  closed,2,1,1,0,1,0,0,0
                                                                                 !open,2.2
 }
 scf(i)=energy
 
 _CC_NORM_MAX=2.0
 {ci
 maxit,100
 core
 }
 posthf(i)=energy
 
 table,scf,posthf,ekin,pot
 save,4.csv,new
 
 

 Variables initialized (889), CPU time= 0.00 sec
 Commands  initialized (702), CPU time= 0.01 sec, 572 directives.
 Default parameters read. Elapsed time= 0.20 sec

 Checking input...
 Passed
1


                                         ***  PROGRAM SYSTEM MOLPRO  ***
                                       Copyright, TTI GmbH Stuttgart, 2015
                                    Version 2015.1 linked Dec 29 2018 15:55:43


 **********************************************************************************************************************************
 LABEL *   Al                                                                            
  64 bit serial version                                                                  DATE: 03-Jan-19          TIME: 16:16:39  
 **********************************************************************************************************************************

 SHA1:             19cd028119e0e09f93f0674bd8af7968d9b3eff6
 **********************************************************************************************************************************

 THRESHOLDS:

 ZERO    =  1.00D-12  ONEINT  =  1.00D-12  TWOINT  =  1.00D-12  PREFAC  =  1.00D-14  LOCALI  =  1.00D-09  EORDER  =  1.00D-04
 ENERGY  =  0.00D+00  ETEST   =  0.00D+00  EDENS   =  0.00D+00  THRDEDEF=  1.00D-06  GRADIENT=  1.00D-02  STEP    =  1.00D-03
 ORBITAL =  1.00D-05  CIVEC   =  1.00D-05  COEFF   =  1.00D-04  PRINTCI =  5.00D-02  PUNCHCI =  9.90D+01  OPTGRAD =  3.00D-04
 OPTENERG=  1.00D-06  OPTSTEP =  3.00D-04  THRGRAD =  1.00D-10  COMPRESS=  1.00D-11  VARMIN  =  1.00D-07  VARMAX  =  1.00D-03
 THRDOUB =  0.00D+00  THRDIV  =  1.00D-05  THRRED  =  1.00D-07  THRPSP  =  1.00D+00  THRDC   =  1.00D-10  THRCS   =  1.00D-10
 THRNRM  =  1.00D-08  THREQ   =  0.00D+00  THRDE   =  1.00D+00  THRREF  =  1.00D-05  SPARFAC =  1.00D+00  THRDLP  =  1.00D-07
 THRDIA  =  1.00D-10  THRDLS  =  1.00D-07  THRGPS  =  0.00D+00  THRKEX  =  0.00D+00  THRDIS  =  2.00D-01  THRVAR  =  1.00D-10
 THRLOC  =  1.00D-06  THRGAP  =  1.00D-06  THRLOCT = -1.00D+00  THRGAPT = -1.00D+00  THRORB  =  1.00D-06  THRMLTP =  0.00D+00
 THRCPQCI=  1.00D-10  KEXTA   =  0.00D+00  THRCOARS=  0.00D+00  SYMTOL  =  1.00D-06  GRADTOL =  1.00D-06  THROVL  =  1.00D-08
 THRORTH =  1.00D-08  GRID    =  1.00D-06  GRIDMAX =  1.00D-03  DTMAX   =  0.00D+00  THROCCDE=  1.00D-01  THROCCDE=  1.00D-01



 ZUNIT=ANG
 

Geometry recognized as XYZ


 Variable memory set to  512000000 words,  buffer space   230000 words

 SETTING BASIS          =    USERDEF


 Recomputing integrals since basis changed


 Using spherical harmonics



 PROGRAM * SEWARD (Integral evaluation for generally contracted gaussian basis sets)     Author: Roland Lindh, 1990

 Geometry written to block  1 of record 700

 Orientation using atomic masses  
 Molecule type: Atom
 Symmetry elements: X,Y,Z
 Rotational constants:       0.0000000      0.0000000      0.0000000 GHz  (calculated with average atomic masses)

 Point group  D2h 



 ATOMIC COORDINATES

 NR  ATOM    CHARGE       X              Y              Z

   1  AL      3.00    0.000000000    0.000000000    0.000000000


          AL  CORE POTENTIAL

          d POTENTIAL

 POWERS             1              3              2              1              1
 EXPONENTIALS   11.06206       12.36978       11.96544       0.000000       0.000000    
 COEFFICIENTS   11.00000       121.6826      -82.62457       3.000000      -11.00000    

          s - d POTENTIAL

 POWERS             2              2
 EXPONENTIALS   81.81556       24.52288    
 COEFFICIENTS   25.15726       113.0675    

          p - d POTENTIAL

 POWERS             2
 EXPONENTIALS   1.000000    
 COEFFICIENTS   0.000000    


 BASIS DATA

   Nr Sym  Nuc  Type         Exponents   Contraction coefficients

    1.1 Ag    1  1s          78.990577    -0.000481    0.000024
    2.1 Ag                   39.484884     0.013095   -0.002627
                             19.737241    -0.146153    0.036948
                              9.866021    -0.045206    0.010705
                              4.931711     0.190708   -0.053342
                              2.465206     0.453207   -0.144188
                              1.232278     0.398824   -0.213969
                              0.615977     0.103648   -0.125585
                              0.307907     0.002247    0.193970
                              0.153913     0.000790    0.484674
                              0.076936    -0.000140    0.419414
                              0.038458     0.000064    0.110430
    3.1 Ag    1  1s           9.468971     1.000000
    4.1 Ag    1  1s           3.846673     1.000000
    5.1 Ag    1  1s           1.562672     1.000000
    6.1 Ag    1  1s           0.355123     1.000000
    7.1 Ag    1  1s           0.145459     1.000000
    8.1 Ag    1  1s           0.059580     1.000000
    9.1 Ag    1  3d0         13.918016     1.000000
   10.1 Ag    1  3d2+        13.918016     1.000000
   11.1 Ag    1  3d0          5.352663     1.000000
   12.1 Ag    1  3d2+         5.352663     1.000000
   13.1 Ag    1  3d0          2.058555     1.000000
   14.1 Ag    1  3d2+         2.058555     1.000000
   15.1 Ag    1  3d0          0.474317     1.000000
   16.1 Ag    1  3d2+         0.474317     1.000000
   17.1 Ag    1  3d0          0.194600     1.000000
   18.1 Ag    1  3d2+         0.194600     1.000000
   19.1 Ag    1  3d0          0.079839     1.000000
   20.1 Ag    1  3d2+         0.079839     1.000000
   21.1 Ag    1  5g0          7.028863     1.000000
   22.1 Ag    1  5g4+         7.028863     1.000000
   23.1 Ag    1  5g2+         7.028863     1.000000
   24.1 Ag    1  5g0          0.352315     1.000000
   25.1 Ag    1  5g4+         0.352315     1.000000
   26.1 Ag    1  5g2+         0.352315     1.000000
    1.2 B3u   1  2px         33.993368     0.011908   -0.002183
    2.2 B3u                  17.617051     0.097485   -0.017362
                              9.130030     0.180474   -0.032292
                              4.731635     0.265522   -0.049810
                              2.452168     0.307977   -0.059926
                              1.270835     0.235061   -0.052553
                              0.658610     0.089631    0.001989
                              0.341324     0.011083    0.130052
                              0.176891     0.001577    0.280089
                              0.091674     0.000007    0.374339
                              0.047510     0.000215    0.272857
                              0.024622    -0.000022    0.085145
    3.2 B3u   1  2px          6.904413     1.000000
    4.2 B3u   1  2px          2.861958     1.000000
    5.2 B3u   1  2px          1.186314     1.000000
    6.2 B3u   1  2px          0.308018     1.000000
    7.2 B3u   1  2px          0.189753     1.000000
    8.2 B3u   1  2px          0.116896     1.000000
    9.2 B3u   1  4f1+        10.188212     1.000000
   10.2 B3u   1  4f3+        10.188212     1.000000
   11.2 B3u   1  4f1+         3.578661     1.000000
   12.2 B3u   1  4f3+         3.578661     1.000000
   13.2 B3u   1  4f1+         0.399394     1.000000
   14.2 B3u   1  4f3+         0.399394     1.000000
   15.2 B3u   1  4f1+         0.157978     1.000000
   16.2 B3u   1  4f3+         0.157978     1.000000
    1.3 B2u   1  2py         33.993368     0.011908   -0.002183
    2.3 B2u                  17.617051     0.097485   -0.017362
                              9.130030     0.180474   -0.032292
                              4.731635     0.265522   -0.049810
                              2.452168     0.307977   -0.059926
                              1.270835     0.235061   -0.052553
                              0.658610     0.089631    0.001989
                              0.341324     0.011083    0.130052
                              0.176891     0.001577    0.280089
                              0.091674     0.000007    0.374339
                              0.047510     0.000215    0.272857
                              0.024622    -0.000022    0.085145
    3.3 B2u   1  2py          6.904413     1.000000
    4.3 B2u   1  2py          2.861958     1.000000
    5.3 B2u   1  2py          1.186314     1.000000
    6.3 B2u   1  2py          0.308018     1.000000
    7.3 B2u   1  2py          0.189753     1.000000
    8.3 B2u   1  2py          0.116896     1.000000
    9.3 B2u   1  4f1-        10.188212     1.000000
   10.3 B2u   1  4f3-        10.188212     1.000000
   11.3 B2u   1  4f1-         3.578661     1.000000
   12.3 B2u   1  4f3-         3.578661     1.000000
   13.3 B2u   1  4f1-         0.399394     1.000000
   14.3 B2u   1  4f3-         0.399394     1.000000
   15.3 B2u   1  4f1-         0.157978     1.000000
   16.3 B2u   1  4f3-         0.157978     1.000000
    1.4 B1g   1  3d2-        13.918016     1.000000
    2.4 B1g   1  3d2-         5.352663     1.000000
    3.4 B1g   1  3d2-         2.058555     1.000000
    4.4 B1g   1  3d2-         0.474317     1.000000
    5.4 B1g   1  3d2-         0.194600     1.000000
    6.4 B1g   1  3d2-         0.079839     1.000000
    7.4 B1g   1  5g2-         7.028863     1.000000
    8.4 B1g   1  5g4-         7.028863     1.000000
    9.4 B1g   1  5g2-         0.352315     1.000000
   10.4 B1g   1  5g4-         0.352315     1.000000
    1.5 B1u   1  2pz         33.993368     0.011908   -0.002183
    2.5 B1u                  17.617051     0.097485   -0.017362
                              9.130030     0.180474   -0.032292
                              4.731635     0.265522   -0.049810
                              2.452168     0.307977   -0.059926
                              1.270835     0.235061   -0.052553
                              0.658610     0.089631    0.001989
                              0.341324     0.011083    0.130052
                              0.176891     0.001577    0.280089
                              0.091674     0.000007    0.374339
                              0.047510     0.000215    0.272857
                              0.024622    -0.000022    0.085145
    3.5 B1u   1  2pz          6.904413     1.000000
    4.5 B1u   1  2pz          2.861958     1.000000
    5.5 B1u   1  2pz          1.186314     1.000000
    6.5 B1u   1  2pz          0.308018     1.000000
    7.5 B1u   1  2pz          0.189753     1.000000
    8.5 B1u   1  2pz          0.116896     1.000000
    9.5 B1u   1  4f0         10.188212     1.000000
   10.5 B1u   1  4f2+        10.188212     1.000000
   11.5 B1u   1  4f0          3.578661     1.000000
   12.5 B1u   1  4f2+         3.578661     1.000000
   13.5 B1u   1  4f0          0.399394     1.000000
   14.5 B1u   1  4f2+         0.399394     1.000000
   15.5 B1u   1  4f0          0.157978     1.000000
   16.5 B1u   1  4f2+         0.157978     1.000000
    1.6 B2g   1  3d1+        13.918016     1.000000
    2.6 B2g   1  3d1+         5.352663     1.000000
    3.6 B2g   1  3d1+         2.058555     1.000000
    4.6 B2g   1  3d1+         0.474317     1.000000
    5.6 B2g   1  3d1+         0.194600     1.000000
    6.6 B2g   1  3d1+         0.079839     1.000000
    7.6 B2g   1  5g1+         7.028863     1.000000
    8.6 B2g   1  5g3+         7.028863     1.000000
    9.6 B2g   1  5g1+         0.352315     1.000000
   10.6 B2g   1  5g3+         0.352315     1.000000
    1.7 B3g   1  3d1-        13.918016     1.000000
    2.7 B3g   1  3d1-         5.352663     1.000000
    3.7 B3g   1  3d1-         2.058555     1.000000
    4.7 B3g   1  3d1-         0.474317     1.000000
    5.7 B3g   1  3d1-         0.194600     1.000000
    6.7 B3g   1  3d1-         0.079839     1.000000
    7.7 B3g   1  5g1-         7.028863     1.000000
    8.7 B3g   1  5g3-         7.028863     1.000000
    9.7 B3g   1  5g1-         0.352315     1.000000
   10.7 B3g   1  5g3-         0.352315     1.000000
    1.8 Au    1  4f2-        10.188212     1.000000
    2.8 Au    1  4f2-         3.578661     1.000000
    3.8 Au    1  4f2-         0.399394     1.000000
    4.8 Au    1  4f2-         0.157978     1.000000

 NUCLEAR CHARGE:                    3
 NUMBER OF PRIMITIVE AOS:         178
 NUMBER OF SYMMETRY AOS:          148
 NUMBER OF CONTRACTIONS:          108   (  26Ag  +  16B3u +  16B2u +  10B1g +  16B1u +  10B2g +  10B3g +   4Au  )
 NUMBER OF CORE ORBITALS:           0   (   0Ag  +   0B3u +   0B2u +   0B1g +   0B1u +   0B2g +   0B3g +   0Au  )
 NUMBER OF VALENCE ORBITALS:        4   (   1Ag  +   1B3u +   1B2u +   0B1g +   1B1u +   0B2g +   0B3g +   0Au  )


 NUCLEAR REPULSION ENERGY    0.00000000

 EXTRA SYMMETRY OF AOS IN SYMMETRY 1:   1 1 1 1 1 1 1 1 2 3   2 3 2 3 2 3 2 3 2 3   4 5 6 4 5 6
 EXTRA SYMMETRY OF AOS IN SYMMETRY 2:   1 1 1 1 1 1 1 1 2 3   2 3 2 3 2 3
 EXTRA SYMMETRY OF AOS IN SYMMETRY 3:   1 1 1 1 1 1 1 1 2 3   2 3 2 3 2 3
 EXTRA SYMMETRY OF AOS IN SYMMETRY 4:   1 1 1 1 1 1 2 3 2 3
 EXTRA SYMMETRY OF AOS IN SYMMETRY 5:   1 1 1 1 1 1 1 1 2 3   2 3 2 3 2 3
 EXTRA SYMMETRY OF AOS IN SYMMETRY 6:   1 1 1 1 1 1 2 3 2 3
 EXTRA SYMMETRY OF AOS IN SYMMETRY 7:   1 1 1 1 1 1 2 3 2 3

 Eigenvalues of metric

         1 0.658E-04 0.826E-03 0.137E-01 0.383E-01 0.877E-01 0.877E-01 0.159E+00 0.159E+00
         2 0.213E-02 0.322E-02 0.273E-01 0.620E-01 0.231E+00 0.356E+00 0.356E+00 0.459E+00
         3 0.213E-02 0.322E-02 0.273E-01 0.620E-01 0.231E+00 0.356E+00 0.356E+00 0.459E+00
         4 0.877E-01 0.159E+00 0.535E+00 0.887E+00 0.991E+00 0.991E+00 0.101E+01 0.101E+01
         5 0.213E-02 0.322E-02 0.273E-01 0.620E-01 0.231E+00 0.356E+00 0.356E+00 0.459E+00
         6 0.877E-01 0.159E+00 0.535E+00 0.887E+00 0.991E+00 0.991E+00 0.101E+01 0.101E+01
         7 0.877E-01 0.159E+00 0.535E+00 0.887E+00 0.991E+00 0.991E+00 0.101E+01 0.101E+01
         8 0.356E+00 0.459E+00 0.152E+01 0.167E+01


 Contracted 2-electron integrals neglected if value below      1.0D-12
 AO integral compression algorithm  1   Integral accuracy      1.0D-12

     18.350 MB (compressed) written to integral file ( 54.8%)


 NUMBER OF SORTED TWO-ELECTRON INTEGRALS:    2285089.     BUFFER LENGTH:  32768
 NUMBER OF SEGMENTS:   1  SEGMENT LENGTH:    2285089      RECORD LENGTH: 524288

 Memory used in sort:       2.84 MW

 SORT1 READ     4189600. AND WROTE     1738785. INTEGRALS IN      5 RECORDS. CPU TIME:     0.09 SEC, REAL TIME:     0.14 SEC
 SORT2 READ     1738785. AND WROTE     2285089. INTEGRALS IN     70 RECORDS. CPU TIME:     0.12 SEC, REAL TIME:     0.22 SEC

 FILE SIZES:   FILE 1:    38.5 MBYTE,  FILE 4:    21.0 MBYTE,   TOTAL:     59.5 MBYTE

 OPERATOR DM      FOR CENTER  0  COORDINATES:    0.000000    0.000000    0.000000
 OPERATOR EKIN    FOR CENTER  0  COORDINATES:    0.000000    0.000000    0.000000
 OPERATOR POT     FOR CENTER  0  COORDINATES:    0.000000    0.000000    0.000000


 **********************************************************************************************************************************
 DATASETS  * FILE   NREC   LENGTH (MB)   RECORD NAMES
              1      20       30.11       500      610      700      900      950      970     1000      129      960     1100   
                                          VAR    BASINP    GEOM    SYMINP    ZMAT    AOBASIS   BASIS     P2S    ABASIS      S 
                                         1400     1410     1420     1200     1210     1080     1600     1650     1300     1700   
                                         EKIN       V       ECP      H0       H01     AOSYM     SMH    MOLCAS    ERIS     OPER   

 PROGRAMS   *        TOTAL       INT
 CPU TIMES  *         1.64      1.53
 REAL TIME  *        14.69 SEC
 DISK USED  *        59.82 MB      
 **********************************************************************************************************************************


 PROGRAM * RHF-SCF (OPEN SHELL)       Authors: W. Meyer, H.-J. Werner


 NUMBER OF ELECTRONS:       6+    5-    SPACE SYMMETRY=2    SPIN SYMMETRY: Doublet 
 CONVERGENCE THRESHOLDS:    1.00E-05 (Density)    1.00E-07 (Energy)
 MAX. NUMBER OF ITERATIONS:       60
 INTERPOLATION TYPE:            DIIS
 INTERPOLATION STEPS:              2 (START)      1 (STEP)
 LEVEL SHIFTS:                 -0.60 (CLOSED) -0.30 (OPEN) 

 Number of closed-shell orbitals:    5 (   2   1   1   0   1   0   0   0 )
 Number of open-shell orbitals:      1 (   0   1   0   0   0   0   0   0 )



   Atom=AL basis=ECP10MWB_GUESS    lmin=0  lmax=1

 Orbital guess generated from atomic densities. Full valence occupancy:    1   1   1   0   1   0   0   0


 Molecular orbital dump at record        2100.2

 ITERATION    DDIFF          GRAD             ENERGY        2-EL.EN.            DIPOLE MOMENTS         DIIS   ORB.
    1      0.000D+00      0.000D+00       -69.90004828    149.905504    0.00000    0.00000    0.00000    0    start
    2      0.000D+00      0.594D+00       -79.79223949     87.898183    0.00000    0.00000    0.00000    1    diag,B
    3      0.523D+01      0.194D+00       -80.91192346     99.083085    0.00000    0.00000    0.00000    2    diag,B
    4      0.301D+00      0.230D-01       -80.96281580     99.893503    0.00000    0.00000    0.00000    3    diag,B
    5      0.194D+00      0.615D-02       -80.98016063    100.292971    0.00000    0.00000    0.00000    4    diag,B
    6      0.126D+00      0.262D-02       -80.98976463    100.726901    0.00000    0.00000    0.00000    5    diag,B
    7      0.966D-01      0.136D-02       -80.99316375    101.039250    0.00000    0.00000    0.00000    6    fixocc
    8      0.522D-01      0.476D-03       -80.99336857    101.074620    0.00000    0.00000    0.00000    7    diag,B
    9      0.100D-01      0.151D-03       -80.99337827    101.063303    0.00000    0.00000    0.00000    8    diag,B
   10      0.346D-02      0.362D-04       -80.99337932    101.053415    0.00000    0.00000    0.00000    9    orth
   11      0.578D-03      0.890D-05       -80.99337935    101.051635    0.00000    0.00000    0.00000    9    diag,B
   12      0.103D-03      0.189D-05       -80.99337935    101.051814    0.00000    0.00000    0.00000    9    diag,B
   13      0.567D-05      0.849D-06       -80.99337935    101.051829    0.00000    0.00000    0.00000    0    orth

 Final alpha occupancy:   2   2   1   0   1   0   0   0
 Final beta  occupancy:   2   1   1   0   1   0   0   0

 !RHF STATE 1.2 Energy                -80.993379350476
 Nuclear energy                         0.00000000
 One-electron energy                 -131.51929408
 Two-electron energy                   50.52591473
 Virial quotient                       -1.28779756
 !RHF STATE 1.2 Dipole moment           0.00000000     0.00000000     0.00000000
 Dipole moment /Debye                   0.00000000     0.00000000     0.00000000
 

 !RHF expec          <1.2|EKIN|1.2>    62.892943558005
 
 !RHF expec           <1.2|POT|1.2>   -18.123371327749

 ELECTRON ORBITALS
 =================


   Orb  Occ    Energy  Couls-En    Coefficients

                                   1 1s      1 1s      1 1s      1 1s      1 1s      1 1s      1 1s      1 1s      1 3d0     1 3d2+ 
                                   1 3d0     1 3d2+    1 3d0     1 3d2+    1 3d0     1 3d2+    1 3d0     1 3d2+    1 3d0     1 3d2+ 
                                   1 5g0     1 5g4+    1 5g2+    1 5g0     1 5g4+    1 5g2+ 

   1.1   2    -4.9004  -20.4904  0.999975 -0.000016 -0.000005  0.000013  0.000005  0.000011  0.000005  0.000009  0.000015 -0.000026
                                -0.000025  0.000044  0.000380 -0.000659  0.000295 -0.000510 -0.000221  0.000382  0.000042 -0.000072
                                 0.000000  0.000000 -0.000000  0.000000  0.000000 -0.000000

   2.1   2    -0.3943   -5.0796  0.000767  1.002570  0.000056 -0.000122  0.000390 -0.000212 -0.001417 -0.001354  0.000002 -0.000003
                                 0.000042 -0.000074 -0.000016  0.000027 -0.000132  0.000229  0.001303 -0.002257 -0.005620  0.009733
                                 0.000000  0.000000 -0.000000 -0.000014 -0.000027  0.000020

                                   1 2px     1 2px     1 2px     1 2px     1 2px     1 2px     1 2px     1 2px     1 4f1+    1 4f3+ 
                                   1 4f1+    1 4f3+    1 4f1+    1 4f3+    1 4f1+    1 4f3+ 

   1.2   2    -3.2771  -17.8472  1.001999  0.000363 -0.000098  0.000114 -0.001760 -0.002591  0.002235 -0.001139 -0.000010  0.000012
                                 0.000224 -0.000289  0.000352 -0.000454 -0.000189  0.000243

   2.2   +    -0.2099   -3.8046  0.000661  0.999519 -0.000002 -0.000016  0.000033  0.000550 -0.000524  0.000570  0.000000 -0.000001
                                -0.000001  0.000001  0.000024 -0.000031 -0.000001  0.000002

                                   1 2py     1 2py     1 2py     1 2py     1 2py     1 2py     1 2py     1 2py     1 4f1-    1 4f3- 
                                   1 4f1-    1 4f3-    1 4f1-    1 4f3-    1 4f1-    1 4f3- 

   1.3   2    -3.2785  -17.8369  0.999013 -0.000347  0.000042 -0.000054  0.000870  0.001289 -0.001092  0.000532 -0.000003  0.000013
                                 0.000075 -0.000290  0.000119 -0.000459 -0.000064  0.000247

                                   1 2pz     1 2pz     1 2pz     1 2pz     1 2pz     1 2pz     1 2pz     1 2pz     1 4f0     1 4f2+ 
                                   1 4f0     1 4f2+    1 4f0     1 4f2+    1 4f0     1 4f2+ 

   1.5   2    -3.2785  -17.8369  0.999013 -0.000347  0.000042 -0.000054  0.000870  0.001289 -0.001092  0.000532 -0.000008  0.000010
                                 0.000183 -0.000236  0.000291 -0.000375 -0.000156  0.000201

 HOMO      2.2    -0.209871 =      -5.7109eV
 LUMO      2.3     0.014552 =       0.3960eV
 LUMO-HOMO         0.224423 =       6.1069eV


 **********************************************************************************************************************************
 DATASETS  * FILE   NREC   LENGTH (MB)   RECORD NAMES
              1      20       30.11       500      610      700      900      950      970     1000      129      960     1100   
                                          VAR    BASINP    GEOM    SYMINP    ZMAT    AOBASIS   BASIS     P2S    ABASIS      S 
                                         1400     1410     1420     1200     1210     1080     1600     1650     1300     1700   
                                         EKIN       V       ECP      H0       H01     AOSYM     SMH    MOLCAS    ERIS     OPER   

              2       4        2.81       700     1000      520     2100   
                                         GEOM     BASIS   MCVARS     RHF  

 PROGRAMS   *        TOTAL        HF       INT
 CPU TIMES  *         1.77      0.13      1.53
 REAL TIME  *        15.83 SEC
 DISK USED  *        59.82 MB      
 **********************************************************************************************************************************
 SETTING SCF(I)         =       -80.99337935  AU                              
 SETTING _CC_NORM_MAX   =         2.00000000                                  


 PROGRAM * CI (Multireference internally contracted CI)     Authors: H.-J. Werner, P.J. Knowles, 1987


 Convergence thresholds:  THRVAR = 1.00D-08  THRDEN = 1.00D-06

 Number of optimized states:  1  Roots:   1
 Number of reference states:  1  Roots:   1

 Reference symmetry:                   2   Doublet 
 Number of electrons:                 11
 Maximum number of shells:             3
 Maximum number of spin couplings:     5

 Reference space:        1 conf        1 CSFs
 N elec internal:        6 conf        6 CSFs
 N-1 el internal:       21 conf       36 CSFs
 N-2 el internal:       20 conf       70 CSFs

 Number of electrons in valence space:                     11
 Maximum number of open shell orbitals in reference space:  1
 Maximum number of open shell orbitals in internal spaces:  5


 Number of closed-shell orbitals:   5 (   2   1   1   0   1   0   0   0 )
 Number of active  orbitals:        1 (   0   1   0   0   0   0   0   0 )
 Number of external orbitals:     102 (  24  14  15  10  15  10  10   4 )

 Molecular orbitals read from record     2100.2  Type=RHF/CANONICAL (state 1.2)

 Integral transformation finished. Total CPU:   0.01 sec, npass=  1  Memory used:   0.10 MW

 Number of p-space configurations:   1

 Reference wavefunction optimized for reference space (refopt=1)

 State     Reference Energy 
   1         -80.99337935

 Number of blocks in overlap matrix:    35   Smallest eigenvalue:  0.10D+01
 Number of N-2 electron functions:      35
 Number of N-1 electron functions:      36

 Number of internal configurations:                    2
 Number of singly external configurations:           540
 Number of doubly external configurations:         24226
 Total number of contracted configurations:        24768
 Total number of uncontracted configurations:      48473

 Diagonal Coupling coefficients finished.               Storage:    2837 words, CPU-Time:      0.00 seconds.
 Energy denominators for pairs finished in 1 passes.    Storage:   20896 words, CPU-time:      0.00 seconds.

  ITER. STATE  ROOT     SQ.NORM     CORR.ENERGY   TOTAL ENERGY   ENERGY CHANGE       DEN1      VAR(S)    VAR(P)      TIME
    1     1     1     1.00000000     0.00000000   -80.99337935    -0.00000000    -0.36664777  0.11D-01  0.56D-01     0.04
    2     1     1     1.05785844    -0.34132988   -81.33470923    -0.34132988    -0.00385680  0.86D-03  0.86D-03     0.09
    3     1     1     1.04944055    -0.34518318   -81.33856253    -0.00385330    -0.00007646  0.65D-05  0.21D-04     0.14
    4     1     1     1.04971154    -0.34527146   -81.33865081    -0.00008828    -0.00000245  0.65D-06  0.65D-06     0.17
    5     1     1     1.04989300    -0.34527427   -81.33865362    -0.00000281    -0.00000010  0.74D-08  0.37D-07     0.21
    6     1     1     1.04992074    -0.34527439   -81.33865374    -0.00000012    -0.00000000  0.28D-09  0.11D-08     0.26


 =====================================
 Analysis of CPU times by interactions
 =====================================

       I      S      P

 I   3.8%
 S   0.0%   3.8%
 P   0.0%   0.0%  15.4%

 Initialization:  11.5%
 Other:           65.4%

 Total CPU:        0.3 seconds
 =====================================



 Reference coefficients greater than 0.0500000
 =============================================
 222/22           0.9759358

 Coefficients of doubly external configurations greater than 0.0500000
 =====================================================================

 PAIR    I     J   ->   K     L     NP  SYM  REF     COEFFICIENTS

   4    2.1   2.1      2.3   2.3     1   1    1   -0.05018642
   4    2.1   2.1      2.5   2.5     1   1    1   -0.05018642



 RESULTS FOR STATE 1.2
 =====================

 Coefficient of reference function:   C(0) = 0.97593582 (fixed)   0.97593582 (relaxed)

 Energy contributions of configuration classes

 CLASS          SQ.NORM        ECORR1        ECORR2
 +++++++++++++++++++++++++++++++++++++++++++++++++++
 Internals    0.00000223    0.00000000   -0.00000073
 Singles      0.00632617   -0.00822103   -0.00991061
 Pairs        0.04359468   -0.33705336   -0.33536305
 Total        1.04992308   -0.34527439   -0.34527439
 +++++++++++++++++++++++++++++++++++++++++++++++++++


 Reference energy                     -80.99337935
 Nuclear energy                         0.00000000
 Kinetic energy                        63.14126507
 One electron energy                 -131.29579981
 Two electron energy                   49.95714607
 Virial quotient                       -1.28820120
 Correlation energy                    -0.34527439
 !CI(SD) STATE 1.2 Energy             -81.338653739090

 Properties without orbital relaxation:

 !CI(SD) STATE 1.2 Dipole moment        0.00000000     0.00000000     0.00000000
 Dipole moment /Debye                   0.00000000     0.00000000     0.00000000

 Cluster corrected energies           -81.35589090 (Davidson, fixed reference)
 Cluster corrected energies           -81.35589090 (Davidson, relaxed reference)

 Cluster corrected energies           -81.35286326 (Pople, fixed reference)
 Cluster corrected energies           -81.35286326 (Pople, relaxed reference)

 

 !CI(SD) expec       <1.2|EKIN|1.2>    63.141265066812
 
 !CI(SD) expec        <1.2|POT|1.2>   -18.127559043592


 **********************************************************************************************************************************
 DATASETS  * FILE   NREC   LENGTH (MB)   RECORD NAMES
              1      21       30.58       500      610      700      900      950      970     1000      129      960     1100   
                                          VAR    BASINP    GEOM    SYMINP    ZMAT    AOBASIS   BASIS     P2S    ABASIS      S 
                                         1400     1410     1420     1200     1210     1080     1600     1650     1300     1700   
                                         EKIN       V       ECP      H0       H01     AOSYM     SMH    MOLCAS    ERIS     OPER   
                                         1380   
                                         JKOP   

              2       4        2.81       700     1000      520     2100   
                                         GEOM     BASIS   MCVARS     RHF  

 PROGRAMS   *        TOTAL        CI        HF       INT
 CPU TIMES  *         2.06      0.28      0.13      1.53
 REAL TIME  *        18.65 SEC
 DISK USED  *        59.82 MB      
 **********************************************************************************************************************************
 SETTING POSTHF(I)      =       -81.33865374  AU                              
                                                                                                                                                                                                                                                                

        SCF            POSTHF        EKIN           POT
    -80.99337935   -81.33865374   63.14126507   -18.12755904
                                                  

 CI/USERDEF energy=    -81.338653739090

        CI              HF-SCF  
    -81.33865374    -80.99337935
 **********************************************************************************************************************************
 Molpro calculation terminated
 Variable memory released
