
 Primary working directories    : /global/cscratch1/sd/aannabe
 Secondary working directories  : /global/cscratch1/sd/aannabe
 Wavefunction directory         : /global/homes/a/aannabe/wfu/
 Main file repository           : /global/cscratch1/sd/aannabe/

 SHA1      : 19cd028119e0e09f93f0674bd8af7968d9b3eff6
 NAME      : 2015.1.36
 ARCHNAME  : linux/x86_64
 FC        : /opt/cray/pe/craype/2.5.14/bin/ftn
 BLASLIB   : -L/opt/intel/compilers_and_libraries_2018.1.163/linux/mkl/lib/intel64 -Wl,-_start-group -lmkl_intel_ilp64 -lmkl_intel_thread -lmkl_core -Wl,-_end-group -liomp5
 id        : lbl

 Nodes     nprocs
 nid00443     3
 Number of processes for MPI-2 version of Molpro:   nprocs(total)=    4   nprocs(compute)=    3   nprocs(helper)=    1

 Using customized tuning parameters: mindgm=7; mindgv=16; mindgc=1; mindgr=1; noblas=0; minvec=7
 default implementation of scratch files=sf  

 ***,Ca
 memory,512,m
 gthresh,twoint=1.e-12
 
 gprint,basis,orbitals
 gexpec,ekin,pot
 
 angstrom
 geometry={
 1                                                                               ! Number of atoms
 Ca 0.0 0.0 0.0
 }
 
 basis={
                                                                 !include,/global/homes/a/aannabe/docs/accurate/ccECP_D2h/pps/Ca.pp
                                             !include,/global/homes/a/aannabe/docs/accurate/ccECP_D2h/basis/aug-cc-pVnZ/Ca_5Z.basis
                                                 !include,/global/homes/a/aannabe/docs/accurate/ccECP_D2h/basis/cc-pVnZ/Ca_5Z.basis
 
 Including file /global/homes/a/aannabe/repos/pseudopotentiallibrary/recipes/Ca/ccECP/Ca.ccECP.molpro
 Including file /global/homes/a/aannabe/repos/pseudopotentiallibrary/recipes/Ca/ccECP/Ca.cc-pCV5Z.molpro
 
 
 }
 
 {hf
 wf,10,1,0
 occ,2,1,1,0,1,0,0,0
 closed,2,1,1,0,1,0,0,0
 }
 scf(i)=energy
 
 _CC_NORM_MAX=2.0
 {rccsd(t)
 maxit,100
 core
 }
 posthf(i)=energy
 
 table,scf,posthf,ekin,pot
 save,5.csv,new
 
 

 Variables initialized (889), CPU time= 0.01 sec
 Commands  initialized (702), CPU time= 0.02 sec, 572 directives.
 Default parameters read. Elapsed time= 0.19 sec

 Checking input...
 Passed
1


                                         ***  PROGRAM SYSTEM MOLPRO  ***
                                       Copyright, TTI GmbH Stuttgart, 2015
                                    Version 2015.1 linked Dec 29 2018 15:55:43


 **********************************************************************************************************************************
 LABEL *   Ca                                                                            
  64 bit mpp version                                                                     DATE: 07-Feb-19          TIME: 15:11:08  
 **********************************************************************************************************************************

 SHA1:             19cd028119e0e09f93f0674bd8af7968d9b3eff6
 **********************************************************************************************************************************

 THRESHOLDS:

 ZERO    =  1.00D-12  ONEINT  =  1.00D-12  TWOINT  =  1.00D-12  PREFAC  =  1.00D-14  LOCALI  =  1.00D-09  EORDER  =  1.00D-04
 ENERGY  =  0.00D+00  ETEST   =  0.00D+00  EDENS   =  0.00D+00  THRDEDEF=  1.00D-06  GRADIENT=  1.00D-02  STEP    =  1.00D-03
 ORBITAL =  1.00D-05  CIVEC   =  1.00D-05  COEFF   =  1.00D-04  PRINTCI =  5.00D-02  PUNCHCI =  9.90D+01  OPTGRAD =  3.00D-04
 OPTENERG=  1.00D-06  OPTSTEP =  3.00D-04  THRGRAD =  1.00D-10  COMPRESS=  1.00D-11  VARMIN  =  1.00D-07  VARMAX  =  1.00D-03
 THRDOUB =  0.00D+00  THRDIV  =  1.00D-05  THRRED  =  1.00D-07  THRPSP  =  1.00D+00  THRDC   =  1.00D-10  THRCS   =  1.00D-10
 THRNRM  =  1.00D-08  THREQ   =  0.00D+00  THRDE   =  1.00D+00  THRREF  =  1.00D-05  SPARFAC =  1.00D+00  THRDLP  =  1.00D-07
 THRDIA  =  1.00D-10  THRDLS  =  1.00D-07  THRGPS  =  0.00D+00  THRKEX  =  0.00D+00  THRDIS  =  2.00D-01  THRVAR  =  1.00D-10
 THRLOC  =  1.00D-06  THRGAP  =  1.00D-06  THRLOCT = -1.00D+00  THRGAPT = -1.00D+00  THRORB  =  1.00D-06  THRMLTP =  0.00D+00
 THRCPQCI=  1.00D-10  KEXTA   =  0.00D+00  THRCOARS=  0.00D+00  SYMTOL  =  1.00D-06  GRADTOL =  1.00D-06  THROVL  =  1.00D-08
 THRORTH =  1.00D-08  GRID    =  1.00D-06  GRIDMAX =  1.00D-03  DTMAX   =  0.00D+00  THROCCDE=  1.00D-01  THROCCDE=  1.00D-01



 ZUNIT=ANG
 

Geometry recognized as XYZ


 Variable memory set to  512000000 words,  buffer space   230000 words

 SETTING BASIS          =    USERDEF


 Recomputing integrals since basis changed


 Using spherical harmonics



 PROGRAM * SEWARD (Integral evaluation for generally contracted gaussian basis sets)     Author: Roland Lindh, 1990

 Geometry written to block  1 of record 700

 Orientation using atomic masses  
 Molecule type: Atom
 Symmetry elements: X,Y,Z
 Rotational constants:       0.0000000      0.0000000      0.0000000 GHz  (calculated with average atomic masses)

 Point group  D2h 



 ATOMIC COORDINATES

 NR  ATOM    CHARGE       X              Y              Z

   1  CA     10.00    0.000000000    0.000000000    0.000000000


          CA  CORE POTENTIAL

          d POTENTIAL

 POWERS             1              3              2              2
 EXPONENTIALS   7.041332       14.01445       13.76936       4.717260    
 COEFFICIENTS   10.00000       70.41332      -92.87298      -5.753568    

          s - d POTENTIAL

 POWERS             2              2
 EXPONENTIALS   11.24017       5.353612    
 COEFFICIENTS   149.3026       23.75933    

          p - d POTENTIAL

 POWERS             2              2
 EXPONENTIALS   13.06655       4.027485    
 COEFFICIENTS   99.20411       13.45216    


 BASIS DATA

   Nr Sym  Nuc  Type         Exponents   Contraction coefficients

    1.1 Ag    1  1s          38.909972     0.000945   -0.000183
    2.1 Ag                   20.573489    -0.017709    0.004255
                             10.878148     0.143493   -0.037277
                              5.751777    -0.280351    0.077047
                              3.041228    -0.288477    0.078223
                              1.608037     0.172486   -0.051753
                              0.850243     0.552901   -0.174623
                              0.449563     0.467699   -0.253263
                              0.237704     0.099292   -0.160610
                              0.125685     0.006651    0.126548
                              0.066456    -0.001926    0.464877
                              0.035138     0.000961    0.478401
                              0.018579    -0.000244    0.156430
    3.1 Ag    1  1s           0.327434     1.000000
    4.1 Ag    1  1s           0.142435     1.000000
    5.1 Ag    1  1s           0.079140     1.000000
    6.1 Ag    1  1s           0.037693     1.000000
    7.1 Ag    1  1s           0.018160     1.000000
    8.1 Ag    1  1s           1.173084     1.000000
    9.1 Ag    1  1s           1.834308     1.000000
   10.1 Ag    1  1s           2.868240     1.000000
   11.1 Ag    1  1s           4.484960     1.000000
   12.1 Ag    1  1s           7.012966     1.000000
   13.1 Ag    1  3d0         28.997930     0.002278
                             13.712713     0.011973
                              6.484549     0.022732
                              3.066452     0.069977
                              1.450082     0.125887
                              0.685723     0.175971
                              0.324269     0.209627
                              0.153342     0.256615
                              0.072513     0.288741
                              0.034291     0.224779
                              0.016216     0.082948
   14.1 Ag    1  3d2+        28.997930     0.002278
                             13.712713     0.011973
                              6.484549     0.022732
                              3.066452     0.069977
                              1.450082     0.125887
                              0.685723     0.175971
                              0.324269     0.209627
                              0.153342     0.256615
                              0.072513     0.288741
                              0.034291     0.224779
                              0.016216     0.082948
   15.1 Ag    1  3d0          0.502634     1.000000
   16.1 Ag    1  3d2+         0.502634     1.000000
   17.1 Ag    1  3d0          0.189583     1.000000
   18.1 Ag    1  3d2+         0.189583     1.000000
   19.1 Ag    1  3d0          0.070604     1.000000
   20.1 Ag    1  3d2+         0.070604     1.000000
   21.1 Ag    1  3d0          0.025792     1.000000
   22.1 Ag    1  3d2+         0.025792     1.000000
   23.1 Ag    1  3d0          0.977898     1.000000
   24.1 Ag    1  3d2+         0.977898     1.000000
   25.1 Ag    1  3d0          1.516209     1.000000
   26.1 Ag    1  3d2+         1.516209     1.000000
   27.1 Ag    1  3d0          2.350849     1.000000
   28.1 Ag    1  3d2+         2.350849     1.000000
   29.1 Ag    1  3d0          3.644940     1.000000
   30.1 Ag    1  3d2+         3.644940     1.000000
   31.1 Ag    1  5g0          0.290200     1.000000
   32.1 Ag    1  5g4+         0.290200     1.000000
   33.1 Ag    1  5g2+         0.290200     1.000000
   34.1 Ag    1  5g0          0.096300     1.000000
   35.1 Ag    1  5g4+         0.096300     1.000000
   36.1 Ag    1  5g2+         0.096300     1.000000
   37.1 Ag    1  5g0          1.178412     1.000000
   38.1 Ag    1  5g4+         1.178412     1.000000
   39.1 Ag    1  5g2+         1.178412     1.000000
   40.1 Ag    1  5g0          2.548467     1.000000
   41.1 Ag    1  5g4+         2.548467     1.000000
   42.1 Ag    1  5g2+         2.548467     1.000000
    1.2 B3u   1  2px         31.519451    -0.000131    0.000021
    2.2 B3u                  15.831494     0.005811   -0.001246
                              7.951795    -0.044610    0.010111
                              3.994003    -0.042392    0.008943
                              2.006096     0.180288   -0.044587
                              1.007616     0.407474   -0.096275
                              0.506102     0.386467   -0.113007
                              0.254203     0.154522   -0.065333
                              0.127681     0.017068    0.146809
                              0.064131     0.003160    0.441198
                              0.032211    -0.000225    0.427632
                              0.016179     0.000168    0.125197
    3.2 B3u   1  2px          0.467685     1.000000
    4.2 B3u   1  2px          0.233432     1.000000
    5.2 B3u   1  2px          0.093217     1.000000
    6.2 B3u   1  2px          0.041977     1.000000
    7.2 B3u   1  2px          0.018692     1.000000
    8.2 B3u   1  2px          0.887483     1.000000
    9.2 B3u   1  2px          1.490764     1.000000
   10.2 B3u   1  2px          2.504134     1.000000
   11.2 B3u   1  2px          4.206360     1.000000
   12.2 B3u   1  2px          7.065700     1.000000
   13.2 B3u   1  4f1+         0.736000     1.000000
   14.2 B3u   1  4f3+         0.736000     1.000000
   15.2 B3u   1  4f1+         0.247100     1.000000
   16.2 B3u   1  4f3+         0.247100     1.000000
   17.2 B3u   1  4f1+         0.083000     1.000000
   18.2 B3u   1  4f3+         0.083000     1.000000
   19.2 B3u   1  4f1+         1.658789     1.000000
   20.2 B3u   1  4f3+         1.658789     1.000000
   21.2 B3u   1  4f1+         2.436365     1.000000
   22.2 B3u   1  4f3+         2.436365     1.000000
   23.2 B3u   1  4f1+         3.578437     1.000000
   24.2 B3u   1  4f3+         3.578437     1.000000
   25.2 B3u   1  6h1+         0.278500     1.000000
   26.2 B3u   1  6h3+         0.278500     1.000000
   27.2 B3u   1  6h5+         0.278500     1.000000
   28.2 B3u   1  6h1+         2.041245     1.000000
   29.2 B3u   1  6h3+         2.041245     1.000000
   30.2 B3u   1  6h5+         2.041245     1.000000
    1.3 B2u   1  2py         31.519451    -0.000131    0.000021
    2.3 B2u                  15.831494     0.005811   -0.001246
                              7.951795    -0.044610    0.010111
                              3.994003    -0.042392    0.008943
                              2.006096     0.180288   -0.044587
                              1.007616     0.407474   -0.096275
                              0.506102     0.386467   -0.113007
                              0.254203     0.154522   -0.065333
                              0.127681     0.017068    0.146809
                              0.064131     0.003160    0.441198
                              0.032211    -0.000225    0.427632
                              0.016179     0.000168    0.125197
    3.3 B2u   1  2py          0.467685     1.000000
    4.3 B2u   1  2py          0.233432     1.000000
    5.3 B2u   1  2py          0.093217     1.000000
    6.3 B2u   1  2py          0.041977     1.000000
    7.3 B2u   1  2py          0.018692     1.000000
    8.3 B2u   1  2py          0.887483     1.000000
    9.3 B2u   1  2py          1.490764     1.000000
   10.3 B2u   1  2py          2.504134     1.000000
   11.3 B2u   1  2py          4.206360     1.000000
   12.3 B2u   1  2py          7.065700     1.000000
   13.3 B2u   1  4f1-         0.736000     1.000000
   14.3 B2u   1  4f3-         0.736000     1.000000
   15.3 B2u   1  4f1-         0.247100     1.000000
   16.3 B2u   1  4f3-         0.247100     1.000000
   17.3 B2u   1  4f1-         0.083000     1.000000
   18.3 B2u   1  4f3-         0.083000     1.000000
   19.3 B2u   1  4f1-         1.658789     1.000000
   20.3 B2u   1  4f3-         1.658789     1.000000
   21.3 B2u   1  4f1-         2.436365     1.000000
   22.3 B2u   1  4f3-         2.436365     1.000000
   23.3 B2u   1  4f1-         3.578437     1.000000
   24.3 B2u   1  4f3-         3.578437     1.000000
   25.3 B2u   1  6h1-         0.278500     1.000000
   26.3 B2u   1  6h3-         0.278500     1.000000
   27.3 B2u   1  6h5-         0.278500     1.000000
   28.3 B2u   1  6h1-         2.041245     1.000000
   29.3 B2u   1  6h3-         2.041245     1.000000
   30.3 B2u   1  6h5-         2.041245     1.000000
    1.4 B1g   1  3d2-        28.997930     0.002278
                             13.712713     0.011973
                              6.484549     0.022732
                              3.066452     0.069977
                              1.450082     0.125887
                              0.685723     0.175971
                              0.324269     0.209627
                              0.153342     0.256615
                              0.072513     0.288741
                              0.034291     0.224779
                              0.016216     0.082948
    2.4 B1g   1  3d2-         0.502634     1.000000
    3.4 B1g   1  3d2-         0.189583     1.000000
    4.4 B1g   1  3d2-         0.070604     1.000000
    5.4 B1g   1  3d2-         0.025792     1.000000
    6.4 B1g   1  3d2-         0.977898     1.000000
    7.4 B1g   1  3d2-         1.516209     1.000000
    8.4 B1g   1  3d2-         2.350849     1.000000
    9.4 B1g   1  3d2-         3.644940     1.000000
   10.4 B1g   1  5g2-         0.290200     1.000000
   11.4 B1g   1  5g4-         0.290200     1.000000
   12.4 B1g   1  5g2-         0.096300     1.000000
   13.4 B1g   1  5g4-         0.096300     1.000000
   14.4 B1g   1  5g2-         1.178412     1.000000
   15.4 B1g   1  5g4-         1.178412     1.000000
   16.4 B1g   1  5g2-         2.548467     1.000000
   17.4 B1g   1  5g4-         2.548467     1.000000
    1.5 B1u   1  2pz         31.519451    -0.000131    0.000021
    2.5 B1u                  15.831494     0.005811   -0.001246
                              7.951795    -0.044610    0.010111
                              3.994003    -0.042392    0.008943
                              2.006096     0.180288   -0.044587
                              1.007616     0.407474   -0.096275
                              0.506102     0.386467   -0.113007
                              0.254203     0.154522   -0.065333
                              0.127681     0.017068    0.146809
                              0.064131     0.003160    0.441198
                              0.032211    -0.000225    0.427632
                              0.016179     0.000168    0.125197
    3.5 B1u   1  2pz          0.467685     1.000000
    4.5 B1u   1  2pz          0.233432     1.000000
    5.5 B1u   1  2pz          0.093217     1.000000
    6.5 B1u   1  2pz          0.041977     1.000000
    7.5 B1u   1  2pz          0.018692     1.000000
    8.5 B1u   1  2pz          0.887483     1.000000
    9.5 B1u   1  2pz          1.490764     1.000000
   10.5 B1u   1  2pz          2.504134     1.000000
   11.5 B1u   1  2pz          4.206360     1.000000
   12.5 B1u   1  2pz          7.065700     1.000000
   13.5 B1u   1  4f0          0.736000     1.000000
   14.5 B1u   1  4f2+         0.736000     1.000000
   15.5 B1u   1  4f0          0.247100     1.000000
   16.5 B1u   1  4f2+         0.247100     1.000000
   17.5 B1u   1  4f0          0.083000     1.000000
   18.5 B1u   1  4f2+         0.083000     1.000000
   19.5 B1u   1  4f0          1.658789     1.000000
   20.5 B1u   1  4f2+         1.658789     1.000000
   21.5 B1u   1  4f0          2.436365     1.000000
   22.5 B1u   1  4f2+         2.436365     1.000000
   23.5 B1u   1  4f0          3.578437     1.000000
   24.5 B1u   1  4f2+         3.578437     1.000000
   25.5 B1u   1  6h2+         0.278500     1.000000
   26.5 B1u   1  6h4+         0.278500     1.000000
   27.5 B1u   1  6h0          0.278500     1.000000
   28.5 B1u   1  6h2+         2.041245     1.000000
   29.5 B1u   1  6h4+         2.041245     1.000000
   30.5 B1u   1  6h0          2.041245     1.000000
    1.6 B2g   1  3d1+        28.997930     0.002278
                             13.712713     0.011973
                              6.484549     0.022732
                              3.066452     0.069977
                              1.450082     0.125887
                              0.685723     0.175971
                              0.324269     0.209627
                              0.153342     0.256615
                              0.072513     0.288741
                              0.034291     0.224779
                              0.016216     0.082948
    2.6 B2g   1  3d1+         0.502634     1.000000
    3.6 B2g   1  3d1+         0.189583     1.000000
    4.6 B2g   1  3d1+         0.070604     1.000000
    5.6 B2g   1  3d1+         0.025792     1.000000
    6.6 B2g   1  3d1+         0.977898     1.000000
    7.6 B2g   1  3d1+         1.516209     1.000000
    8.6 B2g   1  3d1+         2.350849     1.000000
    9.6 B2g   1  3d1+         3.644940     1.000000
   10.6 B2g   1  5g1+         0.290200     1.000000
   11.6 B2g   1  5g3+         0.290200     1.000000
   12.6 B2g   1  5g1+         0.096300     1.000000
   13.6 B2g   1  5g3+         0.096300     1.000000
   14.6 B2g   1  5g1+         1.178412     1.000000
   15.6 B2g   1  5g3+         1.178412     1.000000
   16.6 B2g   1  5g1+         2.548467     1.000000
   17.6 B2g   1  5g3+         2.548467     1.000000
    1.7 B3g   1  3d1-        28.997930     0.002278
                             13.712713     0.011973
                              6.484549     0.022732
                              3.066452     0.069977
                              1.450082     0.125887
                              0.685723     0.175971
                              0.324269     0.209627
                              0.153342     0.256615
                              0.072513     0.288741
                              0.034291     0.224779
                              0.016216     0.082948
    2.7 B3g   1  3d1-         0.502634     1.000000
    3.7 B3g   1  3d1-         0.189583     1.000000
    4.7 B3g   1  3d1-         0.070604     1.000000
    5.7 B3g   1  3d1-         0.025792     1.000000
    6.7 B3g   1  3d1-         0.977898     1.000000
    7.7 B3g   1  3d1-         1.516209     1.000000
    8.7 B3g   1  3d1-         2.350849     1.000000
    9.7 B3g   1  3d1-         3.644940     1.000000
   10.7 B3g   1  5g1-         0.290200     1.000000
   11.7 B3g   1  5g3-         0.290200     1.000000
   12.7 B3g   1  5g1-         0.096300     1.000000
   13.7 B3g   1  5g3-         0.096300     1.000000
   14.7 B3g   1  5g1-         1.178412     1.000000
   15.7 B3g   1  5g3-         1.178412     1.000000
   16.7 B3g   1  5g1-         2.548467     1.000000
   17.7 B3g   1  5g3-         2.548467     1.000000
    1.8 Au    1  4f2-         0.736000     1.000000
    2.8 Au    1  4f2-         0.247100     1.000000
    3.8 Au    1  4f2-         0.083000     1.000000
    4.8 Au    1  4f2-         1.658789     1.000000
    5.8 Au    1  4f2-         2.436365     1.000000
    6.8 Au    1  4f2-         3.578437     1.000000
    7.8 Au    1  6h4-         0.278500     1.000000
    8.8 Au    1  6h2-         0.278500     1.000000
    9.8 Au    1  6h4-         2.041245     1.000000
   10.8 Au    1  6h2-         2.041245     1.000000

 NUCLEAR CHARGE:                   10
 NUMBER OF PRIMITIVE AOS:         365
 NUMBER OF SYMMETRY AOS:          284
 NUMBER OF CONTRACTIONS:          193   (  42Ag  +  30B3u +  30B2u +  17B1g +  30B1u +  17B2g +  17B3g +  10Au  )
 NUMBER OF CORE ORBITALS:           4   (   1Ag  +   1B3u +   1B2u +   0B1g +   1B1u +   0B2g +   0B3g +   0Au  )
 NUMBER OF VALENCE ORBITALS:        1   (   1Ag  +   0B3u +   0B2u +   0B1g +   0B1u +   0B2g +   0B3g +   0Au  )


 NUCLEAR REPULSION ENERGY    0.00000000

 EXTRA SYMMETRY OF AOS IN SYMMETRY 1:   1 1 1 1 1 1 1 1 1 1   1 1 2 3 2 3 2 3 2 3   2 3 2 3 2 3 2 3 2 3   4 5 6 4 5 6 4 5 6 4
                                        5 6
 EXTRA SYMMETRY OF AOS IN SYMMETRY 2:   1 1 1 1 1 1 1 1 1 1   1 1 2 3 2 3 2 3 2 3   2 3 2 3 4 5 6 4 5 6
 EXTRA SYMMETRY OF AOS IN SYMMETRY 3:   1 1 1 1 1 1 1 1 1 1   1 1 2 3 2 3 2 3 2 3   2 3 2 3 4 5 6 4 5 6
 EXTRA SYMMETRY OF AOS IN SYMMETRY 4:   1 1 1 1 1 1 1 1 1 2   3 2 3 2 3 2 3
 EXTRA SYMMETRY OF AOS IN SYMMETRY 5:   1 1 1 1 1 1 1 1 1 1   1 1 2 3 2 3 2 3 2 3   2 3 2 3 4 5 6 4 5 6
 EXTRA SYMMETRY OF AOS IN SYMMETRY 6:   1 1 1 1 1 1 1 1 1 2   3 2 3 2 3 2 3
 EXTRA SYMMETRY OF AOS IN SYMMETRY 7:   1 1 1 1 1 1 1 1 1 2   3 2 3 2 3 2 3
 EXTRA SYMMETRY OF AOS IN SYMMETRY 8:   1 1 1 1 1 1 2 3 2 3

 Eigenvalues of metric

         1 0.257E-06 0.455E-05 0.159E-03 0.202E-03 0.202E-03 0.728E-03 0.807E-03 0.807E-03
         2 0.565E-06 0.111E-05 0.219E-03 0.228E-02 0.443E-02 0.443E-02 0.105E-01 0.314E-01
         3 0.565E-06 0.111E-05 0.219E-03 0.228E-02 0.443E-02 0.443E-02 0.105E-01 0.314E-01
         4 0.202E-03 0.807E-03 0.136E-01 0.784E-01 0.206E+00 0.276E+00 0.276E+00 0.548E+00
         5 0.565E-06 0.111E-05 0.219E-03 0.228E-02 0.443E-02 0.443E-02 0.105E-01 0.314E-01
         6 0.202E-03 0.807E-03 0.136E-01 0.784E-01 0.206E+00 0.276E+00 0.276E+00 0.548E+00
         7 0.202E-03 0.807E-03 0.136E-01 0.784E-01 0.206E+00 0.276E+00 0.276E+00 0.548E+00
         8 0.443E-02 0.101E+00 0.336E+00 0.802E+00 0.939E+00 0.939E+00 0.106E+01 0.106E+01


 Contracted 2-electron integrals neglected if value below      1.0D-13
 AO integral compression algorithm  1   Integral accuracy      1.0D-13

     184.812 MB (compressed) written to integral file ( 61.8%)

     Node minimum: 44.040 MB, node maximum: 89.653 MB


 NUMBER OF SORTED TWO-ELECTRON INTEGRALS:    7534281.     BUFFER LENGTH:  32768
 NUMBER OF SEGMENTS:   1  SEGMENT LENGTH:    7534281      RECORD LENGTH: 524288

 Memory used in sort:       8.09 MW

 SORT1 READ    37384837. AND WROTE     5369685. INTEGRALS IN     16 RECORDS. CPU TIME:     2.16 SEC, REAL TIME:     2.71 SEC
 SORT2 READ    15975476. AND WROTE    22586524. INTEGRALS IN   1026 RECORDS. CPU TIME:     0.34 SEC, REAL TIME:     0.71 SEC

 Node minimum:     7516352.  Node maximum:     7535891. integrals

 OPERATOR DM      FOR CENTER  0  COORDINATES:    0.000000    0.000000    0.000000
 OPERATOR EKIN    FOR CENTER  0  COORDINATES:    0.000000    0.000000    0.000000
 OPERATOR POT     FOR CENTER  0  COORDINATES:    0.000000    0.000000    0.000000


 **********************************************************************************************************************************
 DATASETS  * FILE   NREC   LENGTH (MB)   RECORD NAMES
              1      19       20.22       500      610      700      900      950      970     1000      129      960     1100   
                                          VAR    BASINP    GEOM    SYMINP    ZMAT    AOBASIS   BASIS     P2S    ABASIS      S 
                                         1400     1410     1420     1200     1210     1080     1600     1650     1700   
                                         EKIN       V       ECP      H0       H01     AOSYM     SMH    MOLCAS    OPER   

 PROGRAMS   *        TOTAL       INT
 CPU TIMES  *        15.26     15.01
 REAL TIME  *        21.41 SEC
 DISK USED  *       375.50 MB      
 GA USED    *         0.00 MB       (max)       0.00 MB       (current)
 **********************************************************************************************************************************


 PROGRAM * RHF-SCF (CLOSED SHELL)       Authors: W. Meyer, H.-J. Werner


 NUMBER OF ELECTRONS:       5+    5-    SPACE SYMMETRY=1    SPIN SYMMETRY: Singlet 
 CONVERGENCE THRESHOLDS:    1.00E-05 (Density)    1.00E-07 (Energy)
 MAX. NUMBER OF ITERATIONS:       60
 INTERPOLATION TYPE:            DIIS
 INTERPOLATION STEPS:              2 (START)      1 (STEP)
 LEVEL SHIFTS:                  0.00 (CLOSED)  0.00 (OPEN) 

 Number of closed-shell orbitals:    5 (   2   1   1   0   1   0   0   0 )



   Atom=CA basis=ECP10MDF_GUESS    lmin=0  lmax=1

 Orbital guess generated from atomic densities. Full valence occupancy:    2   1   1   0   1   0   0   0


 Molecular orbital dump at record        2100.2

 ITERATION    DDIFF          GRAD             ENERGY        2-EL.EN.            DIPOLE MOMENTS         DIIS   ORB.
    1      0.000D+00      0.000D+00       -36.34969577     46.648747    0.00000    0.00000    0.00000    0    start
    2      0.000D+00      0.682D-03       -36.34973326     46.687272    0.00000    0.00000    0.00000    1    diag
    3      0.754D-02      0.103D-03       -36.34973426     46.680027    0.00000    0.00000    0.00000    2    diag
    4      0.517D-03      0.129D-04       -36.34973432     46.679598    0.00000    0.00000    0.00000    3    diag
    5      0.115D-03      0.277D-05       -36.34973433     46.679162    0.00000    0.00000    0.00000    4    diag
    6      0.313D-04      0.291D-06       -36.34973433     46.679096    0.00000    0.00000    0.00000    5    diag
    7      0.217D-05      0.372D-07       -36.34973433     46.679092    0.00000    0.00000    0.00000    0    orth

 Final occupancy:   2   1   1   0   1   0   0   0

 !RHF STATE 1.1 Energy                -36.349734330044
 Nuclear energy                         0.00000000
 One-electron energy                  -59.68928013
 Two-electron energy                   23.33954580
 Virial quotient                       -2.70639873
 !RHF STATE 1.1 Dipole moment           0.00000000     0.00000000     0.00000000
 Dipole moment /Debye                   0.00000000     0.00000000     0.00000000
 

 !RHF expec          <1.1|EKIN|1.1>    13.431034360051
 
 !RHF expec           <1.1|POT|1.1>    -7.946879684831

 ELECTRON ORBITALS
 =================


   Orb  Occ    Energy  Couls-En    Coefficients

                                   1 1s      1 1s      1 1s      1 1s      1 1s      1 1s      1 1s      1 1s      1 1s      1 1s   
                                   1 1s      1 1s      1 3d0     1 3d2+    1 3d0     1 3d2+    1 3d0     1 3d2+    1 3d0     1 3d2+ 
                                   1 3d0     1 3d2+    1 3d0     1 3d2+    1 3d0     1 3d2+    1 3d0     1 3d2+    1 3d0     1 3d2+ 
                                   1 5g0     1 5g4+    1 5g2+    1 5g0     1 5g4+    1 5g2+    1 5g0     1 5g4+    1 5g2+    1 5g0  
                                   1 5g4+    1 5g2+ 

   1.1   2    -2.2832   -9.7935  0.978562 -0.074737 -0.015310  0.001654  0.031738  0.044526  0.011657 -0.005959  0.005695 -0.003389
                                 0.000381  0.000278  0.000000  0.000000 -0.000000  0.000000 -0.000000 -0.000000 -0.000000 -0.000000
                                -0.000000 -0.000000 -0.000000  0.000000 -0.000000 -0.000000  0.000000 -0.000000 -0.000000  0.000000
                                -0.000000 -0.000000 -0.000000 -0.000000  0.000000  0.000000 -0.000000 -0.000000  0.000000  0.000000
                                -0.000000 -0.000000

   2.1   2    -0.1958   -2.7935 -0.018026  0.947855 -0.009011  0.001011  0.022043  0.031243  0.008058  0.000709 -0.001254  0.001907
                                -0.003703  0.001348 -0.000000 -0.000000  0.000000 -0.000000  0.000000  0.000000  0.000000  0.000000
                                 0.000000  0.000000  0.000000  0.000000  0.000000 -0.000000 -0.000000  0.000000  0.000000 -0.000000
                                 0.000000  0.000000  0.000000 -0.000000  0.000000 -0.000000 -0.000000 -0.000000  0.000000  0.000000
                                 0.000000 -0.000000

                                   1 2px     1 2px     1 2px     1 2px     1 2px     1 2px     1 2px     1 2px     1 2px     1 2px  
                                   1 2px     1 2px     1 4f1+    1 4f3+    1 4f1+    1 4f3+    1 4f1+    1 4f3+    1 4f1+    1 4f3+ 
                                   1 4f1+    1 4f3+    1 4f1+    1 4f3+    1 6h1+    1 6h3+    1 6h5+    1 6h1+    1 6h3+    1 6h5+ 


   1.2   2    -1.3420   -7.9209  1.002373  0.003887  0.000519 -0.000717 -0.001034 -0.002399 -0.000786 -0.001915  0.001210 -0.001172
                                 0.000554 -0.000052  0.000000  0.000000 -0.000000  0.000000  0.000000 -0.000000 -0.000000  0.000000
                                 0.000000 -0.000000 -0.000000  0.000000  0.000000 -0.000000  0.000000 -0.000000  0.000000 -0.000000

                                   1 2py     1 2py     1 2py     1 2py     1 2py     1 2py     1 2py     1 2py     1 2py     1 2py  
                                   1 2py     1 2py     1 4f1-    1 4f3-    1 4f1-    1 4f3-    1 4f1-    1 4f3-    1 4f1-    1 4f3- 
                                   1 4f1-    1 4f3-    1 4f1-    1 4f3-    1 6h1-    1 6h3-    1 6h5-    1 6h1-    1 6h3-    1 6h5- 


   1.3   2    -1.3420   -7.9209  1.002373  0.003887  0.000519 -0.000717 -0.001034 -0.002399 -0.000786 -0.001915  0.001210 -0.001172
                                 0.000554 -0.000052  0.000000  0.000000  0.000000  0.000000 -0.000000 -0.000000 -0.000000 -0.000000
                                 0.000000  0.000000 -0.000000 -0.000000  0.000000 -0.000000  0.000000 -0.000000  0.000000 -0.000000

                                   1 2pz     1 2pz     1 2pz     1 2pz     1 2pz     1 2pz     1 2pz     1 2pz     1 2pz     1 2pz  
                                   1 2pz     1 2pz     1 4f0     1 4f2+    1 4f0     1 4f2+    1 4f0     1 4f2+    1 4f0     1 4f2+ 
                                   1 4f0     1 4f2+    1 4f0     1 4f2+    1 6h2+    1 6h4+    1 6h0     1 6h2+    1 6h4+    1 6h0  


   1.5   2    -1.3420   -7.9209  1.002373  0.003887  0.000519 -0.000717 -0.001034 -0.002399 -0.000786 -0.001915  0.001210 -0.001172
                                 0.000554 -0.000052  0.000000  0.000000  0.000000  0.000000 -0.000000 -0.000000  0.000000 -0.000000
                                -0.000000 -0.000000  0.000000 -0.000000 -0.000000  0.000000  0.000000  0.000000 -0.000000 -0.000000

 HOMO      2.1    -0.195784 =      -5.3276eV
 LUMO      2.2     0.017247 =       0.4693eV
 LUMO-HOMO         0.213031 =       5.7969eV


 **********************************************************************************************************************************
 DATASETS  * FILE   NREC   LENGTH (MB)   RECORD NAMES
              1      19       20.23       500      610      700      900      950      970     1000      129      960     1100   
                                          VAR    BASINP    GEOM    SYMINP    ZMAT    AOBASIS   BASIS     P2S    ABASIS      S 
                                         1400     1410     1420     1200     1210     1080     1600     1650     1700   
                                         EKIN       V       ECP      H0       H01     AOSYM     SMH    MOLCAS    OPER   

              2       4        2.89       700     1000      520     2100   
                                         GEOM     BASIS   MCVARS     RHF  

 PROGRAMS   *        TOTAL        HF       INT
 CPU TIMES  *        15.70      0.44     15.01
 REAL TIME  *        22.25 SEC
 DISK USED  *       446.06 MB      
 SF USED    *         0.02 MB      
 GA USED    *         0.00 MB       (max)       0.00 MB       (current)
 **********************************************************************************************************************************
 SETTING SCF(I)         =       -36.34973433  AU                              
 SETTING _CC_NORM_MAX   =         2.00000000                                  


 PROGRAM * CCSD (Restricted open-shell coupled cluster)     Authors: C. Hampel, H.-J. Werner, 1991, M. Deegan, P.J. Knowles, 1992


 Convergence thresholds:  THRVAR = 1.00D-08  THRDEN = 1.00D-06

 CCSD(T)     terms to be evaluated (factor= 1.000)


 Number of closed-shell orbitals:   5 (   2   1   1   0   1   0   0   0 )
 Number of external orbitals:     188 (  40  29  29  17  29  17  17  10 )

 Memory could be reduced to 10.49 Mwords without degradation in triples

 Number of N-1 electron functions:              10
 Number of N-2 electron functions:              45
 Number of singly external CSFs:               334
 Number of doubly external CSFs:            161708
 Total number of CSFs:                      162042

 Molecular orbitals read from record     2100.2  Type=RHF/CANONICAL (state 1.1)

 Integral transformation finished. Total CPU:   0.21 sec, npass=  1  Memory used:   1.58 MW

 Starting RMP2 calculation

 Wavefunction is spin-projected

 ITER.      SQ.NORM     CORR.ENERGY   TOTAL ENERGY   ENERGY CHANGE        DEN1      VAR(S)    VAR(P)  DIIS     TIME
   1      1.09887522    -0.33670152   -36.68643585    -0.33670152    -0.00160141  0.51D-13  0.15D-02  1  1     0.22
   2      1.10297241    -0.33844808   -36.68818241    -0.00174657    -0.00004150  0.54D-14  0.59D-04  2  2     0.24
   3      1.10397118    -0.33869164   -36.68842597    -0.00024356    -0.00000018  0.16D-15  0.23D-06  3  3     0.25
   4      1.10400247    -0.33869570   -36.68843003    -0.00000406    -0.00000000  0.90D-17  0.38D-08  4  4     0.26
   5      1.10400331    -0.33869569   -36.68843002     0.00000002    -0.00000000  0.36D-18  0.27D-10  5  5     0.28

 Norm of t1 vector:      0.00000096      S-energy:    -0.00000000      T1 diagnostic:  0.00000021
 Norm of t2 vector:      0.32249544      P-energy:    -0.33869569
                                         Alpha-Beta:  -0.25944657
                                         Alpha-Alpha: -0.03962456
                                         Beta-Beta:   -0.03962456

 Spin contamination <S**2-Sz**2-Sz>     0.00000000
  Reference energy                    -36.349734330044
  RHF-RMP2 correlation energy          -0.338695685975
 !RHF-RMP2 energy                     -36.688430016019
 (NB above energy spin projected)

 Starting RCCSD calculation

 ITER.      SQ.NORM     CORR.ENERGY   TOTAL ENERGY   ENERGY CHANGE        DEN1      VAR(S)    VAR(P)  DIIS     TIME
   1      1.10654241    -0.34498726   -36.69472159    -0.34498726    -0.00769827  0.19D-02  0.32D-02  1  1     0.54
   2      1.12375475    -0.35302614   -36.70276047    -0.00803888    -0.00082088  0.31D-03  0.69D-03  2  2     0.80
   3      1.13399623    -0.35493279   -36.70466712    -0.00190665    -0.00016704  0.96D-04  0.15D-03  3  3     1.06
   4      1.14138067    -0.35592141   -36.70565574    -0.00098862    -0.00001953  0.84D-05  0.19D-04  4  4     1.30
   5      1.14420375    -0.35620432   -36.70593865    -0.00028291    -0.00000222  0.42D-06  0.23D-05  5  5     1.58
   6      1.14483897    -0.35624850   -36.70598283    -0.00004418    -0.00000041  0.25D-07  0.45D-06  6  6     1.82
   7      1.14503040    -0.35626088   -36.70599521    -0.00001238    -0.00000007  0.13D-07  0.69D-07  6  1     2.09
   8      1.14504522    -0.35625901   -36.70599334     0.00000187    -0.00000001  0.31D-08  0.49D-08  6  2     2.34
   9      1.14505110    -0.35625972   -36.70599405    -0.00000072    -0.00000000  0.95D-09  0.59D-09  6  3     2.60

 Norm of t1 vector:      0.09644474      S-energy:     0.00000001      T1 diagnostic:  0.02156570
                                                                       D1 diagnostic:  0.06786620
 Norm of t2 vector:      0.36844201      P-energy:    -0.35625974
                                         Alpha-Beta:  -0.28111720
                                         Alpha-Alpha: -0.03757127
                                         Beta-Beta:   -0.03757127

 Singles amplitudes (print threshold =  0.500E-01):

         I         SYM. A    A   T(IA) [Alpha-Alpha]

         2         1         1     -0.05136361
 
         I         SYM. A    A   T(IA) [Beta-Beta]

         2         1         1     -0.05136361

 Doubles amplitudes (print threshold =  0.500E-01):

         I         J         SYM. A    SYM. B    A         B      T(IJ, AB) [Alpha-Beta]

         2         2         2         2         1         1     -0.07410623
         2         2         2         2         1         2     -0.06042335
         2         2         2         2         2         1     -0.06042335
         2         2         2         2         2         2     -0.05059744
         2         2         3         3         1         1     -0.07410623
         2         2         3         3         1         2     -0.06042335
         2         2         3         3         2         1     -0.06042335
         2         2         3         3         2         2     -0.05059744
         2         2         5         5         1         1     -0.07410623
         2         2         5         5         1         2     -0.06042335
         2         2         5         5         2         1     -0.06042335
         2         2         5         5         2         2     -0.05059744

 Spin contamination <S**2-Sz**2-Sz>     0.00000000

 Memory could be reduced to 10.61 Mwords without degradation in triples
 

  Correlated core orbitals:             1.1       1.2       1.3       1.5
  Orbital energies:                    -2.2832   -1.3420   -1.3420   -1.3420
 
  RCCSD core-core energy               -0.299401080035
  RCCSD core-valence energy            -0.031747318832
  RCCSD valence correlation energy     -0.025111325244
 

 RESULTS
 =======

  Reference energy                    -36.349734330044
  RCCSD singles energy                  0.000000014479
  RCCSD pair energy                    -0.356259738591
  RCCSD correlation energy             -0.356259724111
  Triples (T) contribution             -0.013833078680
  Total correlation energy             -0.370092802791
 
  RHF-RCCSD energy                    -36.705994054155
  RHF-RCCSD[T] energy                 -36.720198632207
  RHF-RCCSD-T energy                  -36.719770492050
 !RHF-RCCSD(T) energy                 -36.719827132835

 Program statistics:

 Available memory in ccsd:               511999650
 Min. memory needed in ccsd:                578707
 Max. memory used in ccsd:                  760204
 Max. memory used in cckext:                637972 ( 9 integral passes)
 Max. memory used in cckint:               1584546 ( 1 integral passes)



 **********************************************************************************************************************************
 DATASETS  * FILE   NREC   LENGTH (MB)   RECORD NAMES
              1      19       20.23       500      610      700      900      950      970     1000      129      960     1100   
                                          VAR    BASINP    GEOM    SYMINP    ZMAT    AOBASIS   BASIS     P2S    ABASIS      S 
                                         1400     1410     1420     1200     1210     1080     1600     1650     1700   
                                         EKIN       V       ECP      H0       H01     AOSYM     SMH    MOLCAS    OPER   

              2       4        2.89       700     1000      520     2100   
                                         GEOM     BASIS   MCVARS     RHF  

 PROGRAMS   *        TOTAL  RCCSD(T)        HF       INT
 CPU TIMES  *        20.72      5.02      0.44     15.01
 REAL TIME  *        29.50 SEC
 DISK USED  *       504.93 MB      
 SF USED    *       119.91 MB      
 GA USED    *         0.00 MB       (max)       0.00 MB       (current)
 **********************************************************************************************************************************
 SETTING POSTHF(I)      =       -36.71982713  AU                              
                                                                                                                                                                                                                                                                

        SCF            POSTHF        EKIN          POT
    -36.34973433   -36.71982713   13.43103436   -7.94687968
                                                  

 RCCSD(T)/USERDEF energy=    -36.719827132835

        RCCSD(T)        HF-SCF  
    -36.71982713    -36.34973433
 **********************************************************************************************************************************
 Molpro calculation terminated
 Variable memory released
