
 Primary working directories    : /global/cscratch1/sd/aannabe
 Secondary working directories  : /global/cscratch1/sd/aannabe
 Wavefunction directory         : /global/homes/a/aannabe/wfu/
 Main file repository           : /global/cscratch1/sd/aannabe/

 SHA1      : 19cd028119e0e09f93f0674bd8af7968d9b3eff6
 NAME      : 2015.1.36
 ARCHNAME  : linux/x86_64
 FC        : /opt/cray/pe/craype/2.5.14/bin/ftn
 BLASLIB   : -L/opt/intel/compilers_and_libraries_2018.1.163/linux/mkl/lib/intel64 -Wl,-_start-group -lmkl_intel_ilp64 -lmkl_intel_thread -lmkl_core -Wl,-_end-group -liomp5
 id        : lbl

 Nodes     nprocs
 nid00472     1
 Number of processes for MPI-2 version of Molpro:   nprocs(total)=    2   nprocs(compute)=    1   nprocs(helper)=    1

 Using customized tuning parameters: mindgm=7; mindgv=16; mindgc=1; mindgr=1; noblas=0; minvec=7
 default implementation of scratch files=df  

 ***,Ca
 memory,1024,m
 gthresh,twoint=1.e-12
 
 gprint,basis,orbitals
 gexpec,ekin,pot
 
 angstrom
 geometry={
 1                                                                               ! Number of atoms
 Ca 0.0 0.0 0.0
 }
 
 basis={
                                                                 !include,/global/homes/a/aannabe/docs/accurate/ccECP_D2h/pps/Ca.pp
                                             !include,/global/homes/a/aannabe/docs/accurate/ccECP_D2h/basis/aug-cc-pVnZ/Ca_6Z.basis
                                                 !include,/global/homes/a/aannabe/docs/accurate/ccECP_D2h/basis/cc-pVnZ/Ca_6Z.basis
 
 Including file /global/homes/a/aannabe/repos/pseudopotentiallibrary/recipes/Ca/ccECP/Ca.ccECP.molpro
 Including file /global/homes/a/aannabe/repos/pseudopotentiallibrary/recipes/Ca/ccECP/Ca.cc-pCV6Z.molpro
 
 
 }
 
 {hf
 wf,10,1,0
 occ,2,1,1,0,1,0,0,0
 closed,2,1,1,0,1,0,0,0
 }
 scf(i)=energy
 
 _CC_NORM_MAX=2.0
 {rccsd(t)
 maxit,100
 core
 }
 posthf(i)=energy
 
 table,scf,posthf,ekin,pot
 save,6.csv,new
 
 

 Variables initialized (889), CPU time= 0.01 sec
 Commands  initialized (702), CPU time= 0.01 sec, 572 directives.
 Default parameters read. Elapsed time= 0.17 sec

 Checking input...
 Passed
1


                                         ***  PROGRAM SYSTEM MOLPRO  ***
                                       Copyright, TTI GmbH Stuttgart, 2015
                                    Version 2015.1 linked Dec 29 2018 15:55:43


 **********************************************************************************************************************************
 LABEL *   Ca                                                                            
  64 bit serial version                                                                  DATE: 08-Feb-19          TIME: 16:06:35  
 **********************************************************************************************************************************

 SHA1:             19cd028119e0e09f93f0674bd8af7968d9b3eff6
 **********************************************************************************************************************************

 THRESHOLDS:

 ZERO    =  1.00D-12  ONEINT  =  1.00D-12  TWOINT  =  1.00D-12  PREFAC  =  1.00D-14  LOCALI  =  1.00D-09  EORDER  =  1.00D-04
 ENERGY  =  0.00D+00  ETEST   =  0.00D+00  EDENS   =  0.00D+00  THRDEDEF=  1.00D-06  GRADIENT=  1.00D-02  STEP    =  1.00D-03
 ORBITAL =  1.00D-05  CIVEC   =  1.00D-05  COEFF   =  1.00D-04  PRINTCI =  5.00D-02  PUNCHCI =  9.90D+01  OPTGRAD =  3.00D-04
 OPTENERG=  1.00D-06  OPTSTEP =  3.00D-04  THRGRAD =  1.00D-10  COMPRESS=  1.00D-11  VARMIN  =  1.00D-07  VARMAX  =  1.00D-03
 THRDOUB =  0.00D+00  THRDIV  =  1.00D-05  THRRED  =  1.00D-07  THRPSP  =  1.00D+00  THRDC   =  1.00D-10  THRCS   =  1.00D-10
 THRNRM  =  1.00D-08  THREQ   =  0.00D+00  THRDE   =  1.00D+00  THRREF  =  1.00D-05  SPARFAC =  1.00D+00  THRDLP  =  1.00D-07
 THRDIA  =  1.00D-10  THRDLS  =  1.00D-07  THRGPS  =  0.00D+00  THRKEX  =  0.00D+00  THRDIS  =  2.00D-01  THRVAR  =  1.00D-10
 THRLOC  =  1.00D-06  THRGAP  =  1.00D-06  THRLOCT = -1.00D+00  THRGAPT = -1.00D+00  THRORB  =  1.00D-06  THRMLTP =  0.00D+00
 THRCPQCI=  1.00D-10  KEXTA   =  0.00D+00  THRCOARS=  0.00D+00  SYMTOL  =  1.00D-06  GRADTOL =  1.00D-06  THROVL  =  1.00D-08
 THRORTH =  1.00D-08  GRID    =  1.00D-06  GRIDMAX =  1.00D-03  DTMAX   =  0.00D+00  THROCCDE=  1.00D-01  THROCCDE=  1.00D-01



 ZUNIT=ANG
 

Geometry recognized as XYZ


 Variable memory set to 1024000000 words,  buffer space   230000 words

 SETTING BASIS          =    USERDEF


 Recomputing integrals since basis changed


 Using spherical harmonics



 PROGRAM * SEWARD (Integral evaluation for generally contracted gaussian basis sets)     Author: Roland Lindh, 1990

 Geometry written to block  1 of record 700

 Orientation using atomic masses  
 Molecule type: Atom
 Symmetry elements: X,Y,Z
 Rotational constants:       0.0000000      0.0000000      0.0000000 GHz  (calculated with average atomic masses)

 Point group  D2h 



 ATOMIC COORDINATES

 NR  ATOM    CHARGE       X              Y              Z

   1  CA     10.00    0.000000000    0.000000000    0.000000000


          CA  CORE POTENTIAL

          d POTENTIAL

 POWERS             1              3              2              2
 EXPONENTIALS   7.041332       14.01445       13.76936       4.717260    
 COEFFICIENTS   10.00000       70.41332      -92.87298      -5.753568    

          s - d POTENTIAL

 POWERS             2              2
 EXPONENTIALS   11.24017       5.353612    
 COEFFICIENTS   149.3026       23.75933    

          p - d POTENTIAL

 POWERS             2              2
 EXPONENTIALS   13.06655       4.027485    
 COEFFICIENTS   99.20411       13.45216    


 BASIS DATA

   Nr Sym  Nuc  Type         Exponents   Contraction coefficients

    1.1 Ag    1  1s          38.909972     0.000945   -0.000183
    2.1 Ag                   20.573489    -0.017709    0.004255
                             10.878148     0.143493   -0.037277
                              5.751777    -0.280351    0.077047
                              3.041228    -0.288477    0.078223
                              1.608037     0.172486   -0.051753
                              0.850243     0.552901   -0.174623
                              0.449563     0.467699   -0.253263
                              0.237704     0.099292   -0.160610
                              0.125685     0.006651    0.126548
                              0.066456    -0.001926    0.464877
                              0.035138     0.000961    0.478401
                              0.018579    -0.000244    0.156430
    3.1 Ag    1  1s           0.355000     1.000000
    4.1 Ag    1  1s           0.287300     1.000000
    5.1 Ag    1  1s           0.219600     1.000000
    6.1 Ag    1  1s           0.151900     1.000000
    7.1 Ag    1  1s           0.084200     1.000000
    8.1 Ag    1  1s           0.016500     1.000000
    9.1 Ag    1  1s           1.148063     1.000000
   10.1 Ag    1  1s           1.711600     1.000000
   11.1 Ag    1  1s           2.551754     1.000000
   12.1 Ag    1  1s           3.804306     1.000000
   13.1 Ag    1  1s           5.671684     1.000000
   14.1 Ag    1  1s           8.455681     1.000000
   15.1 Ag    1  3d0         28.997930     0.002278
                             13.712713     0.011973
                              6.484549     0.022732
                              3.066452     0.069977
                              1.450082     0.125887
                              0.685723     0.175971
                              0.324269     0.209627
                              0.153342     0.256615
                              0.072513     0.288741
                              0.034291     0.224779
                              0.016216     0.082948
   16.1 Ag    1  3d2+        28.997930     0.002278
                             13.712713     0.011973
                              6.484549     0.022732
                              3.066452     0.069977
                              1.450082     0.125887
                              0.685723     0.175971
                              0.324269     0.209627
                              0.153342     0.256615
                              0.072513     0.288741
                              0.034291     0.224779
                              0.016216     0.082948
   17.1 Ag    1  3d0          0.737500     1.000000
   18.1 Ag    1  3d2+         0.737500     1.000000
   19.1 Ag    1  3d0          0.558700     1.000000
   20.1 Ag    1  3d2+         0.558700     1.000000
   21.1 Ag    1  3d0          0.380000     1.000000
   22.1 Ag    1  3d2+         0.380000     1.000000
   23.1 Ag    1  3d0          0.201200     1.000000
   24.1 Ag    1  3d2+         0.201200     1.000000
   25.1 Ag    1  3d0          0.022500     1.000000
   26.1 Ag    1  3d2+         0.022500     1.000000
   27.1 Ag    1  3d0          1.224831     1.000000
   28.1 Ag    1  3d2+         1.224831     1.000000
   29.1 Ag    1  3d0          2.372836     1.000000
   30.1 Ag    1  3d2+         2.372836     1.000000
   31.1 Ag    1  3d0          4.596838     1.000000
   32.1 Ag    1  3d2+         4.596838     1.000000
   33.1 Ag    1  3d0          8.905343     1.000000
   34.1 Ag    1  3d2+         8.905343     1.000000
   35.1 Ag    1  3d0         17.252108     1.000000
   36.1 Ag    1  3d2+        17.252108     1.000000
   37.1 Ag    1  5g0          0.382800     1.000000
   38.1 Ag    1  5g4+         0.382800     1.000000
   39.1 Ag    1  5g2+         0.382800     1.000000
   40.1 Ag    1  5g0          0.220400     1.000000
   41.1 Ag    1  5g4+         0.220400     1.000000
   42.1 Ag    1  5g2+         0.220400     1.000000
   43.1 Ag    1  5g0          0.058000     1.000000
   44.1 Ag    1  5g4+         0.058000     1.000000
   45.1 Ag    1  5g2+         0.058000     1.000000
   46.1 Ag    1  5g0          1.164229     1.000000
   47.1 Ag    1  5g4+         1.164229     1.000000
   48.1 Ag    1  5g2+         1.164229     1.000000
   49.1 Ag    1  5g0          1.977922     1.000000
   50.1 Ag    1  5g4+         1.977922     1.000000
   51.1 Ag    1  5g2+         1.977922     1.000000
   52.1 Ag    1  5g0          3.360313     1.000000
   53.1 Ag    1  5g4+         3.360313     1.000000
   54.1 Ag    1  5g2+         3.360313     1.000000
   55.1 Ag    1  7i6+         0.600000     1.000000
   56.1 Ag    1  7i4+         0.600000     1.000000
   57.1 Ag    1  7i2+         0.600000     1.000000
   58.1 Ag    1  7i0          0.600000     1.000000
   59.1 Ag    1  7i6+         2.486037     1.000000
   60.1 Ag    1  7i4+         2.486037     1.000000
   61.1 Ag    1  7i2+         2.486037     1.000000
   62.1 Ag    1  7i0          2.486037     1.000000
    1.2 B3u   1  2px         31.519451    -0.000131    0.000021
    2.2 B3u                  15.831494     0.005811   -0.001246
                              7.951795    -0.044610    0.010111
                              3.994003    -0.042392    0.008943
                              2.006096     0.180288   -0.044587
                              1.007616     0.407474   -0.096275
                              0.506102     0.386467   -0.113007
                              0.254203     0.154522   -0.065333
                              0.127681     0.017068    0.146809
                              0.064131     0.003160    0.441198
                              0.032211    -0.000225    0.427632
                              0.016179     0.000168    0.125197
    3.2 B3u   1  2px          0.707100     1.000000
    4.2 B3u   1  2px          0.569200     1.000000
    5.2 B3u   1  2px          0.431400     1.000000
    6.2 B3u   1  2px          0.293600     1.000000
    7.2 B3u   1  2px          0.155800     1.000000
    8.2 B3u   1  2px          0.018000     1.000000
    9.2 B3u   1  2px          0.920576     1.000000
   10.2 B3u   1  2px          1.621148     1.000000
   11.2 B3u   1  2px          2.854866     1.000000
   12.2 B3u   1  2px          5.027462     1.000000
   13.2 B3u   1  2px          8.853436     1.000000
   14.2 B3u   1  2px         15.591034     1.000000
   15.2 B3u   1  4f1+         0.970900     1.000000
   16.2 B3u   1  4f3+         0.970900     1.000000
   17.2 B3u   1  4f1+         0.663900     1.000000
   18.2 B3u   1  4f3+         0.663900     1.000000
   19.2 B3u   1  4f1+         0.356900     1.000000
   20.2 B3u   1  4f3+         0.356900     1.000000
   21.2 B3u   1  4f1+         0.050000     1.000000
   22.2 B3u   1  4f3+         0.050000     1.000000
   23.2 B3u   1  4f1+         1.646529     1.000000
   24.2 B3u   1  4f3+         1.646529     1.000000
   25.2 B3u   1  4f1+         2.443237     1.000000
   26.2 B3u   1  4f3+         2.443237     1.000000
   27.2 B3u   1  4f1+         3.625448     1.000000
   28.2 B3u   1  4f3+         3.625448     1.000000
   29.2 B3u   1  4f1+         5.379697     1.000000
   30.2 B3u   1  4f3+         5.379697     1.000000
   31.2 B3u   1  6h1+         0.564700     1.000000
   32.2 B3u   1  6h3+         0.564700     1.000000
   33.2 B3u   1  6h5+         0.564700     1.000000
   34.2 B3u   1  6h1+         0.187400     1.000000
   35.2 B3u   1  6h3+         0.187400     1.000000
   36.2 B3u   1  6h5+         0.187400     1.000000
   37.2 B3u   1  6h1+         1.686147     1.000000
   38.2 B3u   1  6h3+         1.686147     1.000000
   39.2 B3u   1  6h5+         1.686147     1.000000
   40.2 B3u   1  6h1+         3.116489     1.000000
   41.2 B3u   1  6h3+         3.116489     1.000000
   42.2 B3u   1  6h5+         3.116489     1.000000
    1.3 B2u   1  2py         31.519451    -0.000131    0.000021
    2.3 B2u                  15.831494     0.005811   -0.001246
                              7.951795    -0.044610    0.010111
                              3.994003    -0.042392    0.008943
                              2.006096     0.180288   -0.044587
                              1.007616     0.407474   -0.096275
                              0.506102     0.386467   -0.113007
                              0.254203     0.154522   -0.065333
                              0.127681     0.017068    0.146809
                              0.064131     0.003160    0.441198
                              0.032211    -0.000225    0.427632
                              0.016179     0.000168    0.125197
    3.3 B2u   1  2py          0.707100     1.000000
    4.3 B2u   1  2py          0.569200     1.000000
    5.3 B2u   1  2py          0.431400     1.000000
    6.3 B2u   1  2py          0.293600     1.000000
    7.3 B2u   1  2py          0.155800     1.000000
    8.3 B2u   1  2py          0.018000     1.000000
    9.3 B2u   1  2py          0.920576     1.000000
   10.3 B2u   1  2py          1.621148     1.000000
   11.3 B2u   1  2py          2.854866     1.000000
   12.3 B2u   1  2py          5.027462     1.000000
   13.3 B2u   1  2py          8.853436     1.000000
   14.3 B2u   1  2py         15.591034     1.000000
   15.3 B2u   1  4f1-         0.970900     1.000000
   16.3 B2u   1  4f3-         0.970900     1.000000
   17.3 B2u   1  4f1-         0.663900     1.000000
   18.3 B2u   1  4f3-         0.663900     1.000000
   19.3 B2u   1  4f1-         0.356900     1.000000
   20.3 B2u   1  4f3-         0.356900     1.000000
   21.3 B2u   1  4f1-         0.050000     1.000000
   22.3 B2u   1  4f3-         0.050000     1.000000
   23.3 B2u   1  4f1-         1.646529     1.000000
   24.3 B2u   1  4f3-         1.646529     1.000000
   25.3 B2u   1  4f1-         2.443237     1.000000
   26.3 B2u   1  4f3-         2.443237     1.000000
   27.3 B2u   1  4f1-         3.625448     1.000000
   28.3 B2u   1  4f3-         3.625448     1.000000
   29.3 B2u   1  4f1-         5.379697     1.000000
   30.3 B2u   1  4f3-         5.379697     1.000000
   31.3 B2u   1  6h1-         0.564700     1.000000
   32.3 B2u   1  6h3-         0.564700     1.000000
   33.3 B2u   1  6h5-         0.564700     1.000000
   34.3 B2u   1  6h1-         0.187400     1.000000
   35.3 B2u   1  6h3-         0.187400     1.000000
   36.3 B2u   1  6h5-         0.187400     1.000000
   37.3 B2u   1  6h1-         1.686147     1.000000
   38.3 B2u   1  6h3-         1.686147     1.000000
   39.3 B2u   1  6h5-         1.686147     1.000000
   40.3 B2u   1  6h1-         3.116489     1.000000
   41.3 B2u   1  6h3-         3.116489     1.000000
   42.3 B2u   1  6h5-         3.116489     1.000000
    1.4 B1g   1  3d2-        28.997930     0.002278
                             13.712713     0.011973
                              6.484549     0.022732
                              3.066452     0.069977
                              1.450082     0.125887
                              0.685723     0.175971
                              0.324269     0.209627
                              0.153342     0.256615
                              0.072513     0.288741
                              0.034291     0.224779
                              0.016216     0.082948
    2.4 B1g   1  3d2-         0.737500     1.000000
    3.4 B1g   1  3d2-         0.558700     1.000000
    4.4 B1g   1  3d2-         0.380000     1.000000
    5.4 B1g   1  3d2-         0.201200     1.000000
    6.4 B1g   1  3d2-         0.022500     1.000000
    7.4 B1g   1  3d2-         1.224831     1.000000
    8.4 B1g   1  3d2-         2.372836     1.000000
    9.4 B1g   1  3d2-         4.596838     1.000000
   10.4 B1g   1  3d2-         8.905343     1.000000
   11.4 B1g   1  3d2-        17.252108     1.000000
   12.4 B1g   1  5g2-         0.382800     1.000000
   13.4 B1g   1  5g4-         0.382800     1.000000
   14.4 B1g   1  5g2-         0.220400     1.000000
   15.4 B1g   1  5g4-         0.220400     1.000000
   16.4 B1g   1  5g2-         0.058000     1.000000
   17.4 B1g   1  5g4-         0.058000     1.000000
   18.4 B1g   1  5g2-         1.164229     1.000000
   19.4 B1g   1  5g4-         1.164229     1.000000
   20.4 B1g   1  5g2-         1.977922     1.000000
   21.4 B1g   1  5g4-         1.977922     1.000000
   22.4 B1g   1  5g2-         3.360313     1.000000
   23.4 B1g   1  5g4-         3.360313     1.000000
   24.4 B1g   1  7i2-         0.600000     1.000000
   25.4 B1g   1  7i6-         0.600000     1.000000
   26.4 B1g   1  7i4-         0.600000     1.000000
   27.4 B1g   1  7i2-         2.486037     1.000000
   28.4 B1g   1  7i6-         2.486037     1.000000
   29.4 B1g   1  7i4-         2.486037     1.000000
    1.5 B1u   1  2pz         31.519451    -0.000131    0.000021
    2.5 B1u                  15.831494     0.005811   -0.001246
                              7.951795    -0.044610    0.010111
                              3.994003    -0.042392    0.008943
                              2.006096     0.180288   -0.044587
                              1.007616     0.407474   -0.096275
                              0.506102     0.386467   -0.113007
                              0.254203     0.154522   -0.065333
                              0.127681     0.017068    0.146809
                              0.064131     0.003160    0.441198
                              0.032211    -0.000225    0.427632
                              0.016179     0.000168    0.125197
    3.5 B1u   1  2pz          0.707100     1.000000
    4.5 B1u   1  2pz          0.569200     1.000000
    5.5 B1u   1  2pz          0.431400     1.000000
    6.5 B1u   1  2pz          0.293600     1.000000
    7.5 B1u   1  2pz          0.155800     1.000000
    8.5 B1u   1  2pz          0.018000     1.000000
    9.5 B1u   1  2pz          0.920576     1.000000
   10.5 B1u   1  2pz          1.621148     1.000000
   11.5 B1u   1  2pz          2.854866     1.000000
   12.5 B1u   1  2pz          5.027462     1.000000
   13.5 B1u   1  2pz          8.853436     1.000000
   14.5 B1u   1  2pz         15.591034     1.000000
   15.5 B1u   1  4f0          0.970900     1.000000
   16.5 B1u   1  4f2+         0.970900     1.000000
   17.5 B1u   1  4f0          0.663900     1.000000
   18.5 B1u   1  4f2+         0.663900     1.000000
   19.5 B1u   1  4f0          0.356900     1.000000
   20.5 B1u   1  4f2+         0.356900     1.000000
   21.5 B1u   1  4f0          0.050000     1.000000
   22.5 B1u   1  4f2+         0.050000     1.000000
   23.5 B1u   1  4f0          1.646529     1.000000
   24.5 B1u   1  4f2+         1.646529     1.000000
   25.5 B1u   1  4f0          2.443237     1.000000
   26.5 B1u   1  4f2+         2.443237     1.000000
   27.5 B1u   1  4f0          3.625448     1.000000
   28.5 B1u   1  4f2+         3.625448     1.000000
   29.5 B1u   1  4f0          5.379697     1.000000
   30.5 B1u   1  4f2+         5.379697     1.000000
   31.5 B1u   1  6h2+         0.564700     1.000000
   32.5 B1u   1  6h4+         0.564700     1.000000
   33.5 B1u   1  6h0          0.564700     1.000000
   34.5 B1u   1  6h2+         0.187400     1.000000
   35.5 B1u   1  6h4+         0.187400     1.000000
   36.5 B1u   1  6h0          0.187400     1.000000
   37.5 B1u   1  6h2+         1.686147     1.000000
   38.5 B1u   1  6h4+         1.686147     1.000000
   39.5 B1u   1  6h0          1.686147     1.000000
   40.5 B1u   1  6h2+         3.116489     1.000000
   41.5 B1u   1  6h4+         3.116489     1.000000
   42.5 B1u   1  6h0          3.116489     1.000000
    1.6 B2g   1  3d1+        28.997930     0.002278
                             13.712713     0.011973
                              6.484549     0.022732
                              3.066452     0.069977
                              1.450082     0.125887
                              0.685723     0.175971
                              0.324269     0.209627
                              0.153342     0.256615
                              0.072513     0.288741
                              0.034291     0.224779
                              0.016216     0.082948
    2.6 B2g   1  3d1+         0.737500     1.000000
    3.6 B2g   1  3d1+         0.558700     1.000000
    4.6 B2g   1  3d1+         0.380000     1.000000
    5.6 B2g   1  3d1+         0.201200     1.000000
    6.6 B2g   1  3d1+         0.022500     1.000000
    7.6 B2g   1  3d1+         1.224831     1.000000
    8.6 B2g   1  3d1+         2.372836     1.000000
    9.6 B2g   1  3d1+         4.596838     1.000000
   10.6 B2g   1  3d1+         8.905343     1.000000
   11.6 B2g   1  3d1+        17.252108     1.000000
   12.6 B2g   1  5g1+         0.382800     1.000000
   13.6 B2g   1  5g3+         0.382800     1.000000
   14.6 B2g   1  5g1+         0.220400     1.000000
   15.6 B2g   1  5g3+         0.220400     1.000000
   16.6 B2g   1  5g1+         0.058000     1.000000
   17.6 B2g   1  5g3+         0.058000     1.000000
   18.6 B2g   1  5g1+         1.164229     1.000000
   19.6 B2g   1  5g3+         1.164229     1.000000
   20.6 B2g   1  5g1+         1.977922     1.000000
   21.6 B2g   1  5g3+         1.977922     1.000000
   22.6 B2g   1  5g1+         3.360313     1.000000
   23.6 B2g   1  5g3+         3.360313     1.000000
   24.6 B2g   1  7i5+         0.600000     1.000000
   25.6 B2g   1  7i3+         0.600000     1.000000
   26.6 B2g   1  7i1+         0.600000     1.000000
   27.6 B2g   1  7i5+         2.486037     1.000000
   28.6 B2g   1  7i3+         2.486037     1.000000
   29.6 B2g   1  7i1+         2.486037     1.000000
    1.7 B3g   1  3d1-        28.997930     0.002278
                             13.712713     0.011973
                              6.484549     0.022732
                              3.066452     0.069977
                              1.450082     0.125887
                              0.685723     0.175971
                              0.324269     0.209627
                              0.153342     0.256615
                              0.072513     0.288741
                              0.034291     0.224779
                              0.016216     0.082948
    2.7 B3g   1  3d1-         0.737500     1.000000
    3.7 B3g   1  3d1-         0.558700     1.000000
    4.7 B3g   1  3d1-         0.380000     1.000000
    5.7 B3g   1  3d1-         0.201200     1.000000
    6.7 B3g   1  3d1-         0.022500     1.000000
    7.7 B3g   1  3d1-         1.224831     1.000000
    8.7 B3g   1  3d1-         2.372836     1.000000
    9.7 B3g   1  3d1-         4.596838     1.000000
   10.7 B3g   1  3d1-         8.905343     1.000000
   11.7 B3g   1  3d1-        17.252108     1.000000
   12.7 B3g   1  5g1-         0.382800     1.000000
   13.7 B3g   1  5g3-         0.382800     1.000000
   14.7 B3g   1  5g1-         0.220400     1.000000
   15.7 B3g   1  5g3-         0.220400     1.000000
   16.7 B3g   1  5g1-         0.058000     1.000000
   17.7 B3g   1  5g3-         0.058000     1.000000
   18.7 B3g   1  5g1-         1.164229     1.000000
   19.7 B3g   1  5g3-         1.164229     1.000000
   20.7 B3g   1  5g1-         1.977922     1.000000
   21.7 B3g   1  5g3-         1.977922     1.000000
   22.7 B3g   1  5g1-         3.360313     1.000000
   23.7 B3g   1  5g3-         3.360313     1.000000
   24.7 B3g   1  7i5-         0.600000     1.000000
   25.7 B3g   1  7i3-         0.600000     1.000000
   26.7 B3g   1  7i1-         0.600000     1.000000
   27.7 B3g   1  7i5-         2.486037     1.000000
   28.7 B3g   1  7i3-         2.486037     1.000000
   29.7 B3g   1  7i1-         2.486037     1.000000
    1.8 Au    1  4f2-         0.970900     1.000000
    2.8 Au    1  4f2-         0.663900     1.000000
    3.8 Au    1  4f2-         0.356900     1.000000
    4.8 Au    1  4f2-         0.050000     1.000000
    5.8 Au    1  4f2-         1.646529     1.000000
    6.8 Au    1  4f2-         2.443237     1.000000
    7.8 Au    1  4f2-         3.625448     1.000000
    8.8 Au    1  4f2-         5.379697     1.000000
    9.8 Au    1  6h4-         0.564700     1.000000
   10.8 Au    1  6h2-         0.564700     1.000000
   11.8 Au    1  6h4-         0.187400     1.000000
   12.8 Au    1  6h2-         0.187400     1.000000
   13.8 Au    1  6h4-         1.686147     1.000000
   14.8 Au    1  6h2-         1.686147     1.000000
   15.8 Au    1  6h4-         3.116489     1.000000
   16.8 Au    1  6h2-         3.116489     1.000000

 NUCLEAR CHARGE:                   10
 NUMBER OF PRIMITIVE AOS:         533
 NUMBER OF SYMMETRY AOS:          382
 NUMBER OF CONTRACTIONS:          291   (  62Ag  +  42B3u +  42B2u +  29B1g +  42B1u +  29B2g +  29B3g +  16Au  )
 NUMBER OF CORE ORBITALS:           4   (   1Ag  +   1B3u +   1B2u +   0B1g +   1B1u +   0B2g +   0B3g +   0Au  )
 NUMBER OF VALENCE ORBITALS:        1   (   1Ag  +   0B3u +   0B2u +   0B1g +   0B1u +   0B2g +   0B3g +   0Au  )


 NUCLEAR REPULSION ENERGY    0.00000000

 EXTRA SYMMETRY OF AOS IN SYMMETRY 1:   1 1 1 1 1 1 1 1 1 1   1 1 1 1 2 3 2 3 2 3   2 3 2 3 2 3 2 3 2 3   2 3 2 3 2 3 4 5 6 4
                                        5 6 4 5 6 4 5 6 4 5   6 4 5 6 7 8 910 7 8   910
 EXTRA SYMMETRY OF AOS IN SYMMETRY 2:   1 1 1 1 1 1 1 1 1 1   1 1 1 1 2 3 2 3 2 3   2 3 2 3 2 3 2 3 2 3   4 5 6 4 5 6 4 5 6 4
                                        5 6
 EXTRA SYMMETRY OF AOS IN SYMMETRY 3:   1 1 1 1 1 1 1 1 1 1   1 1 1 1 2 3 2 3 2 3   2 3 2 3 2 3 2 3 2 3   4 5 6 4 5 6 4 5 6 4
                                        5 6
 EXTRA SYMMETRY OF AOS IN SYMMETRY 4:   1 1 1 1 1 1 1 1 1 1   1 2 3 2 3 2 3 2 3 2   3 2 3 4 5 6 4 5 6
 EXTRA SYMMETRY OF AOS IN SYMMETRY 5:   1 1 1 1 1 1 1 1 1 1   1 1 1 1 2 3 2 3 2 3   2 3 2 3 2 3 2 3 2 3   4 5 6 4 5 6 4 5 6 4
                                        5 6
 EXTRA SYMMETRY OF AOS IN SYMMETRY 6:   1 1 1 1 1 1 1 1 1 1   1 2 3 2 3 2 3 2 3 2   3 2 3 4 5 6 4 5 6
 EXTRA SYMMETRY OF AOS IN SYMMETRY 7:   1 1 1 1 1 1 1 1 1 1   1 2 3 2 3 2 3 2 3 2   3 2 3 4 5 6 4 5 6
 EXTRA SYMMETRY OF AOS IN SYMMETRY 8:   1 1 1 1 1 1 1 1 2 3   2 3 2 3 2 3

 Eigenvalues of metric

         1 0.642E-07 0.849E-06 0.483E-05 0.360E-04 0.587E-04 0.587E-04 0.208E-03 0.104E-02
         2 0.294E-07 0.129E-06 0.114E-04 0.209E-03 0.256E-03 0.256E-03 0.111E-02 0.310E-02
         3 0.294E-07 0.129E-06 0.114E-04 0.209E-03 0.256E-03 0.256E-03 0.111E-02 0.310E-02
         4 0.587E-04 0.200E-02 0.921E-02 0.266E-01 0.304E-01 0.304E-01 0.625E-01 0.129E+00
         5 0.294E-07 0.129E-06 0.114E-04 0.209E-03 0.256E-03 0.256E-03 0.111E-02 0.310E-02
         6 0.587E-04 0.200E-02 0.921E-02 0.266E-01 0.304E-01 0.304E-01 0.625E-01 0.129E+00
         7 0.587E-04 0.200E-02 0.921E-02 0.266E-01 0.304E-01 0.304E-01 0.625E-01 0.129E+00
         8 0.256E-03 0.310E-02 0.252E-01 0.162E+00 0.196E+00 0.196E+00 0.583E+00 0.605E+00


 Contracted 2-electron integrals neglected if value below      1.0D-13
 AO integral compression algorithm  1   Integral accuracy      1.0D-13

     783.024 MB (compressed) written to integral file ( 55.1%)


 NUMBER OF SORTED TWO-ELECTRON INTEGRALS:  114976372.     BUFFER LENGTH:  32768
 NUMBER OF SEGMENTS:   8  SEGMENT LENGTH:   15999984      RECORD LENGTH: 524288

 Memory used in sort:      16.56 MW

 SORT1 READ   177787227. AND WROTE    76031627. INTEGRALS IN    223 RECORDS. CPU TIME:     6.21 SEC, REAL TIME:     8.55 SEC
 SORT2 READ    76031627. AND WROTE   114976372. INTEGRALS IN   2987 RECORDS. CPU TIME:     3.21 SEC, REAL TIME:     5.33 SEC

 FILE SIZES:   FILE 1:   804.8 MBYTE,  FILE 4:   935.4 MBYTE,   TOTAL:   1740.2 MBYTE

 OPERATOR DM      FOR CENTER  0  COORDINATES:    0.000000    0.000000    0.000000
 OPERATOR EKIN    FOR CENTER  0  COORDINATES:    0.000000    0.000000    0.000000
 OPERATOR POT     FOR CENTER  0  COORDINATES:    0.000000    0.000000    0.000000


 **********************************************************************************************************************************
 DATASETS  * FILE   NREC   LENGTH (MB)   RECORD NAMES
              1      20      517.58       500      610      700      900      950      970     1000      129      960     1100   
                                          VAR    BASINP    GEOM    SYMINP    ZMAT    AOBASIS   BASIS     P2S    ABASIS      S 
                                         1400     1410     1420     1200     1210     1080     1600     1650     1300     1700   
                                         EKIN       V       ECP      H0       H01     AOSYM     SMH    MOLCAS    ERIS     OPER   

 PROGRAMS   *        TOTAL       INT
 CPU TIMES  *       104.91    104.76
 REAL TIME  *       117.34 SEC
 DISK USED  *         1.74 GB      
 **********************************************************************************************************************************


 PROGRAM * RHF-SCF (CLOSED SHELL)       Authors: W. Meyer, H.-J. Werner


 NUMBER OF ELECTRONS:       5+    5-    SPACE SYMMETRY=1    SPIN SYMMETRY: Singlet 
 CONVERGENCE THRESHOLDS:    1.00E-05 (Density)    1.00E-07 (Energy)
 MAX. NUMBER OF ITERATIONS:       60
 INTERPOLATION TYPE:            DIIS
 INTERPOLATION STEPS:              2 (START)      1 (STEP)
 LEVEL SHIFTS:                  0.00 (CLOSED)  0.00 (OPEN) 

 Number of closed-shell orbitals:    5 (   2   1   1   0   1   0   0   0 )



   Atom=CA basis=ECP10MDF_GUESS    lmin=0  lmax=1

 Orbital guess generated from atomic densities. Full valence occupancy:    2   1   1   0   1   0   0   0


 Molecular orbital dump at record        2100.2

 ITERATION    DDIFF          GRAD             ENERGY        2-EL.EN.            DIPOLE MOMENTS         DIIS   ORB.
    1      0.000D+00      0.000D+00       -36.34969541     46.648368    0.00000    0.00000    0.00000    0    start
    2      0.000D+00      0.607D-03       -36.34973416     46.687257    0.00000    0.00000    0.00000    1    diag
    3      0.335D-02      0.860D-04       -36.34973517     46.679922    0.00000    0.00000    0.00000    2    diag
    4      0.207D-03      0.109D-04       -36.34973523     46.679574    0.00000    0.00000    0.00000    3    diag
    5      0.295D-04      0.236D-05       -36.34973523     46.679131    0.00000    0.00000    0.00000    4    diag
    6      0.121D-04      0.245D-06       -36.34973523     46.679064    0.00000    0.00000    0.00000    5    diag
    7      0.243D-05      0.310D-07       -36.34973523     46.679060    0.00000    0.00000    0.00000    0    orth

 Final occupancy:   2   1   1   0   1   0   0   0

 !RHF STATE 1.1 Energy                -36.349735232872
 Nuclear energy                         0.00000000
 One-electron energy                  -59.68926508
 Two-electron energy                   23.33952985
 Virial quotient                       -2.70639549
 !RHF STATE 1.1 Dipole moment           0.00000000     0.00000000     0.00000000
 Dipole moment /Debye                   0.00000000     0.00000000     0.00000000
 

 !RHF expec          <1.1|EKIN|1.1>    13.431050749178
 
 !RHF expec           <1.1|POT|1.1>    -7.946878169966

 ELECTRON ORBITALS
 =================


   Orb  Occ    Energy  Couls-En    Coefficients

                                   1 1s      1 1s      1 1s      1 1s      1 1s      1 1s      1 1s      1 1s      1 1s      1 1s   
                                   1 1s      1 1s      1 1s      1 1s      1 3d0     1 3d2+    1 3d0     1 3d2+    1 3d0     1 3d2+ 
                                   1 3d0     1 3d2+    1 3d0     1 3d2+    1 3d0     1 3d2+    1 3d0     1 3d2+    1 3d0     1 3d2+ 
                                   1 3d0     1 3d2+    1 3d0     1 3d2+    1 3d0     1 3d2+    1 5g0     1 5g4+    1 5g2+    1 5g0  
                                   1 5g4+    1 5g2+    1 5g0     1 5g4+    1 5g2+    1 5g0     1 5g4+    1 5g2+    1 5g0     1 5g4+ 
                                   1 5g2+    1 5g0     1 5g4+    1 5g2+    1 7i6+    1 7i4+    1 7i2+    1 7i0     1 7i6+    1 7i4+ 
                                   1 7i2+    1 7i0  

   1.1   2    -2.2832   -9.7935  1.004160 -0.001945  0.033542 -0.085295  0.074460 -0.030113  0.007203  0.000498 -0.007408  0.003284
                                 0.002024 -0.002707  0.003787 -0.001450  0.000000 -0.000000  0.000000  0.000000 -0.000000 -0.000000
                                 0.000000  0.000000 -0.000000 -0.000000 -0.000000 -0.000000 -0.000000  0.000000  0.000000  0.000000
                                -0.000000  0.000000 -0.000000  0.000000 -0.000000  0.000000  0.000000  0.000000 -0.000000 -0.000000
                                -0.000000  0.000000 -0.000000 -0.000000 -0.000000 -0.000000 -0.000000  0.000000  0.000000  0.000000
                                -0.000000 -0.000000 -0.000000  0.000000 -0.000000  0.000000  0.000000 -0.000000  0.000000 -0.000000
                                -0.000000  0.000000

   2.1   2    -0.1958   -2.7935 -0.006569  0.998016  0.041353 -0.080071  0.062986 -0.024028  0.006152  0.000604  0.002094  0.000663
                                -0.000810 -0.000992 -0.002126  0.001228  0.000000 -0.000000  0.000000 -0.000000 -0.000000 -0.000000
                                 0.000000 -0.000000 -0.000000 -0.000000 -0.000000  0.000000 -0.000000 -0.000000  0.000000 -0.000000
                                -0.000000 -0.000000  0.000000 -0.000000 -0.000000 -0.000000  0.000000  0.000000  0.000000 -0.000000
                                -0.000000 -0.000000  0.000000  0.000000 -0.000000 -0.000000  0.000000  0.000000  0.000000 -0.000000
                                -0.000000 -0.000000  0.000000  0.000000 -0.000000  0.000000  0.000000 -0.000000  0.000000 -0.000000
                                -0.000000  0.000000

                                   1 2px     1 2px     1 2px     1 2px     1 2px     1 2px     1 2px     1 2px     1 2px     1 2px  
                                   1 2px     1 2px     1 2px     1 2px     1 4f1+    1 4f3+    1 4f1+    1 4f3+    1 4f1+    1 4f3+ 
                                   1 4f1+    1 4f3+    1 4f1+    1 4f3+    1 4f1+    1 4f3+    1 4f1+    1 4f3+    1 4f1+    1 4f3+ 
                                   1 6h1+    1 6h3+    1 6h5+    1 6h1+    1 6h3+    1 6h5+    1 6h1+    1 6h3+    1 6h5+    1 6h1+ 
                                   1 6h3+    1 6h5+ 

   1.2   2    -1.3420   -7.9209  0.509319  0.001633 -0.038177  0.157059  0.040350  0.080112  0.020253 -0.000456  0.174985  0.109097
                                 0.015979 -0.025166 -0.014668  0.003103  0.000000  0.000000 -0.000000  0.000000  0.000000  0.000000
                                -0.000000 -0.000000 -0.000000 -0.000000  0.000000  0.000000 -0.000000 -0.000000  0.000000  0.000000
                                -0.000000 -0.000000  0.000000 -0.000000  0.000000 -0.000000  0.000000 -0.000000 -0.000000  0.000000
                                 0.000000 -0.000000

                                   1 2py     1 2py     1 2py     1 2py     1 2py     1 2py     1 2py     1 2py     1 2py     1 2py  
                                   1 2py     1 2py     1 2py     1 2py     1 4f1-    1 4f3-    1 4f1-    1 4f3-    1 4f1-    1 4f3- 
                                   1 4f1-    1 4f3-    1 4f1-    1 4f3-    1 4f1-    1 4f3-    1 4f1-    1 4f3-    1 4f1-    1 4f3- 
                                   1 6h1-    1 6h3-    1 6h5-    1 6h1-    1 6h3-    1 6h5-    1 6h1-    1 6h3-    1 6h5-    1 6h1- 
                                   1 6h3-    1 6h5- 

   1.3   2    -1.3420   -7.9209  0.509319  0.001633 -0.038177  0.157059  0.040350  0.080112  0.020253 -0.000456  0.174985  0.109097
                                 0.015979 -0.025166 -0.014668  0.003103  0.000000 -0.000000 -0.000000  0.000000  0.000000  0.000000
                                -0.000000  0.000000 -0.000000  0.000000  0.000000 -0.000000 -0.000000  0.000000  0.000000 -0.000000
                                -0.000000  0.000000  0.000000 -0.000000 -0.000000 -0.000000  0.000000 -0.000000 -0.000000 -0.000000
                                 0.000000  0.000000

                                   1 2pz     1 2pz     1 2pz     1 2pz     1 2pz     1 2pz     1 2pz     1 2pz     1 2pz     1 2pz  
                                   1 2pz     1 2pz     1 2pz     1 2pz     1 4f0     1 4f2+    1 4f0     1 4f2+    1 4f0     1 4f2+ 
                                   1 4f0     1 4f2+    1 4f0     1 4f2+    1 4f0     1 4f2+    1 4f0     1 4f2+    1 4f0     1 4f2+ 
                                   1 6h2+    1 6h4+    1 6h0     1 6h2+    1 6h4+    1 6h0     1 6h2+    1 6h4+    1 6h0     1 6h2+ 
                                   1 6h4+    1 6h0  

   1.5   2    -1.3420   -7.9209  0.509319  0.001633 -0.038177  0.157059  0.040350  0.080112  0.020253 -0.000456  0.174985  0.109097
                                 0.015979 -0.025166 -0.014668  0.003103  0.000000 -0.000000 -0.000000  0.000000  0.000000  0.000000
                                -0.000000 -0.000000 -0.000000 -0.000000  0.000000  0.000000 -0.000000 -0.000000  0.000000  0.000000
                                -0.000000  0.000000 -0.000000  0.000000 -0.000000 -0.000000  0.000000 -0.000000  0.000000  0.000000
                                 0.000000 -0.000000

 HOMO      2.1    -0.195785 =      -5.3276eV
 LUMO      2.2     0.017260 =       0.4697eV
 LUMO-HOMO         0.213045 =       5.7972eV


 **********************************************************************************************************************************
 DATASETS  * FILE   NREC   LENGTH (MB)   RECORD NAMES
              1      20      517.58       500      610      700      900      950      970     1000      129      960     1100   
                                          VAR    BASINP    GEOM    SYMINP    ZMAT    AOBASIS   BASIS     P2S    ABASIS      S 
                                         1400     1410     1420     1200     1210     1080     1600     1650     1300     1700   
                                         EKIN       V       ECP      H0       H01     AOSYM     SMH    MOLCAS    ERIS     OPER   

              2       4        3.05       700     1000      520     2100   
                                         GEOM     BASIS   MCVARS     RHF  

 PROGRAMS   *        TOTAL        HF       INT
 CPU TIMES  *       107.42      2.51    104.76
 REAL TIME  *       120.39 SEC
 DISK USED  *         1.74 GB      
 **********************************************************************************************************************************
 SETTING SCF(I)         =       -36.34973523  AU                              
 SETTING _CC_NORM_MAX   =         2.00000000                                  


 PROGRAM * CCSD (Restricted open-shell coupled cluster)     Authors: C. Hampel, H.-J. Werner, 1991, M. Deegan, P.J. Knowles, 1992


 Convergence thresholds:  THRVAR = 1.00D-08  THRDEN = 1.00D-06

 CCSD(T)     terms to be evaluated (factor= 1.000)


 Number of closed-shell orbitals:   5 (   2   1   1   0   1   0   0   0 )
 Number of external orbitals:     286 (  60  41  41  29  41  29  29  16 )

 Memory could be reduced to 34.91 Mwords without degradation in triples

 Number of N-1 electron functions:              10
 Number of N-2 electron functions:              45
 Number of singly external CSFs:               486
 Number of doubly external CSFs:            370486
 Total number of CSFs:                      370972

 Molecular orbitals read from record     2100.2  Type=RHF/CANONICAL (state 1.1)

 Integral transformation finished. Total CPU:   1.61 sec, npass=  1  Memory used:   5.33 MW

 Starting RMP2 calculation

 Wavefunction is spin-projected

 ITER.      SQ.NORM     CORR.ENERGY   TOTAL ENERGY   ENERGY CHANGE        DEN1      VAR(S)    VAR(P)  DIIS     TIME
   1      1.09891228    -0.34196784   -36.69170307    -0.34196784    -0.00159661  0.54D-13  0.15D-02  1  1     1.64
   2      1.10300373    -0.34370850   -36.69344373    -0.00174066    -0.00004173  0.60D-14  0.59D-04  2  2     1.67
   3      1.10400722    -0.34395287   -36.69368810    -0.00024437    -0.00000018  0.19D-15  0.22D-06  3  3     1.69
   4      1.10403794    -0.34395689   -36.69369213    -0.00000402    -0.00000000  0.12D-16  0.40D-08  4  4     1.72
   5      1.10403879    -0.34395688   -36.69369211     0.00000002    -0.00000000  0.51D-18  0.27D-10  5  5     1.76

 Norm of t1 vector:      0.00000099      S-energy:    -0.00000000      T1 diagnostic:  0.00000022
 Norm of t2 vector:      0.32255044      P-energy:    -0.34395688
                                         Alpha-Beta:  -0.26436872
                                         Alpha-Alpha: -0.03979408
                                         Beta-Beta:   -0.03979408

 Spin contamination <S**2-Sz**2-Sz>     0.00000000
  Reference energy                    -36.349735232872
  RHF-RMP2 correlation energy          -0.343956879275
 !RHF-RMP2 energy                     -36.693692112148
 (NB above energy spin projected)

 Starting RCCSD calculation

 ITER.      SQ.NORM     CORR.ENERGY   TOTAL ENERGY   ENERGY CHANGE        DEN1      VAR(S)    VAR(P)  DIIS     TIME
   1      1.10653776    -0.34861724   -36.69835247    -0.34861724    -0.00775677  0.19D-02  0.32D-02  1  1     4.10
   2      1.12363473    -0.35660999   -36.70634522    -0.00799275    -0.00086544  0.32D-03  0.72D-03  2  2     6.44
   3      1.13384515    -0.35860116   -36.70833640    -0.00199118    -0.00017895  0.10D-03  0.16D-03  3  3     8.80
   4      1.14138616    -0.35962700   -36.70936223    -0.00102584    -0.00002115  0.98D-05  0.20D-04  4  4    11.10
   5      1.14426931    -0.35991388   -36.70964911    -0.00028688    -0.00000252  0.51D-06  0.27D-05  5  5    13.43
   6      1.14497805    -0.35996653   -36.70970176    -0.00005265    -0.00000046  0.32D-07  0.51D-06  6  6    15.77
   7      1.14517526    -0.35997885   -36.70971408    -0.00001232    -0.00000008  0.14D-07  0.85D-07  6  1    18.10
   8      1.14519909    -0.35997789   -36.70971313     0.00000096    -0.00000001  0.38D-08  0.79D-08  6  2    20.45
   9      1.14520413    -0.35997798   -36.70971321    -0.00000008    -0.00000000  0.15D-08  0.13D-08  6  3    22.80

 Norm of t1 vector:      0.09698667      S-energy:     0.00000001      T1 diagnostic:  0.02168688
                                                                       D1 diagnostic:  0.06824590
 Norm of t2 vector:      0.36850741      P-energy:    -0.35997799
                                         Alpha-Beta:  -0.28457754
                                         Alpha-Alpha: -0.03770022
                                         Beta-Beta:   -0.03770022

 Doubles amplitudes (print threshold =  0.500E-01):

         I         J         SYM. A    SYM. B    A         B      T(IJ, AB) [Alpha-Beta]

         2         2         2         2         1         1     -0.07460918
         2         2         2         2         1         2     -0.06214944
         2         2         2         2         2         1     -0.06214944
         2         2         2         2         2         2     -0.05342601
         2         2         3         3         1         1     -0.07460918
         2         2         3         3         1         2     -0.06214944
         2         2         3         3         2         1     -0.06214944
         2         2         3         3         2         2     -0.05342601
         2         2         5         5         1         1     -0.07460918
         2         2         5         5         1         2     -0.06214944
         2         2         5         5         2         1     -0.06214944
         2         2         5         5         2         2     -0.05342601

 Spin contamination <S**2-Sz**2-Sz>     0.00000000

 Memory could be reduced to 35.19 Mwords without degradation in triples
 

  Correlated core orbitals:             1.1       1.2       1.3       1.5
  Orbital energies:                    -2.2832   -1.3420   -1.3420   -1.3420
 
  RCCSD core-core energy               -0.302935120816
  RCCSD core-valence energy            -0.031993855162
  RCCSD valence correlation energy     -0.025049000784
 

 RESULTS
 =======

  Reference energy                    -36.349735232872
  RCCSD singles energy                  0.000000014575
  RCCSD pair energy                    -0.359977991337
  RCCSD correlation energy             -0.359977976763
  Triples (T) contribution             -0.014150420824
  Total correlation energy             -0.374128397587
 
  RHF-RCCSD energy                    -36.709713209635
  RHF-RCCSD[T] energy                 -36.724240831491
  RHF-RCCSD-T energy                  -36.723806312698
 !RHF-RCCSD(T) energy                 -36.723863630459

 Program statistics:

 Available memory in ccsd:              1023999650
 Min. memory needed in ccsd:               1309201
 Max. memory used in ccsd:                 1727178
 Max. memory used in cckext:               1424044 ( 9 integral passes)
 Max. memory used in cckint:               5332235 ( 1 integral passes)



 **********************************************************************************************************************************
 DATASETS  * FILE   NREC   LENGTH (MB)   RECORD NAMES
              1      20      517.58       500      610      700      900      950      970     1000      129      960     1100   
                                          VAR    BASINP    GEOM    SYMINP    ZMAT    AOBASIS   BASIS     P2S    ABASIS      S 
                                         1400     1410     1420     1200     1210     1080     1600     1650     1300     1700   
                                         EKIN       V       ECP      H0       H01     AOSYM     SMH    MOLCAS    ERIS     OPER   

              2       4        3.05       700     1000      520     2100   
                                         GEOM     BASIS   MCVARS     RHF  

 PROGRAMS   *        TOTAL  RCCSD(T)        HF       INT
 CPU TIMES  *       152.40     44.98      2.51    104.76
 REAL TIME  *       172.88 SEC
 DISK USED  *         1.74 GB      
 **********************************************************************************************************************************
 SETTING POSTHF(I)      =       -36.72386363  AU                              
                                                                                                                                                                                                                                                                

        SCF            POSTHF        EKIN          POT
    -36.34973523   -36.72386363   13.43105075   -7.94687817
                                                  

 RCCSD(T)/USERDEF energy=    -36.723863630459

        RCCSD(T)        HF-SCF  
    -36.72386363    -36.34973523
 **********************************************************************************************************************************
 Molpro calculation terminated
 Variable memory released
