
 Primary working directories    : /global/cscratch1/sd/aannabe
 Secondary working directories  : /global/cscratch1/sd/aannabe
 Wavefunction directory         : /global/homes/a/aannabe/wfu/
 Main file repository           : /global/cscratch1/sd/aannabe/

 SHA1      : 2873118e99aab1bc19f5b6fc1784693c06d15c95
 NAME      : 2015.1.8
 ARCHNAME  : linux/x86_64
 FC        : /opt/cray/pe/craype/2.5.5/bin/ftn
 BLASLIB   : -Wl,-_start-group /opt/intel/compilers_and_libraries_2016.3.210/linux/mkl/lib/intel64/libmkl_intel_ilp64.a /opt/intel/compilers_and_libraries_2016.3.210/linux/mkl/lib/intel64/libmkl_intel_thread.a /opt/intel/compilers_and_libraries_2016.3.210/linux/mkl/lib/intel64/libmkl_core.a -Wl,-_end-group
 id        : lbl

 Nodes     nprocs
 nid00465     1

 Using customized tuning parameters: mindgm=8; mindgv=16; mindgc=4; mindgr=1; noblas=0; minvec=7
 default implementation of scratch files=df  

 ***,C
 memory,8,g
 gthresh,twoint=1.e-12
 
 gprint,basis,orbitals
 gexpec,ekin,pot
 
 angstrom
 geometry={
 1                                                                               ! Number of atoms
 C 0.0 0.0 0.0
 }
 
 basis={
 Including file /global/homes/a/aannabe/docs/accurate/ccECP_Kh/pps/C.pp
 Including file /global/homes/a/aannabe/docs/accurate/ccECP_Kh/basis/aug-cc-pVnZ/C_qz.basis
 }
 
 {rhf
  start,atden
  wf,4,4,2
  occ,1,1,1,0,0,0,0,0
  open,1.2,1.3
  save,4202.2
 }
 {multi
  start,4202.2
  occ,1,1,1,0,1,0,0
  closed,1,0,0,0,0,0,0,0
  wf,4,4,2;state,1
  wf,4,6,2;state,1
  wf,4,7,2;state,1
  natorb,ci,print
  orbital,5202.2
 }
 {rhf,nitord=1,maxit=0
  start,5202.2
  wf,4,4,2
  occ,1,1,1,0,0,0,0,0
  open,1.2,1.3
 }
 
 scf(i)=energy
 
 _CC_NORM_MAX=2.0
 {fci
 maxit,100
 core
 }
 posthf(i)=energy
 
 table,scf,posthf,ekin,pot
 save,4.csv,new
 
 

 Variables initialized (889), CPU time= 0.00 sec
 Commands  initialized (702), CPU time= 0.01 sec, 572 directives.
 Default parameters read. Elapsed time= 0.14 sec

 Checking input...
 Passed
1


                                         ***  PROGRAM SYSTEM MOLPRO  ***
                                       Copyright, TTI GmbH Stuttgart, 2015
                                    Version 2015.1 linked Sep  7 2016 23:09:38


 **********************************************************************************************************************************
 LABEL *   C                                                                             
  64 bit serial version                                                                  DATE: 02-Nov-18          TIME: 16:20:14  
 **********************************************************************************************************************************

 SHA1:             2873118e99aab1bc19f5b6fc1784693c06d15c95
 **********************************************************************************************************************************

 THRESHOLDS:

 ZERO    =  1.00D-12  ONEINT  =  1.00D-12  TWOINT  =  1.00D-12  PREFAC  =  1.00D-14  LOCALI  =  1.00D-09  EORDER  =  1.00D-04
 ENERGY  =  0.00D+00  ETEST   =  0.00D+00  EDENS   =  0.00D+00  THRDEDEF=  1.00D-06  GRADIENT=  1.00D-02  STEP    =  1.00D-03
 ORBITAL =  1.00D-05  CIVEC   =  1.00D-05  COEFF   =  1.00D-04  PRINTCI =  5.00D-02  PUNCHCI =  9.90D+01  OPTGRAD =  3.00D-04
 OPTENERG=  1.00D-06  OPTSTEP =  3.00D-04  THRGRAD =  1.00D-10  COMPRESS=  1.00D-11  VARMIN  =  1.00D-07  VARMAX  =  1.00D-03
 THRDOUB =  0.00D+00  THRDIV  =  1.00D-05  THRRED  =  1.00D-07  THRPSP  =  1.00D+00  THRDC   =  1.00D-10  THRCS   =  1.00D-10
 THRNRM  =  1.00D-08  THREQ   =  0.00D+00  THRDE   =  1.00D+00  THRREF  =  1.00D-05  SPARFAC =  1.00D+00  THRDLP  =  1.00D-07
 THRDIA  =  1.00D-10  THRDLS  =  1.00D-07  THRGPS  =  0.00D+00  THRKEX  =  0.00D+00  THRDIS  =  2.00D-01  THRVAR  =  1.00D-10
 THRLOC  =  1.00D-06  THRGAP  =  1.00D-06  THRLOCT = -1.00D+00  THRGAPT = -1.00D+00  THRORB  =  1.00D-06  THRMLTP =  0.00D+00
 THRCPQCI=  1.00D-10  KEXTA   =  0.00D+00  THRCOARS=  0.00D+00  SYMTOL  =  1.00D-06  GRADTOL =  1.00D-06  THROVL  =  1.00D-08
 THRORTH =  1.00D-08  GRID    =  1.00D-06  GRIDMAX =  1.00D-03  DTMAX   =  0.00D+00  THROCCDE=  1.00D-01  THROCCDE=  1.00D-01



 ZUNIT=ANG
 

Geometry recognized as XYZ


 Variable memory set to 8000000000 words,  buffer space   230000 words

 SETTING BASIS          =    USERDEF


 Recomputing integrals since basis changed


 Using spherical harmonics



 PROGRAM * SEWARD (Integral evaluation for generally contracted gaussian basis sets)     Author: Roland Lindh, 1990

 Geometry written to block  1 of record 700

 Orientation using atomic masses  
 Molecule type: Atom
 Symmetry elements: X,Y,Z
 Rotational constants:       0.0000000      0.0000000      0.0000000 GHz  (calculated with average atomic masses)

 Point group  D2h 



 ATOMIC COORDINATES

 NR  ATOM    CHARGE       X              Y              Z

   1  C       4.00    0.000000000    0.000000000    0.000000000


          C   CORE POTENTIAL

          p POTENTIAL

 POWERS             1              3              2
 EXPONENTIALS   14.43502       8.398890       7.381880    
 COEFFICIENTS   4.000000       57.74008      -25.81955    

          s - p POTENTIAL

 POWERS             2
 EXPONENTIALS   7.760790    
 COEFFICIENTS   52.13345    


 BASIS DATA

   Nr Sym  Nuc  Type         Exponents   Contraction coefficients

    1.1 Ag    1  1s          13.073594     0.005158
                              6.541187     0.060342
                              4.573411    -0.197847
                              1.637494    -0.081034
                              0.819297     0.232173
                              0.409924     0.291464
                              0.231300     0.433640
                              0.102619     0.213194
                              0.051344     0.004985
    2.1 Ag    1  1s           0.846879     1.000000
    3.1 Ag    1  1s           0.269659     1.000000
    4.1 Ag    1  1s           0.109576     1.000000
    5.1 Ag    1  1s           0.043830     1.000000
    6.1 Ag    1  3d0          2.013760     1.000000
    7.1 Ag    1  3d2+         2.013760     1.000000
    8.1 Ag    1  3d0          0.684884     1.000000
    9.1 Ag    1  3d2+         0.684884     1.000000
   10.1 Ag    1  3d0          0.240171     1.000000
   11.1 Ag    1  3d2+         0.240171     1.000000
   12.1 Ag    1  3d0          0.096069     1.000000
   13.1 Ag    1  3d2+         0.096069     1.000000
   14.1 Ag    1  5g0          1.034180     1.000000
   15.1 Ag    1  5g4+         1.034180     1.000000
   16.1 Ag    1  5g2+         1.034180     1.000000
   17.1 Ag    1  5g0          0.413672     1.000000
   18.1 Ag    1  5g4+         0.413672     1.000000
   19.1 Ag    1  5g2+         0.413672     1.000000
    1.2 B3u   1  2px          9.934169     0.020908
                              3.886955     0.057270
                              1.871016     0.112268
                              0.935757     0.213008
                              0.468003     0.283581
                              0.239473     0.301121
                              0.117063     0.201693
                              0.058547     0.045358
                              0.029281     0.002978
    2.2 B3u   1  2px          0.804681     1.000000
    3.2 B3u   1  2px          0.313254     1.000000
    4.2 B3u   1  2px          0.105389     1.000000
    5.2 B3u   1  2px          0.042156     1.000000
    6.2 B3u   1  4f1+         0.457302     1.000000
    7.2 B3u   1  4f3+         0.457302     1.000000
    8.2 B3u   1  4f1+         1.324930     1.000000
    9.2 B3u   1  4f3+         1.324930     1.000000
   10.2 B3u   1  4f1+         0.529972     1.000000
   11.2 B3u   1  4f3+         0.529972     1.000000
    1.3 B2u   1  2py          9.934169     0.020908
                              3.886955     0.057270
                              1.871016     0.112268
                              0.935757     0.213008
                              0.468003     0.283581
                              0.239473     0.301121
                              0.117063     0.201693
                              0.058547     0.045358
                              0.029281     0.002978
    2.3 B2u   1  2py          0.804681     1.000000
    3.3 B2u   1  2py          0.313254     1.000000
    4.3 B2u   1  2py          0.105389     1.000000
    5.3 B2u   1  2py          0.042156     1.000000
    6.3 B2u   1  4f1-         0.457302     1.000000
    7.3 B2u   1  4f3-         0.457302     1.000000
    8.3 B2u   1  4f1-         1.324930     1.000000
    9.3 B2u   1  4f3-         1.324930     1.000000
   10.3 B2u   1  4f1-         0.529972     1.000000
   11.3 B2u   1  4f3-         0.529972     1.000000
    1.4 B1g   1  3d2-         2.013760     1.000000
    2.4 B1g   1  3d2-         0.684884     1.000000
    3.4 B1g   1  3d2-         0.240171     1.000000
    4.4 B1g   1  3d2-         0.096069     1.000000
    5.4 B1g   1  5g2-         1.034180     1.000000
    6.4 B1g   1  5g4-         1.034180     1.000000
    7.4 B1g   1  5g2-         0.413672     1.000000
    8.4 B1g   1  5g4-         0.413672     1.000000
    1.5 B1u   1  2pz          9.934169     0.020908
                              3.886955     0.057270
                              1.871016     0.112268
                              0.935757     0.213008
                              0.468003     0.283581
                              0.239473     0.301121
                              0.117063     0.201693
                              0.058547     0.045358
                              0.029281     0.002978
    2.5 B1u   1  2pz          0.804681     1.000000
    3.5 B1u   1  2pz          0.313254     1.000000
    4.5 B1u   1  2pz          0.105389     1.000000
    5.5 B1u   1  2pz          0.042156     1.000000
    6.5 B1u   1  4f0          0.457302     1.000000
    7.5 B1u   1  4f2+         0.457302     1.000000
    8.5 B1u   1  4f0          1.324930     1.000000
    9.5 B1u   1  4f2+         1.324930     1.000000
   10.5 B1u   1  4f0          0.529972     1.000000
   11.5 B1u   1  4f2+         0.529972     1.000000
    1.6 B2g   1  3d1+         2.013760     1.000000
    2.6 B2g   1  3d1+         0.684884     1.000000
    3.6 B2g   1  3d1+         0.240171     1.000000
    4.6 B2g   1  3d1+         0.096069     1.000000
    5.6 B2g   1  5g1+         1.034180     1.000000
    6.6 B2g   1  5g3+         1.034180     1.000000
    7.6 B2g   1  5g1+         0.413672     1.000000
    8.6 B2g   1  5g3+         0.413672     1.000000
    1.7 B3g   1  3d1-         2.013760     1.000000
    2.7 B3g   1  3d1-         0.684884     1.000000
    3.7 B3g   1  3d1-         0.240171     1.000000
    4.7 B3g   1  3d1-         0.096069     1.000000
    5.7 B3g   1  5g1-         1.034180     1.000000
    6.7 B3g   1  5g3-         1.034180     1.000000
    7.7 B3g   1  5g1-         0.413672     1.000000
    8.7 B3g   1  5g3-         0.413672     1.000000
    1.8 Au    1  4f2-         0.457302     1.000000
    2.8 Au    1  4f2-         1.324930     1.000000
    3.8 Au    1  4f2-         0.529972     1.000000

 NUCLEAR CHARGE:                    4
 NUMBER OF PRIMITIVE AOS:         136
 NUMBER OF SYMMETRY AOS:          111
 NUMBER OF CONTRACTIONS:           79   (  19Ag  +  11B3u +  11B2u +   8B1g +  11B1u +   8B2g +   8B3g +   3Au  )
 NUMBER OF CORE ORBITALS:           0   (   0Ag  +   0B3u +   0B2u +   0B1g +   0B1u +   0B2g +   0B3g +   0Au  )
 NUMBER OF VALENCE ORBITALS:        4   (   1Ag  +   1B3u +   1B2u +   0B1g +   1B1u +   0B2g +   0B3g +   0Au  )


 NUCLEAR REPULSION ENERGY    0.00000000

 EXTRA SYMMETRY OF AOS IN SYMMETRY 1:   1 1 1 1 1 2 3 2 3 2   3 2 3 4 5 6 4 5 6
 EXTRA SYMMETRY OF AOS IN SYMMETRY 2:   1 1 1 1 1 2 3 2 3 2   3
 EXTRA SYMMETRY OF AOS IN SYMMETRY 3:   1 1 1 1 1 2 3 2 3 2   3
 EXTRA SYMMETRY OF AOS IN SYMMETRY 4:   1 1 1 1 2 3 2 3
 EXTRA SYMMETRY OF AOS IN SYMMETRY 5:   1 1 1 1 1 2 3 2 3 2   3
 EXTRA SYMMETRY OF AOS IN SYMMETRY 6:   1 1 1 1 2 3 2 3
 EXTRA SYMMETRY OF AOS IN SYMMETRY 7:   1 1 1 1 2 3 2 3

 Eigenvalues of metric

         1 0.644E-02 0.264E-01 0.120E+00 0.120E+00 0.204E+00 0.428E+00 0.428E+00 0.428E+00
         2 0.596E-02 0.596E-02 0.916E-02 0.639E-01 0.274E+00 0.532E+00 0.532E+00 0.119E+01
         3 0.596E-02 0.596E-02 0.916E-02 0.639E-01 0.274E+00 0.532E+00 0.532E+00 0.119E+01
         4 0.120E+00 0.428E+00 0.428E+00 0.428E+00 0.120E+01 0.157E+01 0.157E+01 0.226E+01
         5 0.596E-02 0.596E-02 0.916E-02 0.639E-01 0.274E+00 0.532E+00 0.532E+00 0.119E+01
         6 0.120E+00 0.428E+00 0.428E+00 0.428E+00 0.120E+01 0.157E+01 0.157E+01 0.226E+01
         7 0.120E+00 0.428E+00 0.428E+00 0.428E+00 0.120E+01 0.157E+01 0.157E+01 0.226E+01
         8 0.596E-02 0.532E+00 0.246E+01


 Contracted 2-electron integrals neglected if value below      1.0D-12
 AO integral compression algorithm  1   Integral accuracy      1.0D-12

     6.816 MB (compressed) written to integral file ( 70.2%)


 NUMBER OF SORTED TWO-ELECTRON INTEGRALS:     665704.     BUFFER LENGTH:  32768
 NUMBER OF SEGMENTS:   1  SEGMENT LENGTH:     665704      RECORD LENGTH: 524288

 Memory used in sort:       1.22 MW

 SORT1 READ     1222209. AND WROTE      500866. INTEGRALS IN      2 RECORDS. CPU TIME:     0.04 SEC, REAL TIME:     0.05 SEC
 SORT2 READ      500866. AND WROTE      665704. INTEGRALS IN     26 RECORDS. CPU TIME:     0.06 SEC, REAL TIME:     0.12 SEC

 FILE SIZES:   FILE 1:    26.0 MBYTE,  FILE 4:     8.4 MBYTE,   TOTAL:     34.5 MBYTE

 OPERATOR DM      FOR CENTER  0  COORDINATES:    0.000000    0.000000    0.000000
 OPERATOR EKIN    FOR CENTER  0  COORDINATES:    0.000000    0.000000    0.000000
 OPERATOR POT     FOR CENTER  0  COORDINATES:    0.000000    0.000000    0.000000


 **********************************************************************************************************************************
 DATASETS  * FILE   NREC   LENGTH (MB)   RECORD NAMES
              1      20       22.86       500      610      700      900      950      970     1000      129      960     1100   
                                          VAR    BASINP    GEOM    SYMINP    ZMAT    AOBASIS   BASIS     P2S    ABASIS      S 
                                         1400     1410     1420     1200     1210     1080     1600     1650     1300     1700   
                                         EKIN       V       ECP      H0       H01     AOSYM     SMH    MOLCAS    ERIS     OPER   

 PROGRAMS   *        TOTAL       INT
 CPU TIMES  *         2.49      2.38
 REAL TIME  *        13.99 SEC
 DISK USED  *        34.75 MB      
 **********************************************************************************************************************************


 PROGRAM * RHF-SCF (OPEN SHELL)       Authors: W. Meyer, H.-J. Werner


 NUMBER OF ELECTRONS:       3+    1-    SPACE SYMMETRY=4    SPIN SYMMETRY: Triplet 
 CONVERGENCE THRESHOLDS:    1.00E-05 (Density)    1.00E-07 (Energy)
 MAX. NUMBER OF ITERATIONS:       60
 INTERPOLATION TYPE:            DIIS
 INTERPOLATION STEPS:              2 (START)      1 (STEP)
 LEVEL SHIFTS:                 -0.60 (CLOSED) -0.30 (OPEN) 


 Singly occupied orbitals:      1.2       1.3

   Atom=C  basis=ECP2MWB_GUESS     lmin=0  lmax=1

 Orbital guess generated from atomic densities. Full valence occupancy:    1   1   1   0   1   0   0   0


 Molecular orbital dump at record        4202.2

 ITERATION    DDIFF          GRAD             ENERGY        2-EL.EN.            DIPOLE MOMENTS         DIIS   ORB.
    1      0.000D+00      0.000D+00        -5.27582306      5.489583    0.00000    0.00000    0.00000    0    start
    2      0.000D+00      0.178D-01        -5.30877715      5.869693    0.00000    0.00000    0.00000    1    diag,B
    3      0.185D-01      0.494D-02        -5.31350705      6.008866    0.00000    0.00000    0.00000    2    diag,B
    4      0.498D-02      0.186D-02        -5.31427912      6.053368    0.00000    0.00000    0.00000    3    diag,B
    5      0.296D-02      0.426D-03        -5.31431531      6.056984    0.00000    0.00000    0.00000    4    diag,B
    6      0.917D-03      0.117D-03        -5.31431797      6.058304    0.00000    0.00000    0.00000    5    diag,B
    7      0.313D-03      0.192D-04        -5.31431801      6.058188    0.00000    0.00000    0.00000    6    fixocc
    8      0.193D-04      0.708D-05        -5.31431802      6.058222    0.00000    0.00000    0.00000    7    diag,B
    9      0.174D-04      0.812D-06        -5.31431802      6.058219    0.00000    0.00000    0.00000    8    diag,B
   10      0.151D-05      0.238D-06        -5.31431802      6.058218    0.00000    0.00000    0.00000    0    orth

 Final alpha occupancy:   1   1   1   0   0   0   0   0
 Final beta  occupancy:   1   0   0   0   0   0   0   0

 !RHF STATE 1.4 Energy                 -5.314318019576
 Nuclear energy                         0.00000000
 One-electron energy                   -8.34342718
 Two-electron energy                    3.02910916
 Virial quotient                       -1.54728424
 !RHF STATE 1.4 Dipole moment           0.00000000     0.00000000     0.00000000
 Dipole moment /Debye                   0.00000000     0.00000000     0.00000000
 

 !RHF expec          <1.4|EKIN|1.4>     3.434610061785
 
 !RHF expec           <1.4|POT|1.4>    -3.072624069097

 ELECTRON ORBITALS
 =================


   Orb  Occ    Energy  Couls-En    Coefficients

                                   1 1s      1 1s      1 1s      1 1s      1 1s      1 3d0     1 3d2+    1 3d0     1 3d2+    1 3d0  
                                   1 3d2+    1 3d0     1 3d2+    1 5g0     1 5g4+    1 5g2+    1 5g0     1 5g4+    1 5g2+ 

   1.1   2    -0.7072   -2.9683  1.000047  0.000011  0.000059 -0.000244  0.000138 -0.001141  0.000000  0.000019 -0.000000 -0.003732
                                -0.000000 -0.002201 -0.000000 -0.000006 -0.000000 -0.000000 -0.000035  0.000000  0.000000

                                   1 2px     1 2px     1 2px     1 2px     1 2px     1 4f1+    1 4f3+    1 4f1+    1 4f3+    1 4f1+ 
                                   1 4f3+ 

   1.2   +    -0.4354   -2.3460  0.999983 -0.000010 -0.000027  0.000049  0.000037 -0.000139 -0.000000  0.000014 -0.000000  0.000175
                                 0.000000

                                   1 2py     1 2py     1 2py     1 2py     1 2py     1 4f1-    1 4f3-    1 4f1-    1 4f3-    1 4f1- 
                                   1 4f3- 

   1.3   +    -0.4354   -2.3460  0.999983 -0.000010 -0.000027  0.000049  0.000037 -0.000139 -0.000000  0.000014 -0.000000  0.000175
                                 0.000000

 HOMO      1.2    -0.435362 =     -11.8468eV
 LUMO      1.5     0.012010 =       0.3268eV
 LUMO-HOMO         0.447372 =      12.1736eV


 **********************************************************************************************************************************
 DATASETS  * FILE   NREC   LENGTH (MB)   RECORD NAMES
              1      20       22.86       500      610      700      900      950      970     1000      129      960     1100   
                                          VAR    BASINP    GEOM    SYMINP    ZMAT    AOBASIS   BASIS     P2S    ABASIS      S 
                                         1400     1410     1420     1200     1210     1080     1600     1650     1300     1700   
                                         EKIN       V       ECP      H0       H01     AOSYM     SMH    MOLCAS    ERIS     OPER   

              2       4        2.78       700     1000      520     4202   
                                         GEOM     BASIS   MCVARS     RHF  

 PROGRAMS   *        TOTAL       RHF       INT
 CPU TIMES  *         2.58      0.09      2.38
 REAL TIME  *        14.28 SEC
 DISK USED  *        34.75 MB      
 **********************************************************************************************************************************


 PROGRAM * MULTI (Direct Multiconfiguration SCF)       Authors: P.J. Knowles, H.-J. Werner (1984)     S.T. Elbert (1988)


 Number of closed-shell orbitals:   1 (   1   0   0   0   0   0   0   0 )
 Number of active  orbitals:        3 (   0   1   1   0   1   0   0   0 )
 Number of external orbitals:      75 (  18  10  10   8  10   8   8   3 )

 State symmetry 1

 Number of electrons:     2    Spin symmetry=Triplet   Space symmetry=4
 Number of states:        1
 Number of CSFs:          1   (1 determinants, 3 intermediate states)

 State symmetry 2

 Number of electrons:     2    Spin symmetry=Triplet   Space symmetry=6
 Number of states:        1
 Number of CSFs:          1   (1 determinants, 3 intermediate states)

 State symmetry 3

 Number of electrons:     2    Spin symmetry=Triplet   Space symmetry=7
 Number of states:        1
 Number of CSFs:          1   (1 determinants, 3 intermediate states)

 Molecular orbitals read from record     4202.2  Type=RHF/CANONICAL (state 1.4)
 *** IN SYMMETRY 1 ORBITAL  1 SYMMETRY CONTAMINATION OF 0.708D-02 HAS BEEN REMOVED

 EXTRA SYMMETRY OF MOS IN SYMMETRY 1:   1 1 2 3 1 3 2 4 6 5   1 3 2 4 6 5 2 3 1
 *** IN SYMMETRY 2 ORBITAL  1 SYMMETRY CONTAMINATION OF 0.328D-03 HAS BEEN REMOVED
 EXTRA SYMMETRY OF MOS IN SYMMETRY 2:   1 1 1 2 3 1 2 3 1 2   3
 *** IN SYMMETRY 3 ORBITAL  1 SYMMETRY CONTAMINATION OF 0.328D-03 HAS BEEN REMOVED
 EXTRA SYMMETRY OF MOS IN SYMMETRY 3:   1 1 1 2 3 1 2 3 1 2   3
 EXTRA SYMMETRY OF MOS IN SYMMETRY 4:   1 1 2 3 1 2 3 1
 *** IN SYMMETRY 5 ORBITAL  1 SYMMETRY CONTAMINATION OF 0.978D-02 HAS BEEN REMOVED
 EXTRA SYMMETRY OF MOS IN SYMMETRY 5:   1 1 1 2 3 1 2 3 1 2   3
 EXTRA SYMMETRY OF MOS IN SYMMETRY 6:   1 1 2 3 1 2 3 1
 EXTRA SYMMETRY OF MOS IN SYMMETRY 7:   1 1 2 3 1 2 3 1

 Wavefunction dump at record             5202.2

 Convergence thresholds  0.10E-01 (gradient)  0.10E-05 (energy)  0.10E-02 (step length)

 Weight factors for state symmetry  1:    0.33333
 Weight factors for state symmetry  2:    0.33333
 Weight factors for state symmetry  3:    0.33333

 Number of orbital rotations:       48   (     0 Core/Active     18 Core/Virtual   0 Active/Active     30 Active/Virtual)
 Total number of variables:         51


 ITER. MIC  NCI  NEG     ENERGY(VAR)     ENERGY(PROJ)   ENERGY CHANGE     GRAD(0)  GRAD(ORB)   GRAD(CI)     STEP       TIME

   1   33   12    0      -5.26232265      -5.31435087   -0.05202821    0.12460682 0.00000000 0.00000000  0.46D+00      0.02
   2   15   12    0      -5.31414547      -5.31424776   -0.00010229    0.01310188 0.00000000 0.00000000  0.12D-01      0.03
   3   15   12    0      -5.31424795      -5.31424795   -0.00000000    0.00003940 0.00000000 0.00000000  0.34D-04      0.04

 ** WVFN ****  CONVERGENCE REACHED, FINAL GRADIENT:  0.36D-09



 Results for state 1.4
 =====================

 !MCSCF STATE 1.4 Energy               -5.314247953178
 Nuclear energy                         0.00000000
 Kinetic energy                         3.43469478
 One electron energy                   -8.34353611
 Two electron energy                    3.02928816
 Virial ratio                           2.54722568

 !MCSCF STATE 1.4 Dipole moment         0.00000000     0.00000000     0.00000000
 Dipole moment /Debye                   0.00000000     0.00000000     0.00000000



 Results for state 1.6
 =====================

 !MCSCF STATE 1.6 Energy               -5.314247953178
 Nuclear energy                         0.00000000
 Kinetic energy                         3.43469478
 One electron energy                   -8.34353611
 Two electron energy                    3.02928816
 Virial ratio                           2.54722568

 !MCSCF STATE 1.6 Dipole moment         0.00000000     0.00000000     0.00000000
 Dipole moment /Debye                   0.00000000     0.00000000     0.00000000



 Results for state 1.7
 =====================

 !MCSCF STATE 1.7 Energy               -5.314247953178
 Nuclear energy                         0.00000000
 Kinetic energy                         3.43469478
 One electron energy                   -8.34353611
 Two electron energy                    3.02928816
 Virial ratio                           2.54722568

 !MCSCF STATE 1.7 Dipole moment         0.00000000     0.00000000     0.00000000
 Dipole moment /Debye                   0.00000000     0.00000000     0.00000000

 State-averaged charge density matrix saved on record  5202.2 (density set 1)

 !MCSCF expec        <1.4|EKIN|1.4>     3.434694778421
 !MCSCF expec        <1.6|EKIN|1.6>     3.434694777918
 !MCSCF expec        <1.7|EKIN|1.7>     3.434694777918

 !MCSCF expec         <1.4|POT|1.4>    -3.072660789517
 !MCSCF expec         <1.6|POT|1.6>    -3.072660789356
 !MCSCF expec         <1.7|POT|1.7>    -3.072660789356


 NATURAL ORBITALS (state averaged)
 =================================

   Orb     Occ        Energy       Coefficients

                                   1 1s      1 1s      1 1s      1 1s      1 1s      1 3d0     1 3d2+    1 3d0     1 3d2+    1 3d0  
                                   1 3d2+    1 3d0     1 3d2+    1 5g0     1 5g4+    1 5g2+    1 5g0     1 5g4+    1 5g2+ 

   1.1  2.00000    -0.707188     1.000006  0.000001  0.000020 -0.000125  0.000133  0.000000  0.000000  0.000000  0.000000  0.000000
                                 0.000000  0.000000  0.000000  0.000000  0.000000  0.000000  0.000000  0.000000  0.000000

                                   1 2px     1 2px     1 2px     1 2px     1 2px     1 4f1+    1 4f3+    1 4f1+    1 4f3+    1 4f1+ 
                                   1 4f3+ 

   1.2  0.66667    -0.059825     1.000027 -0.000004 -0.000013 -0.000037  0.000037  0.000000  0.000000  0.000000  0.000000  0.000000
                                 0.000000

                                   1 2py     1 2py     1 2py     1 2py     1 2py     1 4f1-    1 4f3-    1 4f1-    1 4f3-    1 4f1- 
                                   1 4f3- 

   1.3  0.66667    -0.059825     1.000027 -0.000004 -0.000013 -0.000037  0.000037  0.000000  0.000000  0.000000  0.000000  0.000000
                                 0.000000

                                   1 2pz     1 2pz     1 2pz     1 2pz     1 2pz     1 4f0     1 4f2+    1 4f0     1 4f2+    1 4f0  
                                   1 4f2+ 

   1.5  0.66667    -0.059825     1.000027 -0.000004 -0.000013 -0.000037  0.000037  0.000000  0.000000  0.000000  0.000000  0.000000
                                 0.000000
 

 EXTRA SYMMETRY OF MOS IN SYMMETRY 1:   1 1 2 3 1 2 3 5 6 4   1 3 2 4 6 5 2 3 1
 EXTRA SYMMETRY OF MOS IN SYMMETRY 2:   1 1 1 3 2 1 3 2 1 2   3
 EXTRA SYMMETRY OF MOS IN SYMMETRY 3:   1 1 1 3 2 1 3 2 1 2   3
 EXTRA SYMMETRY OF MOS IN SYMMETRY 4:   1 1 3 2 1 2 3 1
 EXTRA SYMMETRY OF MOS IN SYMMETRY 5:   1 1 1 3 2 1 2 3 1 2   3
 EXTRA SYMMETRY OF MOS IN SYMMETRY 6:   1 1 3 2 1 2 3 1
 EXTRA SYMMETRY OF MOS IN SYMMETRY 7:   1 1 3 2 1 2 3 1

 Natural orbital dump (state averaged) at molpro section  5202.2    (Orbital set 2)


 CI vector for state symmetry 1
 ==============================

 a a 0           1.0000000

 TOTAL ENERGIES                        -5.31424795

 CI vector for state symmetry 2
 ==============================

 a 0 a           1.0000000

 TOTAL ENERGIES                        -5.31424795

 CI vector for state symmetry 3
 ==============================

 0 a a           1.0000000

 TOTAL ENERGIES                        -5.31424795



 **********************************************************************************************************************************
 DATASETS  * FILE   NREC   LENGTH (MB)   RECORD NAMES
              1      21       22.98       500      610      700      900      950      970     1000      129      960     1100   
                                          VAR    BASINP    GEOM    SYMINP    ZMAT    AOBASIS   BASIS     P2S    ABASIS      S 
                                         1400     1410     1420     1200     1210     1080     1600     1650     1300     1700   
                                         EKIN       V       ECP      H0       H01     AOSYM     SMH    MOLCAS    ERIS     OPER   
                                         1380   
                                         JKOP   

              2       5        5.31       700     1000      520     4202     5202   
                                         GEOM     BASIS   MCVARS     RHF     MCSCF   

 PROGRAMS   *        TOTAL     MULTI       RHF       INT
 CPU TIMES  *         2.65      0.07      0.09      2.38
 REAL TIME  *        15.22 SEC
 DISK USED  *        37.82 MB      
 **********************************************************************************************************************************


 PROGRAM * RHF-SCF (OPEN SHELL)       Authors: W. Meyer, H.-J. Werner


 NUMBER OF ELECTRONS:       3+    1-    SPACE SYMMETRY=4    SPIN SYMMETRY: Triplet 
 CONVERGENCE THRESHOLDS:    1.00E-05 (Density)    1.00E-07 (Energy)
 MAX. NUMBER OF ITERATIONS:        0
 INTERPOLATION TYPE:            DIIS
 INTERPOLATION STEPS:              2 (START)      1 (STEP)
 LEVEL SHIFTS:                 -0.60 (CLOSED) -0.30 (OPEN) 


 Singly occupied orbitals:      1.2       1.3
 Molecular orbitals read from record     5202.2  Type=MCSCF/NATURAL (state averaged)

 Molecular orbital dump at record        2101.2

 ITERATION    DDIFF          GRAD             ENERGY        2-EL.EN.            DIPOLE MOMENTS         DIIS   ORB.
    1      0.000D+00      0.000D+00        -5.31424795      6.058576    0.00000    0.00000    0.00000    0    start

 Final alpha occupancy:   1   1   1   0   0   0   0   0
 Final beta  occupancy:   1   0   0   0   0   0   0   0

 !RHF STATE 1.4 Energy                 -5.314247953178
 Nuclear energy                         0.00000000
 One-electron energy                   -8.34353611
 Two-electron energy                    3.02928816
 Virial quotient                       -1.54722568
 !RHF STATE 1.4 Dipole moment           0.00000000     0.00000000     0.00000000
 Dipole moment /Debye                   0.00000000     0.00000000     0.00000000
 

 !RHF expec          <1.4|EKIN|1.4>     3.434694778421
 
 !RHF expec           <1.4|POT|1.4>    -3.072660789517

 ELECTRON ORBITALS
 =================


   Orb  Occ    Energy  Couls-En    Coefficients

                                   1 1s      1 1s      1 1s      1 1s      1 1s      1 3d0     1 3d2+    1 3d0     1 3d2+    1 3d0  
                                   1 3d2+    1 3d0     1 3d2+    1 5g0     1 5g4+    1 5g2+    1 5g0     1 5g4+    1 5g2+ 

   1.1   2    -0.7072   -2.9683  1.000006  0.000001  0.000020 -0.000125  0.000133  0.000000  0.000000  0.000000  0.000000  0.000000
                                 0.000000  0.000000  0.000000  0.000000  0.000000  0.000000  0.000000  0.000000  0.000000

                                   1 2px     1 2px     1 2px     1 2px     1 2px     1 4f1+    1 4f3+    1 4f1+    1 4f3+    1 4f1+ 
                                   1 4f3+ 

   1.2   +    -0.0598   -1.9705  1.000027 -0.000004 -0.000013 -0.000037  0.000037  0.000000  0.000000  0.000000  0.000000  0.000000
                                 0.000000

                                   1 2py     1 2py     1 2py     1 2py     1 2py     1 4f1-    1 4f3-    1 4f1-    1 4f3-    1 4f1- 
                                   1 4f3- 

   1.3   +    -0.0598   -1.9705  1.000027 -0.000004 -0.000013 -0.000037  0.000037  0.000000  0.000000  0.000000  0.000000  0.000000
                                 0.000000

 HOMO      1.2    -0.059825 =      -1.6279eV
 LUMO      1.5    -0.059825 =      -1.6279eV
 LUMO-HOMO        -0.000000 =      -0.0000eV


 **********************************************************************************************************************************
 DATASETS  * FILE   NREC   LENGTH (MB)   RECORD NAMES
              1      21       22.98       500      610      700      900      950      970     1000      129      960     1100   
                                          VAR    BASINP    GEOM    SYMINP    ZMAT    AOBASIS   BASIS     P2S    ABASIS      S 
                                         1400     1410     1420     1200     1210     1080     1600     1650     1300     1700   
                                         EKIN       V       ECP      H0       H01     AOSYM     SMH    MOLCAS    ERIS     OPER   
                                         1380   
                                         JKOP   

              2       6        7.84       700     1000      520     4202     5202     2101   
                                         GEOM     BASIS   MCVARS     RHF     MCSCF     RHF  

 PROGRAMS   *        TOTAL       RHF     MULTI       RHF       INT
 CPU TIMES  *         2.67      0.02      0.07      0.09      2.38
 REAL TIME  *        15.38 SEC
 DISK USED  *        37.82 MB      
 **********************************************************************************************************************************
 SETTING SCF(I)         =        -5.31424795  AU                              
 SETTING _CC_NORM_MAX   =         2.00000000                                  


 PROGRAM * FCI (Full CI)     Author: P.J. Knowles, 1984

 ***  Initialisation ***
 
 Molecular orbitals read from record     2101.2  Type=RHF/CANONICAL (state 1.4)
 
 Frozen orbitals:              0 (  0  0  0  0  0  0  0  0)
 Active orbitals:             79 ( 19 11 11  8 11  8  8  3)
 Active electrons:             4
 Spin quantum number:          1.0
 Orbital pairs:                   502     409     409     370     409     370     370     321
 Strings:                        9965    9976    9976    9822    9976    9822    9822    9720
                                   19      11      11       8      11       8       8       3
 Determinants:                         783431          782085          782085          779810
                                       782085          779810          779810          778125

 Load integrals                2.7 sec
 Transform integrals           3.1 sec
 Storage for integrals:        1280149
 Remaining memory:           *********

 Core energy:               0.00000000
 Run Hamiltonian processor DAVIDSON
 Symmetry:                   4
 Trial vector:                  0.00
 Result vector:                 0.00
 Maximum iterations:          100
 Convergence threshold:         0.0000100
 RHS vector:                    0.00
 Hamiltonian shift:             0.0000000
 Output threshold:              0.0500000
 Options:                        0
 Number of roots:             1

 Hamiltonian diagonaliser entered at time      4.40

 Initial configuration generated:
    2737      1.0000000     -5.3142480

 It  Tr    CPU  Convergence   Energy       Pop     dE(next)

  1   1   18.5  1.00000000    -5.31424795
                                           0.00 -0.11414169 -0.11412911
  2   1   27.9  0.22360483    -5.40967063
                                           0.02 -0.00615441 -0.00606851
  3   1   41.7  0.04323785    -5.41522538
                                           0.06 -0.00042580 -0.00041128
  4   1   61.2  0.01246057    -5.41563390
                                           0.11 -0.00003586 -0.00003366
  5   1   88.7  0.00351633    -5.41566909
                                           0.16 -0.00000409 -0.00000375
  6   1  123.7  0.00123539    -5.41567308
                                           0.20 -0.00000059 -0.00000053
  7   1  164.4  0.00042267    -5.41567364
                                           0.22 -0.00000010 -0.00000009
  8   1  208.1  0.00019502    -5.41567373
                                           0.22 -0.00000002 -0.00000001
  9   1  254.9  0.00007053    -5.41567375
                                           0.23 -0.00000000 -0.00000000
 10   1  302.3  0.00003200    -5.41567375
                                           0.24 -0.00000000 -0.00000000
 11   1  349.7  0.00001096    -5.41567375
                                           0.25 -0.00000000 -0.00000000
 12   1  398.8  0.00000442    -5.41567375


RESULTS FOR STATE 1.4
=====================

 Correlation energy                    -0.101425798561
 !FCI STATE 1.4 Energy                 -5.415673751740
 CI Vector (threshold= 0.500E-01)
       0.969900936389  1 20 31  1
      -0.136325981435 20 31 50 50
 /EOF
 !FCI STATE 1.4 Dipole moment           0.00000000     0.00000000     0.00000000
 Dipole moment /Debye                   0.00000000     0.00000000     0.00000000
 

 !FCI expec          <1.4|EKIN|1.4>     3.563490221815
 
 !FCI expec           <1.4|POT|1.4>    -3.084981916626


 **********************************************************************************************************************************
 DATASETS  * FILE   NREC   LENGTH (MB)   RECORD NAMES
              1      21       22.98       500      610      700      900      950      970     1000      129      960     1100   
                                          VAR    BASINP    GEOM    SYMINP    ZMAT    AOBASIS   BASIS     P2S    ABASIS      S 
                                         1400     1410     1420     1200     1210     1080     1600     1650     1300     1700   
                                         EKIN       V       ECP      H0       H01     AOSYM     SMH    MOLCAS    ERIS     OPER   
                                         1380   
                                         JKOP   

              2       6        7.84       700     1000      520     4202     5202     2101   
                                         GEOM     BASIS   MCVARS     RHF     MCSCF     RHF  

 PROGRAMS   *        TOTAL       FCI       RHF     MULTI       RHF       INT
 CPU TIMES  *       399.05    396.38      0.02      0.07      0.09      2.38
 REAL TIME  *       438.11 SEC
 DISK USED  *       186.93 MB      
 **********************************************************************************************************************************
 SETTING POSTHF(I)      =        -5.41567375  AU                              
                                                                                                                                                                                                                                                                

       SCF           POSTHF       EKIN          POT
    -5.31424795   -5.41567375   3.56349022   -3.08498192
                                                  

 FCI/USERDEF energy=     -5.415673751740

        FCI             RHF-SCF         MULTI           RHF-SCF 
     -5.41567375     -5.31424795     -5.31424795     -5.31431802
 **********************************************************************************************************************************
 Variable memory released
