
 Primary working directories    : /global/cscratch1/sd/aannabe
 Secondary working directories  : /global/cscratch1/sd/aannabe
 Wavefunction directory         : /global/homes/a/aannabe/wfu/
 Main file repository           : /global/cscratch1/sd/aannabe/

 SHA1      : 2873118e99aab1bc19f5b6fc1784693c06d15c95
 NAME      : 2015.1.8
 ARCHNAME  : linux/x86_64
 FC        : /opt/cray/pe/craype/2.5.5/bin/ftn
 BLASLIB   : -Wl,-_start-group /opt/intel/compilers_and_libraries_2016.3.210/linux/mkl/lib/intel64/libmkl_intel_ilp64.a /opt/intel/compilers_and_libraries_2016.3.210/linux/mkl/lib/intel64/libmkl_intel_thread.a /opt/intel/compilers_and_libraries_2016.3.210/linux/mkl/lib/intel64/libmkl_core.a -Wl,-_end-group
 id        : lbl

 Nodes     nprocs
 nid00465     1

 Using customized tuning parameters: mindgm=8; mindgv=16; mindgc=4; mindgr=1; noblas=0; minvec=7
 default implementation of scratch files=df  

 ***,C
 memory,8,g
 gthresh,twoint=1.e-12
 
 gprint,basis,orbitals
 gexpec,ekin,pot
 
 angstrom
 geometry={
 1                                                                               ! Number of atoms
 C 0.0 0.0 0.0
 }
 
 basis={
 Including file /global/homes/a/aannabe/docs/accurate/ccECP_Kh/pps/C.pp
 Including file /global/homes/a/aannabe/docs/accurate/ccECP_Kh/basis/aug-cc-pVnZ/C_5z.basis
 }
 
 {rhf
  start,atden
  wf,4,4,2
  occ,1,1,1,0,0,0,0,0
  open,1.2,1.3
  save,4202.2
 }
 {multi
  start,4202.2
  occ,1,1,1,0,1,0,0
  closed,1,0,0,0,0,0,0,0
  wf,4,4,2;state,1
  wf,4,6,2;state,1
  wf,4,7,2;state,1
  natorb,ci,print
  orbital,5202.2
 }
 {rhf,nitord=1,maxit=0
  start,5202.2
  wf,4,4,2
  occ,1,1,1,0,0,0,0,0
  open,1.2,1.3
 }
 
 scf(i)=energy
 
 _CC_NORM_MAX=2.0
 {fci
 maxit,100
 core
 }
 posthf(i)=energy
 
 table,scf,posthf,ekin,pot
 save,5.csv,new
 
 

 Variables initialized (889), CPU time= 0.00 sec
 Commands  initialized (702), CPU time= 0.02 sec, 572 directives.
 Default parameters read. Elapsed time= 0.15 sec

 Checking input...
 Passed
1


                                         ***  PROGRAM SYSTEM MOLPRO  ***
                                       Copyright, TTI GmbH Stuttgart, 2015
                                    Version 2015.1 linked Sep  7 2016 23:09:38


 **********************************************************************************************************************************
 LABEL *   C                                                                             
  64 bit serial version                                                                  DATE: 02-Nov-18          TIME: 16:27:49  
 **********************************************************************************************************************************

 SHA1:             2873118e99aab1bc19f5b6fc1784693c06d15c95
 **********************************************************************************************************************************

 THRESHOLDS:

 ZERO    =  1.00D-12  ONEINT  =  1.00D-12  TWOINT  =  1.00D-12  PREFAC  =  1.00D-14  LOCALI  =  1.00D-09  EORDER  =  1.00D-04
 ENERGY  =  0.00D+00  ETEST   =  0.00D+00  EDENS   =  0.00D+00  THRDEDEF=  1.00D-06  GRADIENT=  1.00D-02  STEP    =  1.00D-03
 ORBITAL =  1.00D-05  CIVEC   =  1.00D-05  COEFF   =  1.00D-04  PRINTCI =  5.00D-02  PUNCHCI =  9.90D+01  OPTGRAD =  3.00D-04
 OPTENERG=  1.00D-06  OPTSTEP =  3.00D-04  THRGRAD =  1.00D-10  COMPRESS=  1.00D-11  VARMIN  =  1.00D-07  VARMAX  =  1.00D-03
 THRDOUB =  0.00D+00  THRDIV  =  1.00D-05  THRRED  =  1.00D-07  THRPSP  =  1.00D+00  THRDC   =  1.00D-10  THRCS   =  1.00D-10
 THRNRM  =  1.00D-08  THREQ   =  0.00D+00  THRDE   =  1.00D+00  THRREF  =  1.00D-05  SPARFAC =  1.00D+00  THRDLP  =  1.00D-07
 THRDIA  =  1.00D-10  THRDLS  =  1.00D-07  THRGPS  =  0.00D+00  THRKEX  =  0.00D+00  THRDIS  =  2.00D-01  THRVAR  =  1.00D-10
 THRLOC  =  1.00D-06  THRGAP  =  1.00D-06  THRLOCT = -1.00D+00  THRGAPT = -1.00D+00  THRORB  =  1.00D-06  THRMLTP =  0.00D+00
 THRCPQCI=  1.00D-10  KEXTA   =  0.00D+00  THRCOARS=  0.00D+00  SYMTOL  =  1.00D-06  GRADTOL =  1.00D-06  THROVL  =  1.00D-08
 THRORTH =  1.00D-08  GRID    =  1.00D-06  GRIDMAX =  1.00D-03  DTMAX   =  0.00D+00  THROCCDE=  1.00D-01  THROCCDE=  1.00D-01



 ZUNIT=ANG
 

Geometry recognized as XYZ


 Variable memory set to 8000000000 words,  buffer space   230000 words

 SETTING BASIS          =    USERDEF


 Recomputing integrals since basis changed


 Using spherical harmonics



 PROGRAM * SEWARD (Integral evaluation for generally contracted gaussian basis sets)     Author: Roland Lindh, 1990

 Geometry written to block  1 of record 700

 Orientation using atomic masses  
 Molecule type: Atom
 Symmetry elements: X,Y,Z
 Rotational constants:       0.0000000      0.0000000      0.0000000 GHz  (calculated with average atomic masses)

 Point group  D2h 



 ATOMIC COORDINATES

 NR  ATOM    CHARGE       X              Y              Z

   1  C       4.00    0.000000000    0.000000000    0.000000000


          C   CORE POTENTIAL

          p POTENTIAL

 POWERS             1              3              2
 EXPONENTIALS   14.43502       8.398890       7.381880    
 COEFFICIENTS   4.000000       57.74008      -25.81955    

          s - p POTENTIAL

 POWERS             2
 EXPONENTIALS   7.760790    
 COEFFICIENTS   52.13345    


 BASIS DATA

   Nr Sym  Nuc  Type         Exponents   Contraction coefficients

    1.1 Ag    1  1s          13.073594     0.005158
                              6.541187     0.060342
                              4.573411    -0.197847
                              1.637494    -0.081034
                              0.819297     0.232173
                              0.409924     0.291464
                              0.231300     0.433640
                              0.102619     0.213194
                              0.051344     0.004985
    2.1 Ag    1  1s           0.039321     1.000000
    3.1 Ag    1  1s           0.098302     1.000000
    4.1 Ag    1  1s           0.232034     1.000000
    5.1 Ag    1  1s           0.744448     1.000000
    6.1 Ag    1  1s           1.009914     1.000000
    7.1 Ag    1  3d0          0.082648     1.000000
    8.1 Ag    1  3d2+         0.082648     1.000000
    9.1 Ag    1  3d0          0.206619     1.000000
   10.1 Ag    1  3d2+         0.206619     1.000000
   11.1 Ag    1  3d0          0.606933     1.000000
   12.1 Ag    1  3d2+         0.606933     1.000000
   13.1 Ag    1  3d0          1.001526     1.000000
   14.1 Ag    1  3d2+         1.001526     1.000000
   15.1 Ag    1  3d0          1.504882     1.000000
   16.1 Ag    1  3d2+         1.504882     1.000000
   17.1 Ag    1  5g0          0.319059     1.000000
   18.1 Ag    1  5g4+         0.319059     1.000000
   19.1 Ag    1  5g2+         0.319059     1.000000
   20.1 Ag    1  5g0          0.797648     1.000000
   21.1 Ag    1  5g4+         0.797648     1.000000
   22.1 Ag    1  5g2+         0.797648     1.000000
   23.1 Ag    1  5g0          1.401343     1.000000
   24.1 Ag    1  5g4+         1.401343     1.000000
   25.1 Ag    1  5g2+         1.401343     1.000000
    1.2 B3u   1  2px          9.934169     0.020908
                              3.886955     0.057270
                              1.871016     0.112268
                              0.935757     0.213008
                              0.468003     0.283581
                              0.239473     0.301121
                              0.117063     0.201693
                              0.058547     0.045358
                              0.029281     0.002978
    2.2 B3u   1  2px          0.033619     1.000000
    3.2 B3u   1  2px          0.084047     1.000000
    4.2 B3u   1  2px          0.216618     1.000000
    5.2 B3u   1  2px          0.576869     1.000000
    6.2 B3u   1  2px          1.006252     1.000000
    7.2 B3u   1  4f1+         0.160229     1.000000
    8.2 B3u   1  4f3+         0.160229     1.000000
    9.2 B3u   1  4f1+         0.400573     1.000000
   10.2 B3u   1  4f3+         0.400573     1.000000
   11.2 B3u   1  4f1+         1.099564     1.000000
   12.2 B3u   1  4f3+         1.099564     1.000000
   13.2 B3u   1  4f1+         1.501091     1.000000
   14.2 B3u   1  4f3+         1.501091     1.000000
   15.2 B3u   1  6h1+         0.400681     1.000000
   16.2 B3u   1  6h3+         0.400681     1.000000
   17.2 B3u   1  6h5+         0.400681     1.000000
   18.2 B3u   1  6h1+         1.001703     1.000000
   19.2 B3u   1  6h3+         1.001703     1.000000
   20.2 B3u   1  6h5+         1.001703     1.000000
    1.3 B2u   1  2py          9.934169     0.020908
                              3.886955     0.057270
                              1.871016     0.112268
                              0.935757     0.213008
                              0.468003     0.283581
                              0.239473     0.301121
                              0.117063     0.201693
                              0.058547     0.045358
                              0.029281     0.002978
    2.3 B2u   1  2py          0.033619     1.000000
    3.3 B2u   1  2py          0.084047     1.000000
    4.3 B2u   1  2py          0.216618     1.000000
    5.3 B2u   1  2py          0.576869     1.000000
    6.3 B2u   1  2py          1.006252     1.000000
    7.3 B2u   1  4f1-         0.160229     1.000000
    8.3 B2u   1  4f3-         0.160229     1.000000
    9.3 B2u   1  4f1-         0.400573     1.000000
   10.3 B2u   1  4f3-         0.400573     1.000000
   11.3 B2u   1  4f1-         1.099564     1.000000
   12.3 B2u   1  4f3-         1.099564     1.000000
   13.3 B2u   1  4f1-         1.501091     1.000000
   14.3 B2u   1  4f3-         1.501091     1.000000
   15.3 B2u   1  6h1-         0.400681     1.000000
   16.3 B2u   1  6h3-         0.400681     1.000000
   17.3 B2u   1  6h5-         0.400681     1.000000
   18.3 B2u   1  6h1-         1.001703     1.000000
   19.3 B2u   1  6h3-         1.001703     1.000000
   20.3 B2u   1  6h5-         1.001703     1.000000
    1.4 B1g   1  3d2-         0.082648     1.000000
    2.4 B1g   1  3d2-         0.206619     1.000000
    3.4 B1g   1  3d2-         0.606933     1.000000
    4.4 B1g   1  3d2-         1.001526     1.000000
    5.4 B1g   1  3d2-         1.504882     1.000000
    6.4 B1g   1  5g2-         0.319059     1.000000
    7.4 B1g   1  5g4-         0.319059     1.000000
    8.4 B1g   1  5g2-         0.797648     1.000000
    9.4 B1g   1  5g4-         0.797648     1.000000
   10.4 B1g   1  5g2-         1.401343     1.000000
   11.4 B1g   1  5g4-         1.401343     1.000000
    1.5 B1u   1  2pz          9.934169     0.020908
                              3.886955     0.057270
                              1.871016     0.112268
                              0.935757     0.213008
                              0.468003     0.283581
                              0.239473     0.301121
                              0.117063     0.201693
                              0.058547     0.045358
                              0.029281     0.002978
    2.5 B1u   1  2pz          0.033619     1.000000
    3.5 B1u   1  2pz          0.084047     1.000000
    4.5 B1u   1  2pz          0.216618     1.000000
    5.5 B1u   1  2pz          0.576869     1.000000
    6.5 B1u   1  2pz          1.006252     1.000000
    7.5 B1u   1  4f0          0.160229     1.000000
    8.5 B1u   1  4f2+         0.160229     1.000000
    9.5 B1u   1  4f0          0.400573     1.000000
   10.5 B1u   1  4f2+         0.400573     1.000000
   11.5 B1u   1  4f0          1.099564     1.000000
   12.5 B1u   1  4f2+         1.099564     1.000000
   13.5 B1u   1  4f0          1.501091     1.000000
   14.5 B1u   1  4f2+         1.501091     1.000000
   15.5 B1u   1  6h2+         0.400681     1.000000
   16.5 B1u   1  6h4+         0.400681     1.000000
   17.5 B1u   1  6h0          0.400681     1.000000
   18.5 B1u   1  6h2+         1.001703     1.000000
   19.5 B1u   1  6h4+         1.001703     1.000000
   20.5 B1u   1  6h0          1.001703     1.000000
    1.6 B2g   1  3d1+         0.082648     1.000000
    2.6 B2g   1  3d1+         0.206619     1.000000
    3.6 B2g   1  3d1+         0.606933     1.000000
    4.6 B2g   1  3d1+         1.001526     1.000000
    5.6 B2g   1  3d1+         1.504882     1.000000
    6.6 B2g   1  5g1+         0.319059     1.000000
    7.6 B2g   1  5g3+         0.319059     1.000000
    8.6 B2g   1  5g1+         0.797648     1.000000
    9.6 B2g   1  5g3+         0.797648     1.000000
   10.6 B2g   1  5g1+         1.401343     1.000000
   11.6 B2g   1  5g3+         1.401343     1.000000
    1.7 B3g   1  3d1-         0.082648     1.000000
    2.7 B3g   1  3d1-         0.206619     1.000000
    3.7 B3g   1  3d1-         0.606933     1.000000
    4.7 B3g   1  3d1-         1.001526     1.000000
    5.7 B3g   1  3d1-         1.504882     1.000000
    6.7 B3g   1  5g1-         0.319059     1.000000
    7.7 B3g   1  5g3-         0.319059     1.000000
    8.7 B3g   1  5g1-         0.797648     1.000000
    9.7 B3g   1  5g3-         0.797648     1.000000
   10.7 B3g   1  5g1-         1.401343     1.000000
   11.7 B3g   1  5g3-         1.401343     1.000000
    1.8 Au    1  4f2-         0.160229     1.000000
    2.8 Au    1  4f2-         0.400573     1.000000
    3.8 Au    1  4f2-         1.099564     1.000000
    4.8 Au    1  4f2-         1.501091     1.000000
    5.8 Au    1  6h4-         0.400681     1.000000
    6.8 Au    1  6h2-         0.400681     1.000000
    7.8 Au    1  6h4-         1.001703     1.000000
    8.8 Au    1  6h2-         1.001703     1.000000

 NUCLEAR CHARGE:                    4
 NUMBER OF PRIMITIVE AOS:         213
 NUMBER OF SYMMETRY AOS:          158
 NUMBER OF CONTRACTIONS:          126   (  25Ag  +  20B3u +  20B2u +  11B1g +  20B1u +  11B2g +  11B3g +   8Au  )
 NUMBER OF CORE ORBITALS:           0   (   0Ag  +   0B3u +   0B2u +   0B1g +   0B1u +   0B2g +   0B3g +   0Au  )
 NUMBER OF VALENCE ORBITALS:        4   (   1Ag  +   1B3u +   1B2u +   0B1g +   1B1u +   0B2g +   0B3g +   0Au  )


 NUCLEAR REPULSION ENERGY    0.00000000

 EXTRA SYMMETRY OF AOS IN SYMMETRY 1:   1 1 1 1 1 1 2 3 2 3   2 3 2 3 2 3 4 5 6 4   5 6 4 5 6
 EXTRA SYMMETRY OF AOS IN SYMMETRY 2:   1 1 1 1 1 1 2 3 2 3   2 3 2 3 4 5 6 4 5 6
 EXTRA SYMMETRY OF AOS IN SYMMETRY 3:   1 1 1 1 1 1 2 3 2 3   2 3 2 3 4 5 6 4 5 6
 EXTRA SYMMETRY OF AOS IN SYMMETRY 4:   1 1 1 1 1 2 3 2 3 2   3
 EXTRA SYMMETRY OF AOS IN SYMMETRY 5:   1 1 1 1 1 1 2 3 2 3   2 3 2 3 4 5 6 4 5 6
 EXTRA SYMMETRY OF AOS IN SYMMETRY 6:   1 1 1 1 1 2 3 2 3 2   3
 EXTRA SYMMETRY OF AOS IN SYMMETRY 7:   1 1 1 1 1 2 3 2 3 2   3
 EXTRA SYMMETRY OF AOS IN SYMMETRY 8:   1 1 1 1 2 3 2 3

 Eigenvalues of metric

         1 0.778E-03 0.674E-02 0.674E-02 0.762E-02 0.349E-01 0.113E+00 0.113E+00 0.118E+00
         2 0.414E-02 0.226E-01 0.263E-01 0.263E-01 0.900E-01 0.291E+00 0.291E+00 0.429E+00
         3 0.414E-02 0.226E-01 0.263E-01 0.263E-01 0.900E-01 0.291E+00 0.291E+00 0.429E+00
         4 0.674E-02 0.113E+00 0.118E+00 0.118E+00 0.376E+00 0.766E+00 0.766E+00 0.145E+01
         5 0.414E-02 0.226E-01 0.263E-01 0.263E-01 0.900E-01 0.291E+00 0.291E+00 0.429E+00
         6 0.674E-02 0.113E+00 0.118E+00 0.118E+00 0.376E+00 0.766E+00 0.766E+00 0.145E+01
         7 0.674E-02 0.113E+00 0.118E+00 0.118E+00 0.376E+00 0.766E+00 0.766E+00 0.145E+01
         8 0.263E-01 0.291E+00 0.483E+00 0.483E+00 0.122E+01 0.152E+01 0.152E+01 0.247E+01


 Contracted 2-electron integrals neglected if value below      1.0D-12
 AO integral compression algorithm  1   Integral accuracy      1.0D-12

     31.982 MB (compressed) written to integral file ( 56.9%)


 NUMBER OF SORTED TWO-ELECTRON INTEGRALS:    4156552.     BUFFER LENGTH:  32768
 NUMBER OF SEGMENTS:   1  SEGMENT LENGTH:    4156552      RECORD LENGTH: 524288

 Memory used in sort:       4.71 MW

 SORT1 READ     6989366. AND WROTE     2907704. INTEGRALS IN      9 RECORDS. CPU TIME:     0.22 SEC, REAL TIME:     0.31 SEC
 SORT2 READ     2907704. AND WROTE     4156552. INTEGRALS IN    122 RECORDS. CPU TIME:     0.19 SEC, REAL TIME:     0.39 SEC

 FILE SIZES:   FILE 1:    51.4 MBYTE,  FILE 4:    37.8 MBYTE,   TOTAL:     89.2 MBYTE

 OPERATOR DM      FOR CENTER  0  COORDINATES:    0.000000    0.000000    0.000000
 OPERATOR EKIN    FOR CENTER  0  COORDINATES:    0.000000    0.000000    0.000000
 OPERATOR POT     FOR CENTER  0  COORDINATES:    0.000000    0.000000    0.000000


 **********************************************************************************************************************************
 DATASETS  * FILE   NREC   LENGTH (MB)   RECORD NAMES
              1      20       38.57       500      610      700      900      950      970     1000      129      960     1100   
                                          VAR    BASINP    GEOM    SYMINP    ZMAT    AOBASIS   BASIS     P2S    ABASIS      S 
                                         1400     1410     1420     1200     1210     1080     1600     1650     1300     1700   
                                         EKIN       V       ECP      H0       H01     AOSYM     SMH    MOLCAS    ERIS     OPER   

 PROGRAMS   *        TOTAL       INT
 CPU TIMES  *         3.77      3.63
 REAL TIME  *        26.74 SEC
 DISK USED  *        89.53 MB      
 **********************************************************************************************************************************


 PROGRAM * RHF-SCF (OPEN SHELL)       Authors: W. Meyer, H.-J. Werner


 NUMBER OF ELECTRONS:       3+    1-    SPACE SYMMETRY=4    SPIN SYMMETRY: Triplet 
 CONVERGENCE THRESHOLDS:    1.00E-05 (Density)    1.00E-07 (Energy)
 MAX. NUMBER OF ITERATIONS:       60
 INTERPOLATION TYPE:            DIIS
 INTERPOLATION STEPS:              2 (START)      1 (STEP)
 LEVEL SHIFTS:                 -0.60 (CLOSED) -0.30 (OPEN) 


 Singly occupied orbitals:      1.2       1.3

   Atom=C  basis=ECP2MWB_GUESS     lmin=0  lmax=1

 Orbital guess generated from atomic densities. Full valence occupancy:    1   1   1   0   1   0   0   0


 Molecular orbital dump at record        4202.2

 ITERATION    DDIFF          GRAD             ENERGY        2-EL.EN.            DIPOLE MOMENTS         DIIS   ORB.
    1      0.000D+00      0.000D+00        -5.27601194      5.490952    0.00000    0.00000    0.00000    0    start
    2      0.000D+00      0.139D-01        -5.30879165      5.870258    0.00000    0.00000    0.00000    1    diag,B
    3      0.119D-01      0.386D-02        -5.31348993      6.008343    0.00000    0.00000    0.00000    2    diag,B
    4      0.324D-02      0.146D-02        -5.31427005      6.052056    0.00000    0.00000    0.00000    3    diag,B
    5      0.185D-02      0.363D-03        -5.31431485      6.057221    0.00000    0.00000    0.00000    4    diag,B
    6      0.571D-03      0.903D-04        -5.31431733      6.058420    0.00000    0.00000    0.00000    5    diag,B
    7      0.230D-03      0.168D-04        -5.31431737      6.058244    0.00000    0.00000    0.00000    6    fixocc
    8      0.361D-04      0.527D-05        -5.31431738      6.058261    0.00000    0.00000    0.00000    7    diag,B
    9      0.943D-05      0.930D-06        -5.31431738      6.058259    0.00000    0.00000    0.00000    0    orth

 Final alpha occupancy:   1   1   1   0   0   0   0   0
 Final beta  occupancy:   1   0   0   0   0   0   0   0

 !RHF STATE 1.4 Energy                 -5.314317378328
 Nuclear energy                         0.00000000
 One-electron energy                   -8.34344690
 Two-electron energy                    3.02912952
 Virial quotient                       -1.54730348
 !RHF STATE 1.4 Dipole moment           0.00000000     0.00000000     0.00000000
 Dipole moment /Debye                   0.00000000     0.00000000     0.00000000
 

 !RHF expec          <1.4|EKIN|1.4>     3.434566950498
 
 !RHF expec           <1.4|POT|1.4>    -3.072620277979

 ELECTRON ORBITALS
 =================


   Orb  Occ    Energy  Couls-En    Coefficients

                                   1 1s      1 1s      1 1s      1 1s      1 1s      1 1s      1 3d0     1 3d2+    1 3d0     1 3d2+ 
                                   1 3d0     1 3d2+    1 3d0     1 3d2+    1 3d0     1 3d2+    1 5g0     1 5g4+    1 5g2+    1 5g0  
                                   1 5g4+    1 5g2+    1 5g0     1 5g4+    1 5g2+ 

   1.1   2    -0.7072   -2.9683  0.999968  0.000447 -0.000739  0.000415  0.000004 -0.000040 -0.001792 -0.000000 -0.003506 -0.000000
                                -0.002284  0.000000  0.003422 -0.000000 -0.002906 -0.000000 -0.000037  0.000000 -0.000000 -0.000005
                                -0.000000  0.000000 -0.000005  0.000000 -0.000000

                                   1 2px     1 2px     1 2px     1 2px     1 2px     1 2px     1 4f1+    1 4f3+    1 4f1+    1 4f3+ 
                                   1 4f1+    1 4f3+    1 4f1+    1 4f3+    1 6h1+    1 6h3+    1 6h5+    1 6h1+    1 6h3+    1 6h5+ 


   1.2   +    -0.4354   -2.3460  0.999912  0.000070 -0.000029  0.000111 -0.000046  0.000030 -0.000053 -0.000000  0.000042  0.000000
                                 0.000040 -0.000000 -0.000005  0.000000 -0.000000  0.000000  0.000000 -0.000000 -0.000000 -0.000000

                                   1 2py     1 2py     1 2py     1 2py     1 2py     1 2py     1 4f1-    1 4f3-    1 4f1-    1 4f3- 
                                   1 4f1-    1 4f3-    1 4f1-    1 4f3-    1 6h1-    1 6h3-    1 6h5-    1 6h1-    1 6h3-    1 6h5- 


   1.3   +    -0.4354   -2.3460  0.999912  0.000070 -0.000029  0.000111 -0.000046  0.000030 -0.000053  0.000000  0.000042 -0.000000
                                 0.000040  0.000000 -0.000005 -0.000000 -0.000000 -0.000000  0.000000 -0.000000  0.000000 -0.000000

 HOMO      1.2    -0.435354 =     -11.8466eV
 LUMO      1.5     0.010832 =       0.2948eV
 LUMO-HOMO         0.446186 =      12.1414eV


 **********************************************************************************************************************************
 DATASETS  * FILE   NREC   LENGTH (MB)   RECORD NAMES
              1      20       38.57       500      610      700      900      950      970     1000      129      960     1100   
                                          VAR    BASINP    GEOM    SYMINP    ZMAT    AOBASIS   BASIS     P2S    ABASIS      S 
                                         1400     1410     1420     1200     1210     1080     1600     1650     1300     1700   
                                         EKIN       V       ECP      H0       H01     AOSYM     SMH    MOLCAS    ERIS     OPER   

              2       4        2.83       700     1000      520     4202   
                                         GEOM     BASIS   MCVARS     RHF  

 PROGRAMS   *        TOTAL       RHF       INT
 CPU TIMES  *         3.99      0.22      3.63
 REAL TIME  *        27.11 SEC
 DISK USED  *        89.53 MB      
 **********************************************************************************************************************************


 PROGRAM * MULTI (Direct Multiconfiguration SCF)       Authors: P.J. Knowles, H.-J. Werner (1984)     S.T. Elbert (1988)


 Number of closed-shell orbitals:   1 (   1   0   0   0   0   0   0   0 )
 Number of active  orbitals:        3 (   0   1   1   0   1   0   0   0 )
 Number of external orbitals:     122 (  24  19  19  11  19  11  11   8 )

 State symmetry 1

 Number of electrons:     2    Spin symmetry=Triplet   Space symmetry=4
 Number of states:        1
 Number of CSFs:          1   (1 determinants, 3 intermediate states)

 State symmetry 2

 Number of electrons:     2    Spin symmetry=Triplet   Space symmetry=6
 Number of states:        1
 Number of CSFs:          1   (1 determinants, 3 intermediate states)

 State symmetry 3

 Number of electrons:     2    Spin symmetry=Triplet   Space symmetry=7
 Number of states:        1
 Number of CSFs:          1   (1 determinants, 3 intermediate states)

 Molecular orbitals read from record     4202.2  Type=RHF/CANONICAL (state 1.4)
 *** IN SYMMETRY 1 ORBITAL  1 SYMMETRY CONTAMINATION OF 0.137D-01 HAS BEEN REMOVED

 EXTRA SYMMETRY OF MOS IN SYMMETRY 1:   1 1 2 3 1 3 2 1 4 6   5 3 2 2 3 4 6 5 1 2   3 4 6 5 1
 *** IN SYMMETRY 2 ORBITAL  1 SYMMETRY CONTAMINATION OF 0.141D-03 HAS BEEN REMOVED
 EXTRA SYMMETRY OF MOS IN SYMMETRY 2:   1 1 1 2 3 1 2 3 4 5   6 1 2 3 4 5 6 1 2 3
 *** IN SYMMETRY 3 ORBITAL  1 SYMMETRY CONTAMINATION OF 0.141D-03 HAS BEEN REMOVED
 EXTRA SYMMETRY OF MOS IN SYMMETRY 3:   1 1 1 2 3 1 2 3 4 5   6 1 2 3 4 5 6 1 2 3
 EXTRA SYMMETRY OF MOS IN SYMMETRY 4:   1 1 2 3 1 1 2 3 1 2   3
 *** IN SYMMETRY 5 ORBITAL  1 SYMMETRY CONTAMINATION OF 0.423D-02 HAS BEEN REMOVED
 EXTRA SYMMETRY OF MOS IN SYMMETRY 5:   1 1 1 2 3 1 2 3 6 4   5 1 2 3 6 4 5 1 2 3
 EXTRA SYMMETRY OF MOS IN SYMMETRY 6:   1 1 2 3 1 1 2 3 1 2   3
 EXTRA SYMMETRY OF MOS IN SYMMETRY 7:   1 1 2 3 1 1 2 3 1 2   3
 EXTRA SYMMETRY OF MOS IN SYMMETRY 8:   1 1 3 2 1 3 2 1

 Wavefunction dump at record             5202.2

 Convergence thresholds  0.10E-01 (gradient)  0.10E-05 (energy)  0.10E-02 (step length)

 Weight factors for state symmetry  1:    0.33333
 Weight factors for state symmetry  2:    0.33333
 Weight factors for state symmetry  3:    0.33333

 Number of orbital rotations:       81   (     0 Core/Active     24 Core/Virtual   0 Active/Active     57 Active/Virtual)
 Total number of variables:         84


 ITER. MIC  NCI  NEG     ENERGY(VAR)     ENERGY(PROJ)   ENERGY CHANGE     GRAD(0)  GRAD(ORB)   GRAD(CI)     STEP       TIME

   1   25   12    0      -5.25547580      -5.31437624   -0.05890044    0.12928182 0.00000000 0.00000000  0.49D+00      0.05
   2   15   12    0      -5.31412017      -5.31424772   -0.00012755    0.01477290 0.00000000 0.00000000  0.14D-01      0.09
   3   15   12    0      -5.31424799      -5.31424799   -0.00000000    0.00004975 0.00000000 0.00000000  0.43D-04      0.13

 ** WVFN ****  CONVERGENCE REACHED, FINAL GRADIENT:  0.57D-09



 Results for state 1.4
 =====================

 !MCSCF STATE 1.4 Energy               -5.314247991652
 Nuclear energy                         0.00000000
 Kinetic energy                         3.43466084
 One electron energy                   -8.34355379
 Two electron energy                    3.02930579
 Virial ratio                           2.54724098

 !MCSCF STATE 1.4 Dipole moment         0.00000000     0.00000000     0.00000000
 Dipole moment /Debye                   0.00000000     0.00000000     0.00000000



 Results for state 1.6
 =====================

 !MCSCF STATE 1.6 Energy               -5.314247991652
 Nuclear energy                         0.00000000
 Kinetic energy                         3.43466084
 One electron energy                   -8.34355379
 Two electron energy                    3.02930579
 Virial ratio                           2.54724098

 !MCSCF STATE 1.6 Dipole moment         0.00000000     0.00000000     0.00000000
 Dipole moment /Debye                   0.00000000     0.00000000     0.00000000



 Results for state 1.7
 =====================

 !MCSCF STATE 1.7 Energy               -5.314247991652
 Nuclear energy                         0.00000000
 Kinetic energy                         3.43466084
 One electron energy                   -8.34355379
 Two electron energy                    3.02930579
 Virial ratio                           2.54724098

 !MCSCF STATE 1.7 Dipole moment         0.00000000     0.00000000     0.00000000
 Dipole moment /Debye                   0.00000000     0.00000000     0.00000000

 State-averaged charge density matrix saved on record  5202.2 (density set 1)

 !MCSCF expec        <1.4|EKIN|1.4>     3.434660842286
 !MCSCF expec        <1.6|EKIN|1.6>     3.434660841504
 !MCSCF expec        <1.7|EKIN|1.7>     3.434660841504

 !MCSCF expec         <1.4|POT|1.4>    -3.072658052846
 !MCSCF expec         <1.6|POT|1.6>    -3.072658052597
 !MCSCF expec         <1.7|POT|1.7>    -3.072658052597


 NATURAL ORBITALS (state averaged)
 =================================

   Orb     Occ        Energy       Coefficients

                                   1 1s      1 1s      1 1s      1 1s      1 1s      1 1s      1 3d0     1 3d2+    1 3d0     1 3d2+ 
                                   1 3d0     1 3d2+    1 3d0     1 3d2+    1 3d0     1 3d2+    1 5g0     1 5g4+    1 5g2+    1 5g0  
                                   1 5g4+    1 5g2+    1 5g0     1 5g4+    1 5g2+ 

   1.1  2.00000    -0.707185     0.999944  0.000456 -0.000658  0.000415 -0.000087  0.000015  0.000000  0.000000  0.000000  0.000000
                                 0.000000  0.000000  0.000000  0.000000  0.000000  0.000000  0.000000  0.000000  0.000000  0.000000
                                 0.000000  0.000000  0.000000  0.000000  0.000000

                                   1 2px     1 2px     1 2px     1 2px     1 2px     1 2px     1 4f1+    1 4f3+    1 4f1+    1 4f3+ 
                                   1 4f1+    1 4f3+    1 4f1+    1 4f3+    1 6h1+    1 6h3+    1 6h5+    1 6h1+    1 6h3+    1 6h5+ 


   1.2  0.66667    -0.059820     0.999979  0.000072 -0.000095  0.000065 -0.000012  0.000011  0.000000  0.000000  0.000000  0.000000
                                 0.000000  0.000000  0.000000  0.000000  0.000000  0.000000  0.000000  0.000000  0.000000  0.000000

                                   1 2py     1 2py     1 2py     1 2py     1 2py     1 2py     1 4f1-    1 4f3-    1 4f1-    1 4f3- 
                                   1 4f1-    1 4f3-    1 4f1-    1 4f3-    1 6h1-    1 6h3-    1 6h5-    1 6h1-    1 6h3-    1 6h5- 


   1.3  0.66667    -0.059820     0.999979  0.000072 -0.000095  0.000065 -0.000012  0.000011  0.000000  0.000000  0.000000  0.000000
                                 0.000000  0.000000  0.000000  0.000000  0.000000  0.000000  0.000000  0.000000  0.000000  0.000000

                                   1 2pz     1 2pz     1 2pz     1 2pz     1 2pz     1 2pz     1 4f0     1 4f2+    1 4f0     1 4f2+ 
                                   1 4f0     1 4f2+    1 4f0     1 4f2+    1 6h2+    1 6h4+    1 6h0     1 6h2+    1 6h4+    1 6h0  


   1.5  0.66667    -0.059820     0.999979  0.000072 -0.000095  0.000065 -0.000012  0.000011  0.000000  0.000000  0.000000  0.000000
                                 0.000000  0.000000  0.000000  0.000000  0.000000  0.000000  0.000000  0.000000  0.000000  0.000000
 

 EXTRA SYMMETRY OF MOS IN SYMMETRY 1:   1 1 3 2 1 2 3 1 5 6   4 3 2 2 3 6 5 4 1 2   3 4 6 5 1
 EXTRA SYMMETRY OF MOS IN SYMMETRY 2:   1 1 1 3 2 1 3 2 6 5   4 1 2 3 4 5 6 1 2 3
 EXTRA SYMMETRY OF MOS IN SYMMETRY 3:   1 1 1 3 2 1 3 2 6 5   4 1 2 3 4 5 6 1 2 3
 EXTRA SYMMETRY OF MOS IN SYMMETRY 4:   1 1 3 2 1 1 2 3 1 2   3
 EXTRA SYMMETRY OF MOS IN SYMMETRY 5:   1 1 1 3 2 1 3 2 5 4   6 1 2 3 6 4 5 1 2 3
 EXTRA SYMMETRY OF MOS IN SYMMETRY 6:   1 1 3 2 1 1 3 2 1 2   3
 EXTRA SYMMETRY OF MOS IN SYMMETRY 7:   1 1 3 2 1 1 3 2 1 2   3
 EXTRA SYMMETRY OF MOS IN SYMMETRY 8:   1 1 2 3 1 3 2 1

 Natural orbital dump (state averaged) at molpro section  5202.2    (Orbital set 2)


 CI vector for state symmetry 1
 ==============================

 a a 0           1.0000000

 TOTAL ENERGIES                        -5.31424799

 CI vector for state symmetry 2
 ==============================

 a 0 a           1.0000000

 TOTAL ENERGIES                        -5.31424799

 CI vector for state symmetry 3
 ==============================

 0 a a           1.0000000

 TOTAL ENERGIES                        -5.31424799



 **********************************************************************************************************************************
 DATASETS  * FILE   NREC   LENGTH (MB)   RECORD NAMES
              1      21       38.86       500      610      700      900      950      970     1000      129      960     1100   
                                          VAR    BASINP    GEOM    SYMINP    ZMAT    AOBASIS   BASIS     P2S    ABASIS      S 
                                         1400     1410     1420     1200     1210     1080     1600     1650     1300     1700   
                                         EKIN       V       ECP      H0       H01     AOSYM     SMH    MOLCAS    ERIS     OPER   
                                         1380   
                                         JKOP   

              2       5        5.40       700     1000      520     4202     5202   
                                         GEOM     BASIS   MCVARS     RHF     MCSCF   

 PROGRAMS   *        TOTAL     MULTI       RHF       INT
 CPU TIMES  *         4.17      0.18      0.22      3.63
 REAL TIME  *        28.36 SEC
 DISK USED  *        89.53 MB      
 **********************************************************************************************************************************


 PROGRAM * RHF-SCF (OPEN SHELL)       Authors: W. Meyer, H.-J. Werner


 NUMBER OF ELECTRONS:       3+    1-    SPACE SYMMETRY=4    SPIN SYMMETRY: Triplet 
 CONVERGENCE THRESHOLDS:    1.00E-05 (Density)    1.00E-07 (Energy)
 MAX. NUMBER OF ITERATIONS:        0
 INTERPOLATION TYPE:            DIIS
 INTERPOLATION STEPS:              2 (START)      1 (STEP)
 LEVEL SHIFTS:                 -0.60 (CLOSED) -0.30 (OPEN) 


 Singly occupied orbitals:      1.2       1.3
 Molecular orbitals read from record     5202.2  Type=MCSCF/NATURAL (state averaged)

 Molecular orbital dump at record        2101.2

 ITERATION    DDIFF          GRAD             ENERGY        2-EL.EN.            DIPOLE MOMENTS         DIIS   ORB.
    1      0.000D+00      0.000D+00        -5.31424799      6.058612    0.00000    0.00000    0.00000    0    start

 Final alpha occupancy:   1   1   1   0   0   0   0   0
 Final beta  occupancy:   1   0   0   0   0   0   0   0

 !RHF STATE 1.4 Energy                 -5.314247991652
 Nuclear energy                         0.00000000
 One-electron energy                   -8.34355379
 Two-electron energy                    3.02930579
 Virial quotient                       -1.54724098
 !RHF STATE 1.4 Dipole moment           0.00000000     0.00000000     0.00000000
 Dipole moment /Debye                   0.00000000     0.00000000     0.00000000
 

 !RHF expec          <1.4|EKIN|1.4>     3.434660842286
 
 !RHF expec           <1.4|POT|1.4>    -3.072658052846

 ELECTRON ORBITALS
 =================


   Orb  Occ    Energy  Couls-En    Coefficients

                                   1 1s      1 1s      1 1s      1 1s      1 1s      1 1s      1 3d0     1 3d2+    1 3d0     1 3d2+ 
                                   1 3d0     1 3d2+    1 3d0     1 3d2+    1 3d0     1 3d2+    1 5g0     1 5g4+    1 5g2+    1 5g0  
                                   1 5g4+    1 5g2+    1 5g0     1 5g4+    1 5g2+ 

   1.1   2    -0.7072   -2.9683  0.999944  0.000456 -0.000658  0.000415 -0.000087  0.000015  0.000000  0.000000  0.000000  0.000000
                                 0.000000  0.000000  0.000000  0.000000  0.000000  0.000000  0.000000  0.000000  0.000000  0.000000
                                 0.000000  0.000000  0.000000  0.000000  0.000000

                                   1 2px     1 2px     1 2px     1 2px     1 2px     1 2px     1 4f1+    1 4f3+    1 4f1+    1 4f3+ 
                                   1 4f1+    1 4f3+    1 4f1+    1 4f3+    1 6h1+    1 6h3+    1 6h5+    1 6h1+    1 6h3+    1 6h5+ 


   1.2   +    -0.0598   -1.9705  0.999979  0.000072 -0.000095  0.000065 -0.000012  0.000011  0.000000  0.000000  0.000000  0.000000
                                 0.000000  0.000000  0.000000  0.000000  0.000000  0.000000  0.000000  0.000000  0.000000  0.000000

                                   1 2py     1 2py     1 2py     1 2py     1 2py     1 2py     1 4f1-    1 4f3-    1 4f1-    1 4f3- 
                                   1 4f1-    1 4f3-    1 4f1-    1 4f3-    1 6h1-    1 6h3-    1 6h5-    1 6h1-    1 6h3-    1 6h5- 


   1.3   +    -0.0598   -1.9705  0.999979  0.000072 -0.000095  0.000065 -0.000012  0.000011  0.000000  0.000000  0.000000  0.000000
                                 0.000000  0.000000  0.000000  0.000000  0.000000  0.000000  0.000000  0.000000  0.000000  0.000000

 HOMO      1.2    -0.059820 =      -1.6278eV
 LUMO      1.5    -0.059820 =      -1.6278eV
 LUMO-HOMO        -0.000000 =      -0.0000eV


 **********************************************************************************************************************************
 DATASETS  * FILE   NREC   LENGTH (MB)   RECORD NAMES
              1      21       38.86       500      610      700      900      950      970     1000      129      960     1100   
                                          VAR    BASINP    GEOM    SYMINP    ZMAT    AOBASIS   BASIS     P2S    ABASIS      S 
                                         1400     1410     1420     1200     1210     1080     1600     1650     1300     1700   
                                         EKIN       V       ECP      H0       H01     AOSYM     SMH    MOLCAS    ERIS     OPER   
                                         1380   
                                         JKOP   

              2       6        8.00       700     1000      520     4202     5202     2101   
                                         GEOM     BASIS   MCVARS     RHF     MCSCF     RHF  

 PROGRAMS   *        TOTAL       RHF     MULTI       RHF       INT
 CPU TIMES  *         4.21      0.03      0.18      0.22      3.63
 REAL TIME  *        28.75 SEC
 DISK USED  *        89.53 MB      
 **********************************************************************************************************************************
 SETTING SCF(I)         =        -5.31424799  AU                              
 SETTING _CC_NORM_MAX   =         2.00000000                                  


 PROGRAM * FCI (Full CI)     Author: P.J. Knowles, 1984

 ***  Initialisation ***
 
 Molecular orbitals read from record     2101.2  Type=RHF/CANONICAL (state 1.4)
 
 Frozen orbitals:              0 (  0  0  0  0  0  0  0  0)
 Active orbitals:            126 ( 25 20 20 11 20 11 11  8)
 Active electrons:             4
 Spin quantum number:          1.0
 Orbital pairs:                  1189    1028    1028     956    1028     956     956     860
 Strings:                       41186   40808   40808   40598   40808   40598   40598   40096
                                   25      20      20      11      20      11      11       8
 Determinants:                        5138632         5131456         5131456         5121856
                                      5131456         5121856         5121856         5114432

 Load integrals                4.2 sec
 Transform integrals           6.9 sec
 Storage for integrals:        8097359
 Remaining memory:           *********

 Core energy:               0.00000000
 Run Hamiltonian processor DAVIDSON
 Symmetry:                   4
 Trial vector:                  0.00
 Result vector:                 0.00
 Maximum iterations:          100
 Convergence threshold:         0.0000100
 RHS vector:                    0.00
 Hamiltonian shift:             0.0000000
 Output threshold:              0.0500000
 Options:                        0
 Number of roots:             1

 Hamiltonian diagonaliser entered at time     17.02

 Initial configuration generated:
    6601      1.0000000     -5.3142480

 It  Tr    CPU  Convergence   Energy       Pop     dE(next)

  1   1  215.6  1.00000000    -5.31424799
                                           0.00 -0.11474684 -0.11474291
  2   1  361.4  0.22259301    -5.41037370
                                           0.01 -0.00624516 -0.00620495
  3   1  588.4  0.04354281    -5.41610017
                                           0.03 -0.00041122 -0.00040375
  4   1  938.2  0.01233417    -5.41650068
                                           0.06 -0.00002987 -0.00002884
  5   1 1463.6  0.00350260    -5.41653160
                                           0.10 -0.00000304 -0.00000287
  6   1 2180.0  0.00119843    -5.41653473
                                           0.14 -0.00000041 -0.00000038
  7   1 3101.9  0.00040054    -5.41653514
                                           0.17 -0.00000007 -0.00000006
  8   1 4208.0  0.00016715    -5.41653520
                                           0.20 -0.00000001 -0.00000001
  9   1 5442.8  0.00005939    -5.41653521
                                           0.21 -0.00000000 -0.00000000
 10   1 6732.6  0.00002330    -5.41653522
                                           0.21 -0.00000000 -0.00000000
 11   1 8031.6  0.00000768    -5.41653522


RESULTS FOR STATE 1.4
=====================

 Correlation energy                    -0.102287224293
 !FCI STATE 1.4 Energy                 -5.416535215945
 CI Vector (threshold= 0.500E-01)
       0.970017291693  1 26 46  1
      -0.136009572642 26 46 77 77
 /EOF
 !FCI STATE 1.4 Dipole moment           0.00000000     0.00000000     0.00000000
 Dipole moment /Debye                   0.00000000     0.00000000     0.00000000
 

 !FCI expec          <1.4|EKIN|1.4>     3.564174423846
 
 !FCI expec           <1.4|POT|1.4>    -3.085220795833


 **********************************************************************************************************************************
 DATASETS  * FILE   NREC   LENGTH (MB)   RECORD NAMES
              1      21       38.86       500      610      700      900      950      970     1000      129      960     1100   
                                          VAR    BASINP    GEOM    SYMINP    ZMAT    AOBASIS   BASIS     P2S    ABASIS      S 
                                         1400     1410     1420     1200     1210     1080     1600     1650     1300     1700   
                                         EKIN       V       ECP      H0       H01     AOSYM     SMH    MOLCAS    ERIS     OPER   
                                         1380   
                                         JKOP   

              2       6        8.00       700     1000      520     4202     5202     2101   
                                         GEOM     BASIS   MCVARS     RHF     MCSCF     RHF  

 PROGRAMS   *        TOTAL       FCI       RHF     MULTI       RHF       INT
 CPU TIMES  *      8033.98   8029.77      0.03      0.18      0.22      3.63
 REAL TIME  *      8082.03 SEC
 DISK USED  *       989.44 MB      
 **********************************************************************************************************************************
 SETTING POSTHF(I)      =        -5.41653522  AU                              
                                                                                                                                                                                                                                                                

       SCF           POSTHF       EKIN          POT
    -5.31424799   -5.41653522   3.56417442   -3.08522080
                                                  

 FCI/USERDEF energy=     -5.416535215945

        FCI             RHF-SCF         MULTI           RHF-SCF 
     -5.41653522     -5.31424799     -5.31424799     -5.31431738
 **********************************************************************************************************************************
 Variable memory released
