
 Primary working directories    : /global/cscratch1/sd/aannabe
 Secondary working directories  : /global/cscratch1/sd/aannabe
 Wavefunction directory         : /global/homes/a/aannabe/wfu/
 Main file repository           : /global/cscratch1/sd/aannabe/

 SHA1      : 19cd028119e0e09f93f0674bd8af7968d9b3eff6
 NAME      : 2015.1.36
 ARCHNAME  : linux/x86_64
 FC        : /opt/cray/pe/craype/2.5.14/bin/ftn
 BLASLIB   : -L/opt/intel/compilers_and_libraries_2018.1.163/linux/mkl/lib/intel64 -Wl,-_start-group -lmkl_intel_ilp64 -lmkl_intel_thread -lmkl_core -Wl,-_end-group -liomp5
 id        : lbl

 Nodes     nprocs
 nid00504     1

 Using customized tuning parameters: mindgm=7; mindgv=16; mindgc=1; mindgr=1; noblas=0; minvec=7
 default implementation of scratch files=df  

 ***,P
 memory,512,m
 gthresh,twoint=1.e-12
 
 gprint,basis,orbitals
 gexpec,ekin,pot
 
 angstrom
 geometry={
 1                                                                               ! Number of atoms
 P 0.0 0.0 0.0
 }
 
 basis={
 Including file /global/homes/a/aannabe/repos/pseudopotentiallibrary/recipes/P/ccECP_He_core/P.ccECP.molpro
 Including file /global/homes/a/aannabe/repos/pseudopotentiallibrary/recipes/P/ccECP_He_core/cc-pCVTZ.molpro
 }
 
 {hf
  wf,13,8,3
  occ,2,2,2,0,2,0,0,0
  closed,2,1,1,0,1,0,0,0
                                                                                 !open,2.3,2.5,2.2
 }
 scf(i)=energy
 
 _CC_NORM_MAX=2.0
 {uccsd(t)
 maxit,100
 core
 }
 posthf(i)=energy
 
 table,scf,posthf,ekin,pot
 save,3.csv,new
 
 

 Variables initialized (889), CPU time= 0.00 sec
 Commands  initialized (702), CPU time= 0.01 sec, 572 directives.
 Default parameters read. Elapsed time= 0.19 sec

 Checking input...
 Passed
1


                                         ***  PROGRAM SYSTEM MOLPRO  ***
                                       Copyright, TTI GmbH Stuttgart, 2015
                                    Version 2015.1 linked Dec 29 2018 15:55:43


 **********************************************************************************************************************************
 LABEL *   P                                                                             
  64 bit serial version                                                                  DATE: 03-Jan-19          TIME: 17:55:46  
 **********************************************************************************************************************************

 SHA1:             19cd028119e0e09f93f0674bd8af7968d9b3eff6
 **********************************************************************************************************************************

 THRESHOLDS:

 ZERO    =  1.00D-12  ONEINT  =  1.00D-12  TWOINT  =  1.00D-12  PREFAC  =  1.00D-14  LOCALI  =  1.00D-09  EORDER  =  1.00D-04
 ENERGY  =  0.00D+00  ETEST   =  0.00D+00  EDENS   =  0.00D+00  THRDEDEF=  1.00D-06  GRADIENT=  1.00D-02  STEP    =  1.00D-03
 ORBITAL =  1.00D-05  CIVEC   =  1.00D-05  COEFF   =  1.00D-04  PRINTCI =  5.00D-02  PUNCHCI =  9.90D+01  OPTGRAD =  3.00D-04
 OPTENERG=  1.00D-06  OPTSTEP =  3.00D-04  THRGRAD =  1.00D-10  COMPRESS=  1.00D-11  VARMIN  =  1.00D-07  VARMAX  =  1.00D-03
 THRDOUB =  0.00D+00  THRDIV  =  1.00D-05  THRRED  =  1.00D-07  THRPSP  =  1.00D+00  THRDC   =  1.00D-10  THRCS   =  1.00D-10
 THRNRM  =  1.00D-08  THREQ   =  0.00D+00  THRDE   =  1.00D+00  THRREF  =  1.00D-05  SPARFAC =  1.00D+00  THRDLP  =  1.00D-07
 THRDIA  =  1.00D-10  THRDLS  =  1.00D-07  THRGPS  =  0.00D+00  THRKEX  =  0.00D+00  THRDIS  =  2.00D-01  THRVAR  =  1.00D-10
 THRLOC  =  1.00D-06  THRGAP  =  1.00D-06  THRLOCT = -1.00D+00  THRGAPT = -1.00D+00  THRORB  =  1.00D-06  THRMLTP =  0.00D+00
 THRCPQCI=  1.00D-10  KEXTA   =  0.00D+00  THRCOARS=  0.00D+00  SYMTOL  =  1.00D-06  GRADTOL =  1.00D-06  THROVL  =  1.00D-08
 THRORTH =  1.00D-08  GRID    =  1.00D-06  GRIDMAX =  1.00D-03  DTMAX   =  0.00D+00  THROCCDE=  1.00D-01  THROCCDE=  1.00D-01



 ZUNIT=ANG
 

Geometry recognized as XYZ


 Variable memory set to  512000000 words,  buffer space   230000 words

 SETTING BASIS          =    USERDEF


 Recomputing integrals since basis changed


 Using spherical harmonics



 PROGRAM * SEWARD (Integral evaluation for generally contracted gaussian basis sets)     Author: Roland Lindh, 1990

 Geometry written to block  1 of record 700

 Orientation using atomic masses  
 Molecule type: Atom
 Symmetry elements: X,Y,Z
 Rotational constants:       0.0000000      0.0000000      0.0000000 GHz  (calculated with average atomic masses)

 Point group  D2h 



 ATOMIC COORDINATES

 NR  ATOM    CHARGE       X              Y              Z

   1  P       5.00    0.000000000    0.000000000    0.000000000


          P   CORE POTENTIAL

          d POTENTIAL

 POWERS             1              3              2              1              1
 EXPONENTIALS   15.07330       18.11318       17.37154       0.000000       0.000000    
 COEFFICIENTS   13.00000       195.9529      -117.6111       5.000000      -13.00000    

          s - d POTENTIAL

 POWERS             2              2
 EXPONENTIALS   101.9820       37.48588    
 COEFFICIENTS   25.19723       189.4263    

          p - d POTENTIAL

 POWERS             2
 EXPONENTIALS   1.000000    
 COEFFICIENTS   0.000000    


 BASIS DATA

   Nr Sym  Nuc  Type         Exponents   Contraction coefficients

    1.1 Ag    1  1s         269.443884     0.000055    0.000018
    2.1 Ag                  127.601401    -0.000624   -0.000026
                             60.428603     0.019400   -0.004933
                             28.617367    -0.165509    0.050120
                             13.552418    -0.054265    0.015801
                              6.418062     0.254440   -0.084463
                              3.039422     0.549661   -0.246742
                              1.439389     0.322285   -0.276326
                              0.681656     0.026632    0.100274
                              0.322814     0.004203    0.517201
                              0.152876    -0.001233    0.479758
                              0.072398     0.000497    0.124099
    3.1 Ag    1  1s          11.989023     1.000000
    4.1 Ag    1  1s           2.211004     1.000000
    5.1 Ag    1  1s           0.725938     1.000000
    6.1 Ag    1  1s           0.115599     1.000000
    7.1 Ag    1  3d0         13.395088     1.000000
    8.1 Ag    1  3d2+        13.395088     1.000000
    9.1 Ag    1  3d0          4.141095     1.000000
   10.1 Ag    1  3d2+         4.141095     1.000000
   11.1 Ag    1  3d0          0.643126     1.000000
   12.1 Ag    1  3d2+         0.643126     1.000000
   13.1 Ag    1  3d0          0.214392     1.000000
   14.1 Ag    1  3d2+         0.214392     1.000000
    1.2 B3u   1  2px         48.154282     0.012884   -0.003152
    2.2 B3u                  25.406431     0.097095   -0.023006
                             13.404555     0.178215   -0.042398
                              7.072308     0.265964   -0.067477
                              3.731384     0.312933   -0.082952
                              1.968696     0.230686   -0.066026
                              1.038693     0.080489    0.034468
                              0.548020     0.009085    0.209018
                              0.289138     0.001248    0.347179
                              0.152550    -0.000066    0.344806
                              0.080486     0.000129    0.181731
                              0.042465    -0.000029    0.036649
    3.2 B3u   1  2px          5.919384     1.000000
    4.2 B3u   1  2px          2.309807     1.000000
    5.2 B3u   1  2px          0.625438     1.000000
    6.2 B3u   1  2px          0.093233     1.000000
    7.2 B3u   1  4f1+         8.712500     1.000000
    8.2 B3u   1  4f3+         8.712500     1.000000
    9.2 B3u   1  4f1+         0.457026     1.000000
   10.2 B3u   1  4f3+         0.457026     1.000000
    1.3 B2u   1  2py         48.154282     0.012884   -0.003152
    2.3 B2u                  25.406431     0.097095   -0.023006
                             13.404555     0.178215   -0.042398
                              7.072308     0.265964   -0.067477
                              3.731384     0.312933   -0.082952
                              1.968696     0.230686   -0.066026
                              1.038693     0.080489    0.034468
                              0.548020     0.009085    0.209018
                              0.289138     0.001248    0.347179
                              0.152550    -0.000066    0.344806
                              0.080486     0.000129    0.181731
                              0.042465    -0.000029    0.036649
    3.3 B2u   1  2py          5.919384     1.000000
    4.3 B2u   1  2py          2.309807     1.000000
    5.3 B2u   1  2py          0.625438     1.000000
    6.3 B2u   1  2py          0.093233     1.000000
    7.3 B2u   1  4f1-         8.712500     1.000000
    8.3 B2u   1  4f3-         8.712500     1.000000
    9.3 B2u   1  4f1-         0.457026     1.000000
   10.3 B2u   1  4f3-         0.457026     1.000000
    1.4 B1g   1  3d2-        13.395088     1.000000
    2.4 B1g   1  3d2-         4.141095     1.000000
    3.4 B1g   1  3d2-         0.643126     1.000000
    4.4 B1g   1  3d2-         0.214392     1.000000
    1.5 B1u   1  2pz         48.154282     0.012884   -0.003152
    2.5 B1u                  25.406431     0.097095   -0.023006
                             13.404555     0.178215   -0.042398
                              7.072308     0.265964   -0.067477
                              3.731384     0.312933   -0.082952
                              1.968696     0.230686   -0.066026
                              1.038693     0.080489    0.034468
                              0.548020     0.009085    0.209018
                              0.289138     0.001248    0.347179
                              0.152550    -0.000066    0.344806
                              0.080486     0.000129    0.181731
                              0.042465    -0.000029    0.036649
    3.5 B1u   1  2pz          5.919384     1.000000
    4.5 B1u   1  2pz          2.309807     1.000000
    5.5 B1u   1  2pz          0.625438     1.000000
    6.5 B1u   1  2pz          0.093233     1.000000
    7.5 B1u   1  4f0          8.712500     1.000000
    8.5 B1u   1  4f2+         8.712500     1.000000
    9.5 B1u   1  4f0          0.457026     1.000000
   10.5 B1u   1  4f2+         0.457026     1.000000
    1.6 B2g   1  3d1+        13.395088     1.000000
    2.6 B2g   1  3d1+         4.141095     1.000000
    3.6 B2g   1  3d1+         0.643126     1.000000
    4.6 B2g   1  3d1+         0.214392     1.000000
    1.7 B3g   1  3d1-        13.395088     1.000000
    2.7 B3g   1  3d1-         4.141095     1.000000
    3.7 B3g   1  3d1-         0.643126     1.000000
    4.7 B3g   1  3d1-         0.214392     1.000000
    1.8 Au    1  4f2-         8.712500     1.000000
    2.8 Au    1  4f2-         0.457026     1.000000

 NUCLEAR CHARGE:                    5
 NUMBER OF PRIMITIVE AOS:         108
 NUMBER OF SYMMETRY AOS:           98
 NUMBER OF CONTRACTIONS:           58   (  14Ag  +  10B3u +  10B2u +   4B1g +  10B1u +   4B2g +   4B3g +   2Au  )
 NUMBER OF CORE ORBITALS:           0   (   0Ag  +   0B3u +   0B2u +   0B1g +   0B1u +   0B2g +   0B3g +   0Au  )
 NUMBER OF VALENCE ORBITALS:        4   (   1Ag  +   1B3u +   1B2u +   0B1g +   1B1u +   0B2g +   0B3g +   0Au  )


 NUCLEAR REPULSION ENERGY    0.00000000

 EXTRA SYMMETRY OF AOS IN SYMMETRY 1:   1 1 1 1 1 1 2 3 2 3   2 3 2 3
 EXTRA SYMMETRY OF AOS IN SYMMETRY 2:   1 1 1 1 1 1 2 3 2 3
 EXTRA SYMMETRY OF AOS IN SYMMETRY 3:   1 1 1 1 1 1 2 3 2 3
 EXTRA SYMMETRY OF AOS IN SYMMETRY 5:   1 1 1 1 1 1 2 3 2 3

 Eigenvalues of metric

         1 0.462E-02 0.100E-01 0.146E+00 0.314E+00 0.314E+00 0.490E+00 0.490E+00 0.558E+00
         2 0.122E-01 0.252E-01 0.148E+00 0.591E+00 0.976E+00 0.976E+00 0.102E+01 0.102E+01
         3 0.122E-01 0.252E-01 0.148E+00 0.591E+00 0.976E+00 0.976E+00 0.102E+01 0.102E+01
         4 0.314E+00 0.490E+00 0.141E+01 0.178E+01
         5 0.122E-01 0.252E-01 0.148E+00 0.591E+00 0.976E+00 0.976E+00 0.102E+01 0.102E+01
         6 0.314E+00 0.490E+00 0.141E+01 0.178E+01
         7 0.314E+00 0.490E+00 0.141E+01 0.178E+01
         8 0.976E+00 0.102E+01


 Contracted 2-electron integrals neglected if value below      1.0D-12
 AO integral compression algorithm  1   Integral accuracy      1.0D-12

     2.359 MB (compressed) written to integral file ( 69.8%)


 NUMBER OF SORTED TWO-ELECTRON INTEGRALS:     203904.     BUFFER LENGTH:  32768
 NUMBER OF SEGMENTS:   1  SEGMENT LENGTH:     203904      RECORD LENGTH: 524288

 Memory used in sort:       0.76 MW

 SORT1 READ      417520. AND WROTE      167428. INTEGRALS IN      1 RECORDS. CPU TIME:     0.01 SEC, REAL TIME:     0.07 SEC
 SORT2 READ      167428. AND WROTE      203904. INTEGRALS IN      9 RECORDS. CPU TIME:     0.02 SEC, REAL TIME:     0.05 SEC

 FILE SIZES:   FILE 1:    22.3 MBYTE,  FILE 4:     4.2 MBYTE,   TOTAL:     26.6 MBYTE

 OPERATOR DM      FOR CENTER  0  COORDINATES:    0.000000    0.000000    0.000000
 OPERATOR EKIN    FOR CENTER  0  COORDINATES:    0.000000    0.000000    0.000000
 OPERATOR POT     FOR CENTER  0  COORDINATES:    0.000000    0.000000    0.000000


 **********************************************************************************************************************************
 DATASETS  * FILE   NREC   LENGTH (MB)   RECORD NAMES
              1      20       21.07       500      610      700      900      950      970     1000      129      960     1100   
                                          VAR    BASINP    GEOM    SYMINP    ZMAT    AOBASIS   BASIS     P2S    ABASIS      S 
                                         1400     1410     1420     1200     1210     1080     1600     1650     1300     1700   
                                         EKIN       V       ECP      H0       H01     AOSYM     SMH    MOLCAS    ERIS     OPER   

 PROGRAMS   *        TOTAL       INT
 CPU TIMES  *         0.56      0.44
 REAL TIME  *         4.11 SEC
 DISK USED  *        26.83 MB      
 **********************************************************************************************************************************


 PROGRAM * RHF-SCF (OPEN SHELL)       Authors: W. Meyer, H.-J. Werner


 NUMBER OF ELECTRONS:       8+    5-    SPACE SYMMETRY=8    SPIN SYMMETRY: Quartet 
 CONVERGENCE THRESHOLDS:    1.00E-05 (Density)    1.00E-07 (Energy)
 MAX. NUMBER OF ITERATIONS:       60
 INTERPOLATION TYPE:            DIIS
 INTERPOLATION STEPS:              2 (START)      1 (STEP)
 LEVEL SHIFTS:                 -0.60 (CLOSED) -0.30 (OPEN) 

 Number of closed-shell orbitals:    5 (   2   1   1   0   1   0   0   0 )
 Number of open-shell orbitals:      3 (   0   1   1   0   1   0   0   0 )



   Atom=P  basis=ECP10MWB_GUESS    lmin=0  lmax=1

 Orbital guess generated from atomic densities. Full valence occupancy:    1   1   1   0   1   0   0   0


 Molecular orbital dump at record        2100.2

 ITERATION    DDIFF          GRAD             ENERGY        2-EL.EN.            DIPOLE MOMENTS         DIIS   ORB.
    1      0.000D+00      0.000D+00      -109.40313951    221.147072    0.00000    0.00000    0.00000    0    start
    2      0.000D+00      0.866D+00      -123.03263002    125.384424    0.00000    0.00000    0.00000    1    diag,B
    3      0.830D+00      0.337D+00      -125.14559420    146.271251    0.00000    0.00000    0.00000    2    diag,B
    4      0.196D+00      0.345D-01      -125.23961975    148.539161    0.00000    0.00000    0.00000    3    diag,B
    5      0.619D-01      0.950D-02      -125.25569059    149.027623    0.00000    0.00000    0.00000    4    diag,B
    6      0.327D-01      0.317D-02      -125.25857379    149.264330    0.00000    0.00000    0.00000    5    diag,B
    7      0.213D-01      0.807D-03      -125.25870251    149.278694    0.00000    0.00000    0.00000    6    fixocc
    8      0.748D-02      0.153D-03      -125.25870578    149.261596    0.00000    0.00000    0.00000    7    diag,B
    9      0.148D-02      0.186D-04      -125.25870588    149.258387    0.00000    0.00000    0.00000    8    diag,B
   10      0.127D-03      0.119D-05      -125.25870588    149.258089    0.00000    0.00000    0.00000    9    orth
   11      0.100D-04      0.110D-06      -125.25870588    149.258078    0.00000    0.00000    0.00000    9    diag,B
   12      0.549D-06      0.120D-07      -125.25870588    149.258078    0.00000    0.00000    0.00000    0    orth

 Final alpha occupancy:   2   2   2   0   2   0   0   0
 Final beta  occupancy:   2   1   1   0   1   0   0   0

 !RHF STATE 1.8 Energy               -125.258705881734
 Nuclear energy                         0.00000000
 One-electron energy                 -199.88774487
 Two-electron energy                   74.62903899
 Virial quotient                       -1.27363337
 !RHF STATE 1.8 Dipole moment           0.00000000     0.00000000     0.00000000
 Dipole moment /Debye                   0.00000000     0.00000000     0.00000000
 

 !RHF expec          <1.8|EKIN|1.8>    98.347537673679
 
 !RHF expec           <1.8|POT|1.8>   -23.457377824676

 ELECTRON ORBITALS
 =================


   Orb  Occ    Energy  Couls-En    Coefficients

                                   1 1s      1 1s      1 1s      1 1s      1 1s      1 1s      1 3d0     1 3d2+    1 3d0     1 3d2+ 
                                   1 3d0     1 3d2+    1 3d0     1 3d2+ 

   1.1   2    -7.5350  -29.2869  0.999974 -0.000014 -0.000005  0.000029 -0.000005  0.000017  0.000000  0.000000 -0.000000 -0.000000
                                 0.000000 -0.000000 -0.000000  0.000000

   2.1   2    -0.6996   -7.9194  0.000022  1.000048  0.000001  0.000000 -0.000012 -0.000046  0.000000 -0.000000 -0.000000  0.000000
                                 0.000000 -0.000000 -0.000000  0.000000

                                   1 2px     1 2px     1 2px     1 2px     1 2px     1 2px     1 4f1+    1 4f3+    1 4f1+    1 4f3+ 


   1.2   2    -5.4978  -26.1359  0.999995 -0.000003  0.000004 -0.000001  0.000003  0.000003 -0.000000  0.000000 -0.000000 -0.000000

   2.2   +    -0.3912   -6.4298 -0.000004  0.999988  0.000003 -0.000002  0.000005  0.000011  0.000000 -0.000000 -0.000000  0.000000

                                   1 2py     1 2py     1 2py     1 2py     1 2py     1 2py     1 4f1-    1 4f3-    1 4f1-    1 4f3- 


   1.3   2    -5.4978  -26.1359  0.999995 -0.000003  0.000004 -0.000001  0.000003  0.000003 -0.000000 -0.000000 -0.000000  0.000000

   2.3   +    -0.3912   -6.4298 -0.000004  0.999988  0.000003 -0.000002  0.000005  0.000011  0.000000  0.000000 -0.000000 -0.000000

                                   1 2pz     1 2pz     1 2pz     1 2pz     1 2pz     1 2pz     1 4f0     1 4f2+    1 4f0     1 4f2+ 


   1.5   2    -5.4978  -26.1359  0.999995 -0.000003  0.000004 -0.000001  0.000003  0.000003  0.000000 -0.000000 -0.000000 -0.000000

   2.5   +    -0.3912   -6.4298 -0.000004  0.999988  0.000003 -0.000002  0.000005  0.000011  0.000000 -0.000000 -0.000000 -0.000000

 HOMO      2.2    -0.391237 =     -10.6461eV
 LUMO      3.2     0.348419 =       9.4810eV
 LUMO-HOMO         0.739656 =      20.1271eV


 **********************************************************************************************************************************
 DATASETS  * FILE   NREC   LENGTH (MB)   RECORD NAMES
              1      20       21.07       500      610      700      900      950      970     1000      129      960     1100   
                                          VAR    BASINP    GEOM    SYMINP    ZMAT    AOBASIS   BASIS     P2S    ABASIS      S 
                                         1400     1410     1420     1200     1210     1080     1600     1650     1300     1700   
                                         EKIN       V       ECP      H0       H01     AOSYM     SMH    MOLCAS    ERIS     OPER   

              2       4        2.77       700     1000      520     2100   
                                         GEOM     BASIS   MCVARS     RHF  

 PROGRAMS   *        TOTAL        HF       INT
 CPU TIMES  *         0.61      0.05      0.44
 REAL TIME  *         4.68 SEC
 DISK USED  *        26.83 MB      
 **********************************************************************************************************************************
 SETTING SCF(I)         =      -125.25870588  AU                              
 SETTING _CC_NORM_MAX   =         2.00000000                                  


 PROGRAM * CCSD (Unrestricted open-shell coupled cluster)     Authors: C. Hampel, H.-J. Werner, 1991, M. Deegan, P.J. Knowles, 1992


 Convergence thresholds:  THRVAR = 1.00D-08  THRDEN = 1.00D-06

 CCSD(T)     terms to be evaluated (factor= 1.000)


 Number of closed-shell orbitals:   5 (   2   1   1   0   1   0   0   0 )
 Number of active  orbitals:        3 (   0   1   1   0   1   0   0   0 )
 Number of external orbitals:      50 (  12   8   8   4   8   4   4   2 )

 Memory could be reduced to 0.68 Mwords without degradation in triples

 Number of N-1 electron functions:              13
 Number of N-2 electron functions:              78
 Number of singly external CSFs:               129
 Number of doubly external CSFs:             21864
 Total number of CSFs:                       21993

 Molecular orbitals read from record     2100.2  Type=RHF/CANONICAL (state 1.8)

 Integral transformation finished. Total CPU:   0.00 sec, npass=  1  Memory used:   0.14 MW

 Starting RMP2 calculation

 ITER.      SQ.NORM     CORR.ENERGY   TOTAL ENERGY   ENERGY CHANGE        DEN1      VAR(S)    VAR(P)  DIIS     TIME
   1      1.05292992    -0.36649924  -125.62520512    -0.36649924    -0.00061630  0.71D-06  0.33D-03  1  1     0.02
   2      1.05377580    -0.36717208  -125.62587796    -0.00067284    -0.00000254  0.17D-08  0.13D-05  2  2     0.02
   3      1.05382306    -0.36720131  -125.62590719    -0.00002923    -0.00000001  0.27D-11  0.41D-08  3  3     0.02
   4      1.05382376    -0.36720151  -125.62590739    -0.00000020    -0.00000000  0.28D-13  0.47D-11  4  4     0.02

 Norm of t1 vector:      0.01030505      S-energy:    -0.00033295      T1 diagnostic:  0.00015041
 Norm of t2 vector:      0.23177050      P-energy:    -0.36686856
                                         Alpha-Beta:  -0.27065810
                                         Alpha-Alpha: -0.06084357
                                         Beta-Beta:   -0.03536689

 Spin contamination <S**2-Sz**2-Sz>     0.00056993
  Reference energy                   -125.258705881734
  RHF-RMP2 correlation energy          -0.367201513088
 !RHF-RMP2 energy                    -125.625907394822

 Starting UCCSD calculation

 ITER.      SQ.NORM     CORR.ENERGY   TOTAL ENERGY   ENERGY CHANGE        DEN1      VAR(S)    VAR(P)  DIIS     TIME
   1      1.06493940    -0.38022155  -125.63892744    -0.38022155    -0.00529203  0.27D-03  0.21D-02  1  1     0.06
   2      1.07194093    -0.38549062  -125.64419650    -0.00526907    -0.00027985  0.11D-04  0.12D-03  2  2     0.11
   3      1.07408677    -0.38658866  -125.64529454    -0.00109804    -0.00001368  0.39D-06  0.63D-05  3  3     0.14
   4      1.07452100    -0.38675734  -125.64546322    -0.00016868    -0.00000076  0.21D-07  0.37D-06  4  4     0.17
   5      1.07457772    -0.38676660  -125.64547248    -0.00000926    -0.00000002  0.73D-09  0.92D-08  5  5     0.21
   6      1.07458182    -0.38676757  -125.64547346    -0.00000098    -0.00000000  0.71D-10  0.23D-09  6  6     0.25

 Norm of t1 vector:      0.02515361      S-energy:    -0.00033185      T1 diagnostic:  0.00453298
                                                                       D1 diagnostic:  0.01093058
 Norm of t2 vector:      0.27193587      P-energy:    -0.38643573
                                         Alpha-Beta:  -0.29014962
                                         Alpha-Alpha: -0.06169114
                                         Beta-Beta:   -0.03459497

 Doubles amplitudes (print threshold =  0.500E-01):

         I         J         SYM. A    SYM. B    A         B      T(IJ, AB) [Alpha-Beta]

         4         2         1         2         2         1     -0.05716109
         4         2         4         3         1         1     -0.05714997
         4         2         6         5         1         1     -0.05714997
         6         2         1         3         2         1      0.05713885
         6         2         4         2         1         1     -0.05714997
         6         2         7         5         1         1     -0.05714997
         8         2         1         5         3         1     -0.06599110
         8         2         6         2         1         1     -0.05714997
         8         2         7         3         1         1     -0.05714997

 Spin contamination <S**2-Sz**2-Sz>     0.00372546

 Memory could be reduced to 0.72 Mwords without degradation in triples
 

 RESULTS
 =======

  Reference energy                   -125.258705881734
  UCCSD singles energy                 -0.000331845861
  UCCSD pair energy                    -0.386435728977
  UCCSD correlation energy             -0.386767574838
  Triples (T) contribution             -0.006106855708
  Total correlation energy             -0.392874430547
 
  RHF-UCCSD energy                   -125.645473456572
  RHF-UCCSD[T] energy                -125.651632700381
  RHF-UCCSD-T energy                 -125.651578428970
 !RHF-UCCSD(T) energy                -125.651580312280

 Program statistics:

 Available memory in ccsd:               511999308
 Min. memory needed in ccsd:                 79348
 Max. memory used in ccsd:                  104131
 Max. memory used in cckext:                127872 ( 6 integral passes)
 Max. memory used in cckint:                136635 ( 1 integral passes)



 **********************************************************************************************************************************
 DATASETS  * FILE   NREC   LENGTH (MB)   RECORD NAMES
              1      20       21.07       500      610      700      900      950      970     1000      129      960     1100   
                                          VAR    BASINP    GEOM    SYMINP    ZMAT    AOBASIS   BASIS     P2S    ABASIS      S 
                                         1400     1410     1420     1200     1210     1080     1600     1650     1300     1700   
                                         EKIN       V       ECP      H0       H01     AOSYM     SMH    MOLCAS    ERIS     OPER   

              2       4        2.77       700     1000      520     2100   
                                         GEOM     BASIS   MCVARS     RHF  

 PROGRAMS   *        TOTAL  UCCSD(T)        HF       INT
 CPU TIMES  *         1.09      0.48      0.05      0.44
 REAL TIME  *         7.55 SEC
 DISK USED  *        32.72 MB      
 **********************************************************************************************************************************
 SETTING POSTHF(I)      =      -125.65158031  AU                              
                                                                                                                                                                                                                                                                

         SCF            POSTHF       EKIN           POT
    -125.2587059   -125.6515803   98.34753767   -23.45737782
                                                  

 UCCSD(T)/USERDEF energy=   -125.651580312280

        UCCSD(T)        HF-SCF  
   -125.65158031   -125.25870588
 **********************************************************************************************************************************
 Molpro calculation terminated
 Variable memory released
