
 Primary working directories    : /global/cscratch1/sd/aannabe
 Secondary working directories  : /global/cscratch1/sd/aannabe
 Wavefunction directory         : /global/homes/a/aannabe/wfu/
 Main file repository           : /global/cscratch1/sd/aannabe/

 SHA1      : 19cd028119e0e09f93f0674bd8af7968d9b3eff6
 NAME      : 2015.1.36
 ARCHNAME  : linux/x86_64
 FC        : /opt/cray/pe/craype/2.5.14/bin/ftn
 BLASLIB   : -L/opt/intel/compilers_and_libraries_2018.1.163/linux/mkl/lib/intel64 -Wl,-_start-group -lmkl_intel_ilp64 -lmkl_intel_thread -lmkl_core -Wl,-_end-group -liomp5
 id        : lbl

 Nodes     nprocs
 nid00444     1

 Using customized tuning parameters: mindgm=7; mindgv=16; mindgc=1; mindgr=1; noblas=0; minvec=7
 default implementation of scratch files=df  

 ***,S
 memory,8,g
 gthresh,twoint=1.e-12
 
 gprint,basis,orbitals
 gexpec,ekin,pot
 
 angstrom
 geometry={
 1                                                                               ! Number of atoms
 S 0.0 0.0 0.0
 }
 
 basis={
 Including file /global/homes/a/aannabe/repos/pseudopotentiallibrary/recipes/S/ccECP_He_core/S.ccECP.molpro
 Including file /global/homes/a/aannabe/repos/pseudopotentiallibrary/recipes/S/ccECP_He_core/cc-pCVTZ.molpro
 }
 
 {hf
  wf,14,7,2
  occ,2,2,2,0,2,0,0,0
  closed,2,2,1,0,1,0,0,0
                                                                                 !open,2.3,2.5
 }
 scf(i)=energy
 
 _CC_NORM_MAX=2.0
  !NOTE: Perturbative MRCC works only with UHF reference. So, here we will trick MRCC by doing zero UHF iteration right after ROHF.
 
 {uhf
  wf,14,7,2
  occ,2,2,2,0,2,0,0,0
  closed,2,2,1,0,1,0,0,0
                                                                                 !open,2.3,2.5
 maxit,0
 }
 scf(i)=energy
 
 {mrcc,method=CCSDT(Q),dir=S                                                     !,restart=1
 orbital,ignore_error=1                                                          !Ignore the fact that UHF WF is not converged
 maxit,100
 core
 }
 posthf(i)=energy
 
 table,scf,posthf,ekin,pot
 save,3.csv,new
 
 

 Variables initialized (889), CPU time= 0.01 sec
 Commands  initialized (702), CPU time= 0.00 sec, 572 directives.
 Default parameters read. Elapsed time= 0.13 sec

 Checking input...
 Passed
1


                                         ***  PROGRAM SYSTEM MOLPRO  ***
                                       Copyright, TTI GmbH Stuttgart, 2015
                                    Version 2015.1 linked Dec 29 2018 15:55:43


 **********************************************************************************************************************************
 LABEL *   S                                                                             
  64 bit serial version                                                                  DATE: 04-Jan-19          TIME: 10:55:54  
 **********************************************************************************************************************************

 SHA1:             19cd028119e0e09f93f0674bd8af7968d9b3eff6
 **********************************************************************************************************************************

 THRESHOLDS:

 ZERO    =  1.00D-12  ONEINT  =  1.00D-12  TWOINT  =  1.00D-12  PREFAC  =  1.00D-14  LOCALI  =  1.00D-09  EORDER  =  1.00D-04
 ENERGY  =  0.00D+00  ETEST   =  0.00D+00  EDENS   =  0.00D+00  THRDEDEF=  1.00D-06  GRADIENT=  1.00D-02  STEP    =  1.00D-03
 ORBITAL =  1.00D-05  CIVEC   =  1.00D-05  COEFF   =  1.00D-04  PRINTCI =  5.00D-02  PUNCHCI =  9.90D+01  OPTGRAD =  3.00D-04
 OPTENERG=  1.00D-06  OPTSTEP =  3.00D-04  THRGRAD =  1.00D-10  COMPRESS=  1.00D-11  VARMIN  =  1.00D-07  VARMAX  =  1.00D-03
 THRDOUB =  0.00D+00  THRDIV  =  1.00D-05  THRRED  =  1.00D-07  THRPSP  =  1.00D+00  THRDC   =  1.00D-10  THRCS   =  1.00D-10
 THRNRM  =  1.00D-08  THREQ   =  0.00D+00  THRDE   =  1.00D+00  THRREF  =  1.00D-05  SPARFAC =  1.00D+00  THRDLP  =  1.00D-07
 THRDIA  =  1.00D-10  THRDLS  =  1.00D-07  THRGPS  =  0.00D+00  THRKEX  =  0.00D+00  THRDIS  =  2.00D-01  THRVAR  =  1.00D-10
 THRLOC  =  1.00D-06  THRGAP  =  1.00D-06  THRLOCT = -1.00D+00  THRGAPT = -1.00D+00  THRORB  =  1.00D-06  THRMLTP =  0.00D+00
 THRCPQCI=  1.00D-10  KEXTA   =  0.00D+00  THRCOARS=  0.00D+00  SYMTOL  =  1.00D-06  GRADTOL =  1.00D-06  THROVL  =  1.00D-08
 THRORTH =  1.00D-08  GRID    =  1.00D-06  GRIDMAX =  1.00D-03  DTMAX   =  0.00D+00  THROCCDE=  1.00D-01  THROCCDE=  1.00D-01



 ZUNIT=ANG
 

Geometry recognized as XYZ


 Variable memory set to 8000000000 words,  buffer space   230000 words

 SETTING BASIS          =    USERDEF


 Recomputing integrals since basis changed


 Using spherical harmonics



 PROGRAM * SEWARD (Integral evaluation for generally contracted gaussian basis sets)     Author: Roland Lindh, 1990

 Geometry written to block  1 of record 700

 Orientation using atomic masses  
 Molecule type: Atom
 Symmetry elements: X,Y,Z
 Rotational constants:       0.0000000      0.0000000      0.0000000 GHz  (calculated with average atomic masses)

 Point group  D2h 



 ATOMIC COORDINATES

 NR  ATOM    CHARGE       X              Y              Z

   1  S       6.00    0.000000000    0.000000000    0.000000000


          S   CORE POTENTIAL

          d POTENTIAL

 POWERS             1              3              2              1              1
 EXPONENTIALS   17.97761       20.43596       19.79658       0.000000       0.000000    
 COEFFICIENTS   14.00000       251.6866      -135.5389       6.000000      -14.00000    

          s - d POTENTIAL

 POWERS             2              2
 EXPONENTIALS   111.9363       43.94184    
 COEFFICIENTS   25.24328       227.0608    

          p - d POTENTIAL

 POWERS             2
 EXPONENTIALS   1.000000    
 COEFFICIENTS   0.000000    


 BASIS DATA

   Nr Sym  Nuc  Type         Exponents   Contraction coefficients

    1.1 Ag    1  1s         306.317903     0.000064    0.000021
    2.1 Ag                  146.602801    -0.000785   -0.000004
                             70.163647     0.022471   -0.006119
                             33.580104    -0.169871    0.054471
                             16.071334    -0.061897    0.019344
                              7.691691     0.240039   -0.083839
                              3.681219     0.551649   -0.265322
                              1.761820     0.334386   -0.293065
                              0.843202     0.031323    0.113730
                              0.403554     0.004436    0.529282
                              0.193140    -0.001015    0.466254
                              0.092436     0.000507    0.125800
    3.1 Ag    1  1s          14.285259     1.000000
    4.1 Ag    1  1s           2.675598     1.000000
    5.1 Ag    1  1s           0.898845     1.000000
    6.1 Ag    1  1s           0.146364     1.000000
    7.1 Ag    1  3d0         15.768524     1.000000
    8.1 Ag    1  3d2+        15.768524     1.000000
    9.1 Ag    1  3d0          4.918853     1.000000
   10.1 Ag    1  3d2+         4.918853     1.000000
   11.1 Ag    1  3d0          0.812301     1.000000
   12.1 Ag    1  3d2+         0.812301     1.000000
   13.1 Ag    1  3d0          0.268088     1.000000
   14.1 Ag    1  3d2+         0.268088     1.000000
    1.2 B3u   1  2px         55.148271     0.013447    0.003542
    2.2 B3u                  29.056588     0.101670    0.025797
                             15.309371     0.185192    0.047260
                              8.066220     0.275836    0.075594
                              4.249940     0.317073    0.091980
                              2.239213     0.217066    0.062067
                              1.179799     0.065765   -0.071253
                              0.621614     0.006517   -0.250206
                              0.327517     0.001111   -0.349295
                              0.172562     0.000222   -0.312700
                              0.090920     0.000181   -0.155898
                              0.047904     0.000008   -0.030418
    3.2 B3u   1  2px          7.150171     1.000000
    4.2 B3u   1  2px          2.826836     1.000000
    5.2 B3u   1  2px          0.801169     1.000000
    6.2 B3u   1  2px          0.110470     1.000000
    7.2 B3u   1  4f1+        10.396276     1.000000
    8.2 B3u   1  4f3+        10.396276     1.000000
    9.2 B3u   1  4f1+         0.555565     1.000000
   10.2 B3u   1  4f3+         0.555565     1.000000
    1.3 B2u   1  2py         55.148271     0.013447    0.003542
    2.3 B2u                  29.056588     0.101670    0.025797
                             15.309371     0.185192    0.047260
                              8.066220     0.275836    0.075594
                              4.249940     0.317073    0.091980
                              2.239213     0.217066    0.062067
                              1.179799     0.065765   -0.071253
                              0.621614     0.006517   -0.250206
                              0.327517     0.001111   -0.349295
                              0.172562     0.000222   -0.312700
                              0.090920     0.000181   -0.155898
                              0.047904     0.000008   -0.030418
    3.3 B2u   1  2py          7.150171     1.000000
    4.3 B2u   1  2py          2.826836     1.000000
    5.3 B2u   1  2py          0.801169     1.000000
    6.3 B2u   1  2py          0.110470     1.000000
    7.3 B2u   1  4f1-        10.396276     1.000000
    8.3 B2u   1  4f3-        10.396276     1.000000
    9.3 B2u   1  4f1-         0.555565     1.000000
   10.3 B2u   1  4f3-         0.555565     1.000000
    1.4 B1g   1  3d2-        15.768524     1.000000
    2.4 B1g   1  3d2-         4.918853     1.000000
    3.4 B1g   1  3d2-         0.812301     1.000000
    4.4 B1g   1  3d2-         0.268088     1.000000
    1.5 B1u   1  2pz         55.148271     0.013447    0.003542
    2.5 B1u                  29.056588     0.101670    0.025797
                             15.309371     0.185192    0.047260
                              8.066220     0.275836    0.075594
                              4.249940     0.317073    0.091980
                              2.239213     0.217066    0.062067
                              1.179799     0.065765   -0.071253
                              0.621614     0.006517   -0.250206
                              0.327517     0.001111   -0.349295
                              0.172562     0.000222   -0.312700
                              0.090920     0.000181   -0.155898
                              0.047904     0.000008   -0.030418
    3.5 B1u   1  2pz          7.150171     1.000000
    4.5 B1u   1  2pz          2.826836     1.000000
    5.5 B1u   1  2pz          0.801169     1.000000
    6.5 B1u   1  2pz          0.110470     1.000000
    7.5 B1u   1  4f0         10.396276     1.000000
    8.5 B1u   1  4f2+        10.396276     1.000000
    9.5 B1u   1  4f0          0.555565     1.000000
   10.5 B1u   1  4f2+         0.555565     1.000000
    1.6 B2g   1  3d1+        15.768524     1.000000
    2.6 B2g   1  3d1+         4.918853     1.000000
    3.6 B2g   1  3d1+         0.812301     1.000000
    4.6 B2g   1  3d1+         0.268088     1.000000
    1.7 B3g   1  3d1-        15.768524     1.000000
    2.7 B3g   1  3d1-         4.918853     1.000000
    3.7 B3g   1  3d1-         0.812301     1.000000
    4.7 B3g   1  3d1-         0.268088     1.000000
    1.8 Au    1  4f2-        10.396276     1.000000
    2.8 Au    1  4f2-         0.555565     1.000000

 NUCLEAR CHARGE:                    6
 NUMBER OF PRIMITIVE AOS:         108
 NUMBER OF SYMMETRY AOS:           98
 NUMBER OF CONTRACTIONS:           58   (  14Ag  +  10B3u +  10B2u +   4B1g +  10B1u +   4B2g +   4B3g +   2Au  )
 NUMBER OF CORE ORBITALS:           0   (   0Ag  +   0B3u +   0B2u +   0B1g +   0B1u +   0B2g +   0B3g +   0Au  )
 NUMBER OF VALENCE ORBITALS:        4   (   1Ag  +   1B3u +   1B2u +   0B1g +   1B1u +   0B2g +   0B3g +   0Au  )


 NUCLEAR REPULSION ENERGY    0.00000000

 EXTRA SYMMETRY OF AOS IN SYMMETRY 1:   1 1 1 1 1 1 2 3 2 3   2 3 2 3
 EXTRA SYMMETRY OF AOS IN SYMMETRY 2:   1 1 1 1 1 1 2 3 2 3
 EXTRA SYMMETRY OF AOS IN SYMMETRY 3:   1 1 1 1 1 1 2 3 2 3
 EXTRA SYMMETRY OF AOS IN SYMMETRY 5:   1 1 1 1 1 1 2 3 2 3

 Eigenvalues of metric

         1 0.423E-02 0.934E-02 0.141E+00 0.306E+00 0.306E+00 0.493E+00 0.493E+00 0.554E+00
         2 0.124E-01 0.262E-01 0.142E+00 0.605E+00 0.975E+00 0.975E+00 0.102E+01 0.102E+01
         3 0.124E-01 0.262E-01 0.142E+00 0.605E+00 0.975E+00 0.975E+00 0.102E+01 0.102E+01
         4 0.306E+00 0.493E+00 0.140E+01 0.180E+01
         5 0.124E-01 0.262E-01 0.142E+00 0.605E+00 0.975E+00 0.975E+00 0.102E+01 0.102E+01
         6 0.306E+00 0.493E+00 0.140E+01 0.180E+01
         7 0.306E+00 0.493E+00 0.140E+01 0.180E+01
         8 0.975E+00 0.102E+01


 Contracted 2-electron integrals neglected if value below      1.0D-12
 AO integral compression algorithm  1   Integral accuracy      1.0D-12

     2.359 MB (compressed) written to integral file ( 71.8%)


 NUMBER OF SORTED TWO-ELECTRON INTEGRALS:     203904.     BUFFER LENGTH:  32768
 NUMBER OF SEGMENTS:   1  SEGMENT LENGTH:     203904      RECORD LENGTH: 524288

 Memory used in sort:       0.76 MW

 SORT1 READ      417520. AND WROTE      167428. INTEGRALS IN      1 RECORDS. CPU TIME:     0.01 SEC, REAL TIME:     0.02 SEC
 SORT2 READ      167428. AND WROTE      203904. INTEGRALS IN      9 RECORDS. CPU TIME:     0.03 SEC, REAL TIME:     0.05 SEC

 FILE SIZES:   FILE 1:    22.3 MBYTE,  FILE 4:     4.2 MBYTE,   TOTAL:     26.6 MBYTE

 OPERATOR DM      FOR CENTER  0  COORDINATES:    0.000000    0.000000    0.000000
 OPERATOR EKIN    FOR CENTER  0  COORDINATES:    0.000000    0.000000    0.000000
 OPERATOR POT     FOR CENTER  0  COORDINATES:    0.000000    0.000000    0.000000


 **********************************************************************************************************************************
 DATASETS  * FILE   NREC   LENGTH (MB)   RECORD NAMES
              1      20       21.09       500      610      700      900      950      970     1000      129      960     1100   
                                          VAR    BASINP    GEOM    SYMINP    ZMAT    AOBASIS   BASIS     P2S    ABASIS      S 
                                         1400     1410     1420     1200     1210     1080     1600     1650     1300     1700   
                                         EKIN       V       ECP      H0       H01     AOSYM     SMH    MOLCAS    ERIS     OPER   

 PROGRAMS   *        TOTAL       INT
 CPU TIMES  *         2.52      2.39
 REAL TIME  *        36.85 SEC
 DISK USED  *        26.83 MB      
 **********************************************************************************************************************************


 PROGRAM * RHF-SCF (OPEN SHELL)       Authors: W. Meyer, H.-J. Werner


 NUMBER OF ELECTRONS:       8+    6-    SPACE SYMMETRY=7    SPIN SYMMETRY: Triplet 
 CONVERGENCE THRESHOLDS:    1.00E-05 (Density)    1.00E-07 (Energy)
 MAX. NUMBER OF ITERATIONS:       60
 INTERPOLATION TYPE:            DIIS
 INTERPOLATION STEPS:              2 (START)      1 (STEP)
 LEVEL SHIFTS:                 -0.60 (CLOSED) -0.30 (OPEN) 

 Number of closed-shell orbitals:    6 (   2   2   1   0   1   0   0   0 )
 Number of open-shell orbitals:      2 (   0   0   1   0   1   0   0   0 )



   Atom=S  basis=ECP10MWB_GUESS    lmin=0  lmax=1

 Orbital guess generated from atomic densities. Full valence occupancy:    1   1   1   0   1   0   0   0


 Molecular orbital dump at record        2100.2

 ITERATION    DDIFF          GRAD             ENERGY        2-EL.EN.            DIPOLE MOMENTS         DIIS   ORB.
    1      0.000D+00      0.000D+00      -133.39398427    264.732254    0.00000    0.00000    0.00000    0    start
    2      0.000D+00      0.104D+01      -149.26884007    147.999725    0.00000    0.00000    0.00000    1    diag,B
    3      0.791D+00      0.370D+00      -151.81606703    175.959711    0.00000    0.00000    0.00000    2    diag,B
    4      0.208D+00      0.407D-01      -151.90374637    178.033107    0.00000    0.00000    0.00000    3    diag,B
    5      0.675D-01      0.107D-01      -151.91681963    178.489897    0.00000    0.00000    0.00000    4    diag,B
    6      0.356D-01      0.328D-02      -151.91876536    178.738506    0.00000    0.00000    0.00000    5    diag,B
    7      0.192D-01      0.769D-03      -151.91887657    178.776624    0.00000    0.00000    0.00000    6    fixocc
    8      0.530D-02      0.179D-03      -151.91888529    178.768759    0.00000    0.00000    0.00000    7    diag,B
    9      0.102D-02      0.573D-04      -151.91888628    178.768095    0.00000    0.00000    0.00000    8    diag,B
   10      0.297D-03      0.145D-04      -151.91888632    178.769564    0.00000    0.00000    0.00000    9    orth
   11      0.107D-03      0.112D-05      -151.91888632    178.769668    0.00000    0.00000    0.00000    9    diag,B
   12      0.705D-05      0.152D-06      -151.91888632    178.769659    0.00000    0.00000    0.00000    0    orth

 Final alpha occupancy:   2   2   2   0   2   0   0   0
 Final beta  occupancy:   2   2   1   0   1   0   0   0

 !RHF STATE 1.7 Energy               -151.918886322359
 Nuclear energy                         0.00000000
 One-electron energy                 -241.30371598
 Two-electron energy                   89.38482966
 Virial quotient                       -1.27008559
 !RHF STATE 1.7 Dipole moment           0.00000000     0.00000000     0.00000000
 Dipole moment /Debye                   0.00000000     0.00000000     0.00000000
 

 !RHF expec          <1.7|EKIN|1.7>   119.613109490109
 
 !RHF expec           <1.7|POT|1.7>   -26.328066907926

 ELECTRON ORBITALS
 =================


   Orb  Occ    Energy  Couls-En    Coefficients

                                   1 1s      1 1s      1 1s      1 1s      1 1s      1 1s      1 3d0     1 3d2+    1 3d0     1 3d2+ 
                                   1 3d0     1 3d2+    1 3d0     1 3d2+ 

   1.1   2    -9.0513  -34.2713  0.999968 -0.000009 -0.000006  0.000032  0.000001  0.000010 -0.000022  0.000038  0.000393 -0.000680
                                 0.000226 -0.000392 -0.000167  0.000290

   2.1   2    -0.8845   -9.5165  0.000077  1.000172  0.000003  0.000027 -0.000071 -0.000168  0.000039 -0.000067 -0.000100  0.000173
                                 0.000116 -0.000200 -0.002705  0.004684

                                   1 2px     1 2px     1 2px     1 2px     1 2px     1 2px     1 4f1+    1 4f3+    1 4f1+    1 4f3+ 


   1.2   2    -6.8163  -30.8997  1.001950 -0.000008  0.000251 -0.001563 -0.001679 -0.000401  0.000141 -0.000182  0.000103 -0.000133

   2.2   2    -0.3968   -7.6144 -0.006306 -0.956942 -0.000605  0.000455  0.010767  0.042702  0.000006 -0.000008  0.004867 -0.006284

                                   1 2py     1 2py     1 2py     1 2py     1 2py     1 2py     1 4f1-    1 4f3-    1 4f1-    1 4f3- 


   1.3   2    -6.8191  -30.8871  0.999017  0.000846 -0.000120  0.000782  0.000843  0.000190  0.000047 -0.000182  0.000036 -0.000138

   2.3   +    -0.4799   -7.8427  0.007958 -1.043347  0.000710 -0.000652 -0.010392 -0.043935  0.000004 -0.000016  0.003581 -0.013871

                                   1 2pz     1 2pz     1 2pz     1 2pz     1 2pz     1 2pz     1 4f0     1 4f2+    1 4f0     1 4f2+ 


   1.5   2    -6.8191  -30.8871  0.999017  0.000846 -0.000120  0.000782  0.000843  0.000190  0.000115 -0.000149  0.000087 -0.000112

   2.5   +    -0.4799   -7.8427  0.007958 -1.043347  0.000710 -0.000652 -0.010392 -0.043935  0.000010 -0.000013  0.008773 -0.011326

 HOMO      2.2    -0.396821 =     -10.7980eV
 LUMO      3.3     0.392904 =      10.6915eV
 LUMO-HOMO         0.789724 =      21.4895eV


 **********************************************************************************************************************************
 DATASETS  * FILE   NREC   LENGTH (MB)   RECORD NAMES
              1      20       21.09       500      610      700      900      950      970     1000      129      960     1100   
                                          VAR    BASINP    GEOM    SYMINP    ZMAT    AOBASIS   BASIS     P2S    ABASIS      S 
                                         1400     1410     1420     1200     1210     1080     1600     1650     1300     1700   
                                         EKIN       V       ECP      H0       H01     AOSYM     SMH    MOLCAS    ERIS     OPER   

              2       4        2.77       700     1000      520     2100   
                                         GEOM     BASIS   MCVARS     RHF  

 PROGRAMS   *        TOTAL        HF       INT
 CPU TIMES  *         2.57      0.05      2.39
 REAL TIME  *        37.13 SEC
 DISK USED  *        26.83 MB      
 **********************************************************************************************************************************
 SETTING SCF(I)         =      -151.91888632  AU                              
 SETTING _CC_NORM_MAX   =         2.00000000                                  


 PROGRAM * UHF-SCF       Authors: W. Meyer, H.-J. Werner


 NUMBER OF ELECTRONS:       8+    6-    SPACE SYMMETRY=7    SPIN SYMMETRY: Triplet 
 CONVERGENCE THRESHOLDS:    1.00E-05 (Density)    1.00E-07 (Energy)
 MAX. NUMBER OF ITERATIONS:        0
 INTERPOLATION TYPE:            DIIS
 INTERPOLATION STEPS:              2 (START)      1 (STEP)
 LEVEL SHIFTS:                  0.20 (ALPHA)   0.20 (BETA) 

 Number of closed-shell orbitals:    6 (   2   2   1   0   1   0   0   0 )
 Number of open-shell orbitals:      2 (   0   0   1   0   1   0   0   0 )


 Molecular orbitals read from record     2100.2  Type=RHF/CANONICAL (state 1.7)

 Molecular orbital dump at record        2200.2

 Initial alpha occupation   2   2   2   0   2   0   0   0
 Initial beta  occupation   2   2   1   0   1   0   0   0

 ITERATION    DDIFF          GRAD             ENERGY        2-EL.EN.            DIPOLE MOMENTS         DIIS
    1      0.000D+00      0.000D+00      -151.91888632    178.769659    0.00000    0.00000    0.00000    0
 
 Final alpha occupancy:   2   2   2   0   2   0   0   0
 Final beta  occupancy:   2   2   1   0   1   0   0   0

 !UHF STATE 1.7 Energy               -151.918886322359
 Nuclear energy                         0.00000000
 One-electron energy                 -241.30371598
 Two-electron energy                   89.38482966
 Virial quotient                       -1.27008559
 !UHF STATE 1.7 Dipole moment           0.00000000     0.00000000     0.00000000
 Dipole moment /Debye                   0.00000000     0.00000000     0.00000000
 

 !UHF expec          <1.7|EKIN|1.7>   119.613109490109
 
 !UHF expec           <1.7|POT|1.7>   -26.328066907926

 ELECTRON ORBITALS FOR POSITIVE SPIN
 ===================================


   Orb  Occ    Energy  Couls-En    Coefficients

                                   1 1s      1 1s      1 1s      1 1s      1 1s      1 1s      1 3d0     1 3d2+    1 3d0     1 3d2+ 
                                   1 3d0     1 3d2+    1 3d0     1 3d2+ 

   1.1   +    -9.0513  -34.2713  0.999968 -0.000009 -0.000006  0.000032  0.000001  0.000010 -0.000022  0.000038  0.000393 -0.000680
                                 0.000226 -0.000392 -0.000167  0.000290

   2.1   +    -0.8845   -9.5165  0.000077  1.000172  0.000003  0.000027 -0.000071 -0.000168  0.000039 -0.000067 -0.000100  0.000173
                                 0.000116 -0.000200 -0.002705  0.004684

                                   1 2px     1 2px     1 2px     1 2px     1 2px     1 2px     1 4f1+    1 4f3+    1 4f1+    1 4f3+ 


   1.2   +    -6.8163  -30.8997  1.001950 -0.000008  0.000251 -0.001563 -0.001679 -0.000401  0.000141 -0.000182  0.000103 -0.000133

   2.2   +    -0.3968   -7.6144 -0.006306 -0.956942 -0.000605  0.000455  0.010767  0.042702  0.000006 -0.000008  0.004867 -0.006284

                                   1 2py     1 2py     1 2py     1 2py     1 2py     1 2py     1 4f1-    1 4f3-    1 4f1-    1 4f3- 


   1.3   +    -6.8191  -30.8871  0.999017  0.000846 -0.000120  0.000782  0.000843  0.000190  0.000047 -0.000182  0.000036 -0.000138

   2.3   +    -0.4799   -7.8427  0.007958 -1.043347  0.000710 -0.000652 -0.010392 -0.043935  0.000004 -0.000016  0.003581 -0.013871

                                   1 2pz     1 2pz     1 2pz     1 2pz     1 2pz     1 2pz     1 4f0     1 4f2+    1 4f0     1 4f2+ 


   1.5   +    -6.8191  -30.8871  0.999017  0.000846 -0.000120  0.000782  0.000843  0.000190  0.000115 -0.000149  0.000087 -0.000112

   2.5   +    -0.4799   -7.8427  0.007958 -1.043347  0.000710 -0.000652 -0.010392 -0.043935  0.000010 -0.000013  0.008773 -0.011326

 ELECTRON ORBITALS FOR NEGATIVE SPIN
 ===================================


   Orb  Occ    Energy  Couls-En    Coefficients

                                   1 1s      1 1s      1 1s      1 1s      1 1s      1 1s      1 3d0     1 3d2+    1 3d0     1 3d2+ 
                                   1 3d0     1 3d2+    1 3d0     1 3d2+ 

   1.1   -    -9.0513  -34.2713  0.999968 -0.000009 -0.000006  0.000032  0.000001  0.000010 -0.000022  0.000038  0.000393 -0.000680
                                 0.000226 -0.000392 -0.000167  0.000290

   2.1   -    -0.8845   -9.5165  0.000077  1.000172  0.000003  0.000027 -0.000071 -0.000168  0.000039 -0.000067 -0.000100  0.000173
                                 0.000116 -0.000200 -0.002705  0.004684

                                   1 2px     1 2px     1 2px     1 2px     1 2px     1 2px     1 4f1+    1 4f3+    1 4f1+    1 4f3+ 


   1.2   -    -6.8163  -30.8997  1.001950 -0.000008  0.000251 -0.001563 -0.001679 -0.000401  0.000141 -0.000182  0.000103 -0.000133

   2.2   -    -0.3968   -7.6144 -0.006306 -0.956942 -0.000605  0.000455  0.010767  0.042702  0.000006 -0.000008  0.004867 -0.006284

                                   1 2py     1 2py     1 2py     1 2py     1 2py     1 2py     1 4f1-    1 4f3-    1 4f1-    1 4f3- 


   1.3   -    -6.8191  -30.8871  0.999017  0.000846 -0.000120  0.000782  0.000843  0.000190  0.000047 -0.000182  0.000036 -0.000138

                                   1 2pz     1 2pz     1 2pz     1 2pz     1 2pz     1 2pz     1 4f0     1 4f2+    1 4f0     1 4f2+ 


   1.5   -    -6.8191  -30.8871  0.999017  0.000846 -0.000120  0.000782  0.000843  0.000190  0.000115 -0.000149  0.000087 -0.000112

 HOMO      2.2    -0.396821 =     -10.7980eV
 LUMO     -2.3    -0.479924 =     -13.0594eV
 LUMO-HOMO        -0.083103 =      -2.2614eV

 EXPECTATION VALUE OF S**2:             2.00000000

 Occupation number threshold for canonical orbitals:  1.999000 (occupied),  0.001000 (virtual)

 Number of pseudo-canonical orbitals per symmetry:    2   2   1   0   1   0   0   0
 Number of active natural orbitals per symmetry:      0   0   1   0   1   0   0   0

 NATURAL CHARGE ORBITALS
 =======================


   Orb     Occ        Energy       Coefficients

                                   1 1s      1 1s      1 1s      1 1s      1 1s      1 1s      1 3d0     1 3d2+    1 3d0     1 3d2+ 
                                   1 3d0     1 3d2+    1 3d0     1 3d2+ 

   1.1  2.00000    -9.051342     0.999968 -0.000009 -0.000006  0.000032  0.000001  0.000010 -0.000022  0.000038  0.000393 -0.000680
                                 0.000226 -0.000392 -0.000167  0.000290

   2.1  2.00000    -0.884485     0.000077  1.000172  0.000003  0.000027 -0.000071 -0.000168  0.000039 -0.000067 -0.000100  0.000173
                                 0.000116 -0.000200 -0.002705  0.004684

                                   1 2px     1 2px     1 2px     1 2px     1 2px     1 2px     1 4f1+    1 4f3+    1 4f1+    1 4f3+ 


   1.2  2.00000    -6.816286     1.001950 -0.000008  0.000251 -0.001563 -0.001679 -0.000401  0.000141 -0.000182  0.000103 -0.000133

   2.2  2.00000    -0.396821     0.006306  0.956942  0.000605 -0.000455 -0.010767 -0.042702 -0.000006  0.000008 -0.004867  0.006284

                                   1 2py     1 2py     1 2py     1 2py     1 2py     1 2py     1 4f1-    1 4f3-    1 4f1-    1 4f3- 


   1.3  2.00000    -6.819085     0.999017  0.000846 -0.000120  0.000782  0.000843  0.000190  0.000047 -0.000182  0.000036 -0.000138

   2.3  1.00000    -0.224042    -0.007958  1.043347 -0.000710  0.000652  0.010392  0.043935 -0.000004  0.000016 -0.003581  0.013871

                                   1 2pz     1 2pz     1 2pz     1 2pz     1 2pz     1 2pz     1 4f0     1 4f2+    1 4f0     1 4f2+ 


   1.5  2.00000    -6.819085     0.999017  0.000846 -0.000120  0.000782  0.000843  0.000190  0.000115 -0.000149  0.000087 -0.000112

   2.5  1.00000    -0.224042    -0.007958  1.043347 -0.000710  0.000652  0.010392  0.043935 -0.000010  0.000013 -0.008773  0.011326

 Natural orbitals saved to record    2200.2 (Orbital set 3)

 Orbital spaces for UNO-CAS (Min. occupation: 0.020  Max. occupation: 1.980):

 Closed:        2   2   1   0   1   0   0   0
 Active:        0   0   1   0   1   0   0   0

 No convergence



 **********************************************************************************************************************************
 DATASETS  * FILE   NREC   LENGTH (MB)   RECORD NAMES
              1      20       21.09       500      610      700      900      950      970     1000      129      960     1100   
                                          VAR    BASINP    GEOM    SYMINP    ZMAT    AOBASIS   BASIS     P2S    ABASIS      S 
                                         1400     1410     1420     1200     1210     1080     1600     1650     1300     1700   
                                         EKIN       V       ECP      H0       H01     AOSYM     SMH    MOLCAS    ERIS     OPER   

              2       5        5.30       700     1000      520     2100     2200   
                                         GEOM     BASIS   MCVARS     RHF      UHF  

 PROGRAMS   *        TOTAL       UHF        HF       INT
 CPU TIMES  *         2.60      0.02      0.05      2.39
 REAL TIME  *        37.32 SEC
 DISK USED  *        26.83 MB      
 **********************************************************************************************************************************
 SETTING SCF(I)         =      -151.91888632  AU                              


 PROGRAM * MRCC (General Multireference Coupled Cluster)    Author: M. Kallay, 2000-2005

 ***  Initialisation ***

   0 Spin projections
 
 Molecular orbitals read from record     2200.2  Type=UHF/ALPHA (state 1.7)

 ?Warning: UHF not converged
 Molecular orbitals read from record     2200.2  Type=UHF/BETA (state 1.7)

 ?Warning: UHF not converged
 
 Frozen orbitals:              0 (  0  0  0  0  0  0  0  0)
 Active orbitals:             58 ( 14 10 10  4 10  4  4  2)
 Active electrons:            14
 Spin quantum number:          1.0

 Transformed integrals will be written to file s/mrcc_48112/fort.55

 Load integrals                2.6 sec
 Transform integrals           2.8 sec
 Storage for integrals:        1158255
 Remaining memory:           *********

 Core energy:               0.00000000
 
 MRCC Input:
     4     0     0     0     3     0     0     7     0     0     0     1     1     0     0     7     0     0   0.000     0   64000
  ex.lev,nsing,ntrip, rest,method,dens,conver,symm, diag, CS ,spatial, HF, ndoub,nacto,nactv, tol, maxex, sacc, freq,  dboc,   mem
  2  2  0  0  0  0  0  0  0  0  0  0  0  0  2  2  0  0  0  0  0  0  0  0  2  1  0  0  0  0  0  0  0  0  0  0  0  0  2  1  0  0  0  0  0  0  0  0  0  0  0  0  0  0  0  0  0  0
 MRCC Input end
 Variable memory released
 MRCC now being run, temporary output in /global/cscratch1/sd/aannabe/s/mrcc_48112/mrcc.out
 **********************************************************************
                          MRCC program system
 **********************************************************************

                              Written by
  Mihaly Kallay, Zoltan Rolik, Jozsef Csontos, Peter Nagy, Gyula Samu,
      David Mester, Jozsef Csoka, Bernat Szabo, Istvan Ladjanszki,
       Lorant Szegedy, Bence Ladoczki, Klara Petrov, Mate Farkas,
                    Pal D. Mezei, and Bence Hegely

        Department of Physical Chemistry and Materials Science
            Budapest University of Technology and Economics
                  Budapest P.O.Box 91, H-1521 Hungary

                              www.mrcc.hu

                       Release date: May 23, 2018

 ************************ 2019-01-04 10:56:49 *************************
 Executing goldstone...

 Generation of CC equations in terms of H and T...
 Generation of antisymmetrized Goldstone diagrams...
 Number of diagrams in T^1 equations:    15
 Number of diagrams in T^2 equations:    38
 Number of diagrams in T^3 equations:    49
 Number of diagrams in T^4 equations:     5
 Translation of diagrams to factorized equations...
 Optimizing intermediate calculation...
 Number of floating-point operations per iteration step:   3.2943E+11
 Probable CPU time per iteration step (hours):      3.29
 Required memory (Mbytes):    4056.8
 Number of intermediates:                                  80
 Number of intermediates to be stored:                     31
 Length of intermediate file (Mbytes):      53.5

 ************************ 2019-01-04 10:56:49 *************************
 Executing xmrcc...

 **********************************************************************
 CC(3)(4) calculation


 Allocation of4056.8 Mbytes of memory...
 Number of spinorbitals:                   116
 Number of alpha electrons:                        8
 Number of beta electrons:                         6
 Spin multiplicity:                     2
 z-component of spin:  1.0
 Spatial symmetry:                      7
 Convergence criterion:  1.0E-07
 Construction of occupation graphs...
 Number of                     0 -fold excitations:                      1
 Number of                     1 -fold excitations:                    130
 Number of                     2 -fold excitations:                  23623
 Number of                     3 -fold excitations:                2533924
 Total number of configurations:                2557678
 Calculation of coupling coefficients...
 Length of intermediate file (Mbytes):      38.7

 ======================================================================

 Spin case  1   Alpha:  0   Beta:  4
 Number of excitations:                 508478
 Spin case  2   Alpha:  1   Beta:  3
 Number of excitations:               22092752
 Spin case  3   Alpha:  2   Beta:  2
 Number of excitations:               85302680
 Spin case  4   Alpha:  3   Beta:  1
 Number of excitations:               42798528
 Spin case  5   Alpha:  4   Beta:  0
 Number of excitations:                2017192
 Number of                     4 -fold excitations:              152719630

 Memory requirements /Mbyte/:
               Minimal        Optimal
 Real*8:         67.1014        86.3932
 Integer:        14.5717
 Total:          81.6732       100.9650


 ************************ 2019-01-04 10:56:51 *************************
 Executing mrcc...

 **********************************************************************
 CCSDT(Q) calculation


 Allocation of   86.4 Mbytes of memory...
 Number of spinorbitals: 116
 Number of alpha electrons:  8
 Number of beta  electrons:  6
 Spin multiplicity: 2
 z-component of spin:  1.0
 Spatial symmetry: 7
 Convergence criterion:  1.0E-07
 Construction of occupation graphs...
 Number of 0-fold excitations: 1
 Number of 1-fold excitations: 130
 Number of 2-fold excitations: 23623
 Number of 3-fold excitations: 2533924
 Total number of determinants: 2557678
 Calculation of coupling coefficients...
 Initial cluster amplitudes are generated.
 Length of intermediate file (Mbytes):      38.7
 Reading integral list from unit 55...
 Sorting integrals...
 Sorting integrals...
 Sorting integrals...
 Sorting integrals...
 Energy of reference determinant [au]:    -151.918886322359
 Calculation of MP denominators...

 Starting CC iteration...
 ======================================================================
 Norm of residual vector:     3.64688336
 CPU time [min]:     0.501                   Wall time [min]:     0.518

 Iteration  1  CC energy:  -152.33324900  Energy decrease:   0.41436267
 ======================================================================
 Norm of residual vector:     0.38163851
 CPU time [min]:     0.970                   Wall time [min]:     1.042

 Iteration  2  CC energy:  -152.35005658  Energy decrease:   0.01680759
 ======================================================================
 Norm of residual vector:     0.06176844
 CPU time [min]:     1.471                   Wall time [min]:     1.549

 Iteration  3  CC energy:  -152.36189465  Energy decrease:   0.01183807
 ======================================================================
 Norm of residual vector:     0.02151863
 CPU time [min]:     1.994                   Wall time [min]:     2.077

 Iteration  4  CC energy:  -152.36203234  Energy decrease:   0.00013769
 ======================================================================
 Norm of residual vector:     0.00494163
 CPU time [min]:     2.481                   Wall time [min]:     2.572

 Iteration  5  CC energy:  -152.36192672  Energy decrease:   0.00010562
 ======================================================================
 Norm of residual vector:     0.00152738
 CPU time [min]:     3.007                   Wall time [min]:     3.109

 Iteration  6  CC energy:  -152.36200913  Energy decrease:   0.00008241
 ======================================================================
 Norm of residual vector:     0.00043886
 CPU time [min]:     3.540                   Wall time [min]:     3.647

 Iteration  7  CC energy:  -152.36199320  Energy decrease:   0.00001593
 ======================================================================
 Norm of residual vector:     0.00016360
 CPU time [min]:     4.087                   Wall time [min]:     4.196

 Iteration  8  CC energy:  -152.36199303  Energy decrease:   0.00000017
 ======================================================================
 Norm of residual vector:     0.00006007
 CPU time [min]:     4.632                   Wall time [min]:     4.745

 Iteration  9  CC energy:  -152.36199525  Energy decrease:   0.00000223
 ======================================================================
 Norm of residual vector:     0.00001866
 CPU time [min]:     5.193                   Wall time [min]:     5.309

 Iteration 10  CC energy:  -152.36199473  Energy decrease:   0.00000052
 ======================================================================
 Norm of residual vector:     0.00000573
 CPU time [min]:     5.761                   Wall time [min]:     5.881

 Iteration 11  CC energy:  -152.36199468  Energy decrease:   0.00000005
 ======================================================================
 Norm of residual vector:     0.00000160
 CPU time [min]:     6.332                   Wall time [min]:     6.458

 Iteration 12  CC energy:  -152.36199471  Energy decrease:   0.00000003
 ======================================================================
 Norm of residual vector:     0.00000045
 CPU time [min]:     6.903                   Wall time [min]:     7.036

 Iteration 13  CC energy:  -152.36199471  Energy decrease:   0.00000001
 ======================================================================
 Norm of residual vector:     0.00000012
 CPU time [min]:     7.483                   Wall time [min]:     7.620

 Iteration 14  CC energy:  -152.36199471  Energy decrease:   1.1095E-09
 ======================================================================
 Norm of residual vector:     0.00000004
 CPU time [min]:     7.995                   Wall time [min]:     8.139

 Iteration 15  CC energy:  -152.36199471  Energy decrease:   1.2065E-10
 ======================================================================

 Iteration has converged in 15 steps.

 Final results:
 Total CCSDT energy [au]:           -152.361994707296
 Total MP2 energy [au]:             -152.333248996819

 Perturbative corrections are calculated...
 ======================================================================
 Spin case  1   Alpha:  0   Beta:  4
 Number of excitations:        508478
 CPU time [min]:     8.810                   Wall time [min]:     8.958
 ======================================================================
 Spin case  2   Alpha:  1   Beta:  3
 Number of excitations:        22092752
 CPU time [min]:    20.272                   Wall time [min]:    20.433
 ======================================================================
 Spin case  3   Alpha:  2   Beta:  2
 Number of excitations:        85302680
 CPU time [min]:    45.638                   Wall time [min]:    45.799
 ======================================================================
 Spin case  4   Alpha:  3   Beta:  1
 Number of excitations:        42798528
 CPU time [min]:    58.816                   Wall time [min]:    58.978
 ======================================================================
 Spin case  5   Alpha:  4   Beta:  0
 Number of excitations:        2017192
 CPU time [min]:    59.819                   Wall time [min]:    59.990
 ======================================================================
 Number of 4-fold excitations: 152719630
 CPU time [min]:    59.819                   Wall time [min]:    59.990

 Total CCSDT[Q] energy [au]:        -152.362033584441
 Total CCSDT(Q) energy [au]:        -152.362199039909

 ************************ 2019-01-04 11:57:12 *************************
                      Normal termination of mrcc.
 **********************************************************************
 !CCSDT STATE 1.7 Energy             -152.361994707296
 !MP2 STATE 1.7 Energy               -152.333248996819
 !CCSDT[Q] STATE 1.7 Energy          -152.362033584441
 !CCSDT(Q) STATE 1.7 Energy          -152.362199039909
 
 CPU-time for MRCC:           3589.1 sec
 Elapsed-time for MRCC:       3624.6 sec

 Variable memory set to 8000000000 words,  buffer space   230000 words



 **********************************************************************************************************************************
 DATASETS  * FILE   NREC   LENGTH (MB)   RECORD NAMES
              1      20       21.09       500      610      700      900      950      970     1000      129      960     1100   
                                          VAR    BASINP    GEOM    SYMINP    ZMAT    AOBASIS   BASIS     P2S    ABASIS      S 
                                         1400     1410     1420     1200     1210     1080     1600     1650     1300     1700   
                                         EKIN       V       ECP      H0       H01     AOSYM     SMH    MOLCAS    ERIS     OPER   

              2       5        5.30       700     1000      520     2100     2200   
                                         GEOM     BASIS   MCVARS     RHF      UHF  

 PROGRAMS   *        TOTAL      MRCC       UHF        HF       INT
 CPU TIMES  *      3594.75   3592.15      0.02      0.05      2.39
 REAL TIME  *      3678.43 SEC
 DISK USED  *        26.83 MB      
 **********************************************************************************************************************************
 SETTING POSTHF(I)      =      -152.36219904  AU                              
                                                                                                                                                                                                                                                                

         SCF            POSTHF        EKIN          POT
    -151.9188863   -152.3621990   119.6131095   -26.32806691
                                                  

 CCSDT(Q)/USERDEF energy=   -152.362199039909

        CCSDT(Q)        HF-SCF  
   -152.36219904   -151.91888632
 **********************************************************************************************************************************
 Molpro calculation terminated
 Variable memory released
