<?xml version="1.0"?>
<molpro xmlns="http://www.molpro.net/schema/molpro-output"
  xmlns:xsd="http://www.w3.org/1999/XMLSchema"
  xmlns:cml="http://www.xml-cml.org/schema"
  xmlns:stm="http://www.xml-cml.org/schema"
  xmlns:xhtml="http://www.w3.org/1999/xhtml">
 <!--

 Primary working directories    : /global/cscratch1/sd/aannabe
 Secondary working directories  : /global/cscratch1/sd/aannabe
 Wavefunction directory         : /global/homes/a/aannabe/wfu/
 Main file repository           : /global/cscratch1/sd/aannabe/

 SHA1      : 2873118e99aab1bc19f5b6fc1784693c06d15c95
 NAME      : 2015.1.8
 ARCHNAME  : linux/x86_64
 FC        : /opt/cray/pe/craype/2.5.5/bin/ftn
 BLASLIB   : -Wl,-_start-group /opt/intel/compilers_and_libraries_2016.3.210/linux/mkl/lib/intel64/libmkl_intel_ilp64.a /opt/intel/compilers_and_libraries_2016.3.210/linux/mkl/lib/intel64/libmkl_intel_thread.a /opt/intel/compilers_and_libraries_2016.3.210/linux/mkl/lib/intel64/libmkl_core.a -Wl,-_end-group
 id        : lbl

 Nodes     nprocs
 nid00056     3
 Number of processes for MPI-2 version of Molpro:   nprocs(total)=    4   nprocs(compute)=    3   nprocs(helper)=    1

 Using customized tuning parameters: mindgm=8; mindgv=16; mindgc=4; mindgr=1; noblas=0; minvec=7
 default implementation of scratch files=sf  

 --><job>
  <!--
 ***,O
 memory,256,m
                                                                                 !gthresh,twoint=1.e-12
 
 print,basis,orbitals
 
 angstrom
 geometry={
 1                                                                               ! Number of atoms
 O 0.0 0.0 0.0
 }
 
 basis={
 Including file /global/homes/a/aannabe/docs/totals/pps/O.pp
 Including file /global/homes/a/aannabe/docs/totals/basis/aug-cc-pVnZ/O_dz.basis
 }
 
 {hf
 wf,6,7,2
 occ,1,1,1,0,1,0,0,0
                                                                                 !open,1.3
 closed,1,1,0,0,0,0,0,0
                                                                                 !sym,
 }
 scf(i)=energy
 
                                                                                 !_CC_NORM_MAX=2.0
 {rccsd(t)
 maxit,100
 core
 }
 posthf(i)=energy
 
 table,scf,posthf
 save,dz.csv
 
 
 

 Variables initialized (889), CPU time= 0.01 sec
 Commands  initialized (702), CPU time= 0.01 sec, 572 directives.
 Default parameters read. Elapsed time= 0.38 sec

 Checking input...
 Passed
1


                                         ***  PROGRAM SYSTEM MOLPRO  ***
                                       Copyright, TTI GmbH Stuttgart, 2015
                                    Version 2015.1 linked Sep  7 2016 23:09:38


 **********************************************************************************************************************************
 LABEL *   O                                                                             
  64 bit mpp version                                                                     DATE: 25-May-18          TIME: 13:03:18  
 **********************************************************************************************************************************

 SHA1:             2873118e99aab1bc19f5b6fc1784693c06d15c95
 **********************************************************************************************************************************
  -->
  <!--

 ZUNIT=ANG
 

Geometry recognized as XYZ


 Variable memory set to  256000000 words,  buffer space   230000 words

 SETTING BASIS          =    USERDEF
  --><jobstep command="HF-SCF" commandset="SCFPRO">
   <!--


 Recomputing integrals since basis changed


 Using spherical harmonics



 PROGRAM * SEWARD (Integral evaluation for generally contracted gaussian basis sets)     Author: Roland Lindh, 1990

 Geometry written to block  1 of record 700

 Orientation using atomic masses  
 Molecule type: Atom
 Symmetry elements: X,Y,Z
 Rotational constants:       0.0000000      0.0000000      0.0000000 GHz  (calculated with average atomic masses)

 Point group  D2h 


   --><cml:molecule>
    <cml:symmetry pointGroup="D2h"/>
    <cml:atomArray>
     <cml:atom id="a1" elementType="O" x3="0.0" y3="0.0" z3="0.0"/>
    </cml:atomArray>
    <cml:bondArray>
    </cml:bondArray>
   </cml:molecule><!--

 ATOMIC COORDINATES

 NR  ATOM    CHARGE       X              Y              Z

   1  O       6.00    0.000000000    0.000000000    0.000000000


          O   CORE POTENTIAL

          p POTENTIAL

 POWERS             1              3              2
 EXPONENTIALS   12.30997       14.76962       13.71419    
 COEFFICIENTS   6.000000       73.85984      -47.87600    

          s - p POTENTIAL

 POWERS             2
 EXPONENTIALS   13.65512    
 COEFFICIENTS   85.86406    


 BASIS DATA

   Nr Sym  Nuc  Type         Exponents   Contraction coefficients

    1.1 Ag    1  1s          54.775216    -0.001244
                             25.616801     0.010733
                             11.980245     0.001889
                              6.992317    -0.174254
                              2.620277     0.001762
                              1.225429     0.316185
                              0.577797     0.451202
                              0.268022     0.312153
                              0.125346     0.051117
    2.1 Ag    1  1s           0.258551     1.000000
    3.1 Ag    1  1s           0.103420     1.000000
    4.1 Ag    1  3d0          1.232753     1.000000
    5.1 Ag    1  3d2+         1.232753     1.000000
    6.1 Ag    1  3d0          0.493101     1.000000
    7.1 Ag    1  3d2+         0.493101     1.000000
    1.2 B3u   1  2px         22.217266     0.010487
                             10.747550     0.036644
                              5.315785     0.080367
                              2.660761     0.162701
                              1.331816     0.237779
                              0.678626     0.281142
                              0.333673     0.264319
                              0.167017     0.146601
                              0.083598     0.045815
    2.2 B3u   1  2px          0.267865     1.000000
    3.2 B3u   1  2px          0.107146     1.000000
    1.3 B2u   1  2py         22.217266     0.010487
                             10.747550     0.036644
                              5.315785     0.080367
                              2.660761     0.162701
                              1.331816     0.237779
                              0.678626     0.281142
                              0.333673     0.264319
                              0.167017     0.146601
                              0.083598     0.045815
    2.3 B2u   1  2py          0.267865     1.000000
    3.3 B2u   1  2py          0.107146     1.000000
    1.4 B1g   1  3d2-         1.232753     1.000000
    2.4 B1g   1  3d2-         0.493101     1.000000
    1.5 B1u   1  2pz         22.217266     0.010487
                             10.747550     0.036644
                              5.315785     0.080367
                              2.660761     0.162701
                              1.331816     0.237779
                              0.678626     0.281142
                              0.333673     0.264319
                              0.167017     0.146601
                              0.083598     0.045815
    2.5 B1u   1  2pz          0.267865     1.000000
    3.5 B1u   1  2pz          0.107146     1.000000
    1.6 B2g   1  3d1+         1.232753     1.000000
    2.6 B2g   1  3d1+         0.493101     1.000000
    1.7 B3g   1  3d1-         1.232753     1.000000
    2.7 B3g   1  3d1-         0.493101     1.000000

 NUCLEAR CHARGE:                    6
 NUMBER OF PRIMITIVE AOS:          56
 NUMBER OF SYMMETRY AOS:           54
 NUMBER OF CONTRACTIONS:           22   (   7Ag  +   3B3u +   3B2u +   2B1g +   3B1u +   2B2g +   2B3g +   0Au  )
 NUMBER OF CORE ORBITALS:           0   (   0Ag  +   0B3u +   0B2u +   0B1g +   0B1u +   0B2g +   0B3g +   0Au  )
 NUMBER OF VALENCE ORBITALS:        4   (   1Ag  +   1B3u +   1B2u +   0B1g +   1B1u +   0B2g +   0B3g +   0Au  )


 NUCLEAR REPULSION ENERGY    0.00000000

 EXTRA SYMMETRY OF AOS IN SYMMETRY 1:   1 1 1 2 3 2 3

 Eigenvalues of metric

         1 0.290E-01 0.299E+00 0.299E+00 0.311E+00 0.170E+01 0.170E+01 0.266E+01
         2 0.114E+00 0.462E+00 0.242E+01
         3 0.114E+00 0.462E+00 0.242E+01
         4 0.299E+00 0.170E+01
         5 0.114E+00 0.462E+00 0.242E+01
         6 0.299E+00 0.170E+01
         7 0.299E+00 0.170E+01


 Contracted 2-electron integrals neglected if value below      1.0D-11
 AO integral compression algorithm  1   Integral accuracy      1.0D-11

     0.786 MB (compressed) written to integral file (100.0%)

     Node minimum: 0.262 MB, node maximum: 0.262 MB


 NUMBER OF SORTED TWO-ELECTRON INTEGRALS:       1812.     BUFFER LENGTH:  32768
 NUMBER OF SEGMENTS:   1  SEGMENT LENGTH:       1812      RECORD LENGTH: 524288

 Memory used in sort:       0.56 MW

 SORT1 READ       12220. AND WROTE        1634. INTEGRALS IN      1 RECORDS. CPU TIME:     0.00 SEC, REAL TIME:     0.06 SEC
 SORT2 READ        4734. AND WROTE        5272. INTEGRALS IN      3 RECORDS. CPU TIME:     0.01 SEC, REAL TIME:     0.00 SEC

 Node minimum:        1725.  Node maximum:        1812. integrals

 OPERATOR DM      FOR CENTER  0  COORDINATES:    0.000000    0.000000    0.000000


 **********************************************************************************************************************************
 DATASETS  * FILE   NREC   LENGTH (MB)   RECORD NAMES
              1      19       19.06       500      610      700      900      950      970     1000      129      960     1100   
                                          VAR    BASINP    GEOM    SYMINP    ZMAT    AOBASIS   BASIS     P2S    ABASIS      S 
                                         1400     1410     1420     1200     1210     1080     1600     1650     1700   
                                           T        V       ECP      H0       H01     AOSYM     SMH    MOLCAS    OPER   

 PROGRAMS   *        TOTAL       INT
 CPU TIMES  *         0.20      0.10
 REAL TIME  *         1.35 SEC
 DISK USED  *        12.65 MB      
 GA USED    *         0.00 MB       (max)       0.00 MB       (current)
 **********************************************************************************************************************************


 PROGRAM * RHF-SCF (OPEN SHELL)       Authors: W. Meyer, H.-J. Werner


 NUMBER OF ELECTRONS:       4+    2-    SPACE SYMMETRY=7    SPIN SYMMETRY: Triplet 
 CONVERGENCE THRESHOLDS:    1.00E-05 (Density)    1.00E-07 (Energy)
 MAX. NUMBER OF ITERATIONS:       60
 INTERPOLATION TYPE:            DIIS
 INTERPOLATION STEPS:              2 (START)      1 (STEP)
 LEVEL SHIFTS:                 -0.60 (CLOSED) -0.30 (OPEN) 

 Number of closed-shell orbitals:    2 (   1   1   0   0   0   0   0 )
 Number of open-shell orbitals:      2 (   0   0   1   0   1   0   0 )



   Atom=O  basis=ECP2MWB_GUESS     lmin=0  lmax=1

 Orbital guess generated from atomic densities. Full valence occupancy:    1   1   1   0   1   0   0   0


 Molecular orbital dump at record        2100.2

 ITERATION    DDIFF          GRAD             ENERGY        2-EL.EN.            DIPOLE MOMENTS         DIIS   ORB.
    1      0.000D+00      0.000D+00       -15.66968013     20.487989    0.00000    0.00000    0.00000    0    start
    2      0.000D+00      0.299D-01       -15.68750318     21.183309    0.00000    0.00000    0.00000    1    diag,B
    3      0.384D-01      0.585D-02       -15.68845514     21.238893    0.00000    0.00000    0.00000    2    diag,B
    4      0.741D-02      0.283D-02       -15.68873478     21.262239    0.00000    0.00000    0.00000    3    diag,B
    5      0.604D-02      0.507D-03       -15.68874329     21.262299    0.00000    0.00000    0.00000    4    diag,B
    6      0.117D-02      0.110D-03       -15.68874379     21.260646    0.00000    0.00000    0.00000    5    diag,B
    7      0.283D-03      0.183D-04       -15.68874380     21.260886    0.00000    0.00000    0.00000    6    fixocc
    8      0.365D-04      0.576D-05       -15.68874380     21.260803    0.00000    0.00000    0.00000    7    diag,B
    9      0.107D-04      0.423D-06       -15.68874380     21.260803    0.00000    0.00000    0.00000    8    diag,B
   10      0.591D-06      0.134D-06       -15.68874380     21.260805    0.00000    0.00000    0.00000    0    orth

 Final alpha occupancy:   1   1   1   0   1   0   0
 Final beta  occupancy:   1   1   0   0   0   0   0

 !RHF STATE 1.7 Energy                -15.688743799235
   --><property name="Energy" method="RHF" principal="true" stateSymmetry="7" stateNumber="1"
     value="-15.6887437992351"/><!--
 Nuclear energy                         0.00000000
 One-electron energy                  -26.31914620
 Two-electron energy                   10.63040240
 Virial quotient                       -1.32257798
 !RHF STATE 1.7 Dipole moment           0.00000000     0.00000000     0.00000000
 Dipole moment /Debye                   0.00000000     0.00000000     0.00000000
   --><property name="Dipole moment" method="RHF" principal="true" stateSymmetry="7"
     stateNumber="1" value="0.0 0.0 0.0"/><!--

 ELECTRON ORBITALS
 =================


   Orb  Occ    Energy  Couls-En    Coefficients

                                   1 1s      1 1s      1 1s      1 3d0     1 3d2+    1 3d0     1 3d2+ 

   1.1   2    -1.2599   -6.0752  0.999941 -0.000061  0.000157  0.000027 -0.000046 -0.001829  0.003167

                                   1 2px     1 2px     1 2px  

   1.2   2    -0.5658   -4.6931  0.999683  0.000439 -0.000074

                                   1 2py     1 2py     1 2py  

   1.3   +    -0.7035   -4.9204  1.050012 -0.031781 -0.047659

                                   1 2pz     1 2pz     1 2pz  

   1.5   +    -0.7035   -4.9204  1.050012 -0.031781 -0.047659

 HOMO      1.2    -0.565846 =     -15.3975eV
 LUMO      2.1     0.220823 =       6.0089eV
 LUMO-HOMO         0.786669 =      21.4064eV


 **********************************************************************************************************************************
 DATASETS  * FILE   NREC   LENGTH (MB)   RECORD NAMES
              1      19       19.07       500      610      700      900      950      970     1000      129      960     1100   
                                          VAR    BASINP    GEOM    SYMINP    ZMAT    AOBASIS   BASIS     P2S    ABASIS      S 
                                         1400     1410     1420     1200     1210     1080     1600     1650     1700   
                                           T        V       ECP      H0       H01     AOSYM     SMH    MOLCAS    OPER   

              2       4        2.75       700     1000      520     2100   
                                         GEOM     BASIS   MCVARS     RHF  

 PROGRAMS   *        TOTAL        HF       INT
 CPU TIMES  *         0.23      0.03      0.10
 REAL TIME  *         1.77 SEC
 DISK USED  *        78.26 MB      
 SF USED    *         0.00 MB      
 GA USED    *         0.00 MB       (max)       0.00 MB       (current)
 **********************************************************************************************************************************
   -->
   <time start="13:03:18" end="13:03:19" cpu="0.23" system="0.26" real="1.77"/>
   <storage units="megabyte" memory="2049.84" sf="0.0" df="65.61" eaf="12.65" ga="0.0"/>
  </jobstep><!--
 SETTING SCF(I)         =       -15.68874380  AU                              
  --><jobstep command="RCCSD(T)" commandset="CCSD">
   <!--


 PROGRAM * CCSD (Restricted open-shell coupled cluster)     Authors: C. Hampel, H.-J. Werner, 1991, M. Deegan, P.J. Knowles, 1992


 Convergence thresholds:  THRVAR = 1.00D-08  THRDEN = 1.00D-06

 CCSD(T)     terms to be evaluated (factor= 1.000)


 Number of closed-shell orbitals:   2 (   1   1   0   0   0   0   0 )
 Number of active  orbitals:        2 (   0   0   1   0   1   0   0 )
 Number of external orbitals:      18 (   6   2   2   2   2   2   2 )

 Memory could be reduced to 0.30 Mwords without degradation in triples

 Number of N-1 electron functions:               6
 Number of N-2 electron functions:              15
 Number of singly external CSFs:                22
 Number of doubly external CSFs:               609
 Total number of CSFs:                         631

 Molecular orbitals read from record     2100.2  Type=RHF/CANONICAL (state 1.7)

 Integral transformation finished. Total CPU:   0.00 sec, npass=  1  Memory used:   0.07 MW

 Starting RMP2 calculation

 Wavefunction is spin-projected

 ITER.      SQ.NORM     CORR.ENERGY   TOTAL ENERGY   ENERGY CHANGE        DEN1      VAR(S)    VAR(P)  DIIS     TIME
   1      1.02582455    -0.10929189   -15.79803569    -0.10929189    -0.00021027  0.10D-05  0.59D-04  1  1     0.01
   2      1.02596793    -0.10951555   -15.79825934    -0.00022366    -0.00000017  0.33D-08  0.53D-07  2  2     0.01
   3      1.02597028    -0.10951762   -15.79826142    -0.00000207    -0.00000000  0.34D-11  0.78D-10  3  3     0.01
   4      1.02597029    -0.10951762   -15.79826142     0.00000000    -0.00000000  0.63D-13  0.75D-12  4  4     0.01

 Norm of t1 vector:      0.03364901      S-energy:    -0.00351916      T1 diagnostic:  0.00055231
 Norm of t2 vector:      0.15760088      P-energy:    -0.10599846
                                         Alpha-Beta:  -0.07993743
                                         Alpha-Alpha: -0.02294753
                                         Beta-Beta:   -0.00311351

 Spin contamination <S**2-Sz**2-Sz>     0.00000000
  Reference energy                    -15.688743799235
   --><property name="energy" method="Reference" stateSymmetry="1" stateNumber="1"
     value="-15.6887437992351"/><!--
  RHF-RMP2 correlation energy          -0.109517616822
   --><property name="energy" method="RHF-RMP2 correlation" stateSymmetry="1" stateNumber="1"
     value="-0.109517616822108"/><!--
 !RHF-RMP2 energy                     -15.798261416057
   --><property name="energy" method="RHF-RMP2" principal="true" stateSymmetry="7"
     stateNumber="1" value="-15.7982614160573"/><!--
 (NB above energy spin projected)

 Starting RCCSD calculation

 ITER.      SQ.NORM     CORR.ENERGY   TOTAL ENERGY   ENERGY CHANGE        DEN1      VAR(S)    VAR(P)  DIIS     TIME
   1      1.03324042    -0.12198128   -15.81072508    -0.12198128    -0.00353050  0.41D-03  0.76D-03  1  1     0.02
   2      1.03696138    -0.12596300   -15.81470680    -0.00398172    -0.00016953  0.59D-04  0.33D-04  2  2     0.02
   3      1.03824279    -0.12658576   -15.81532956    -0.00062276    -0.00001157  0.59D-05  0.21D-05  3  3     0.02
   4      1.03863880    -0.12670512   -15.81544892    -0.00011936    -0.00000052  0.20D-06  0.11D-06  4  4     0.02
   5      1.03869175    -0.12671161   -15.81545541    -0.00000649    -0.00000002  0.65D-08  0.32D-08  5  5     0.03
   6      1.03869751    -0.12671408   -15.81545788    -0.00000246    -0.00000000  0.44D-09  0.21D-09  6  6     0.03
   7      1.03869662    -0.12671359   -15.81545738     0.00000049    -0.00000000  0.13D-10  0.11D-10  6  1     0.03

 Norm of t1 vector:      0.05934649      S-energy:    -0.00451300      T1 diagnostic:  0.00861176
                                                                       D1 diagnostic:  0.01671790
 Norm of t2 vector:      0.18754896      P-energy:    -0.12220058
                                         Alpha-Beta:  -0.09535350
                                         Alpha-Alpha: -0.02362405
                                         Beta-Beta:   -0.00322303

 Spin contamination <S**2-Sz**2-Sz>     0.00000000

 Memory could be reduced to 0.30 Mwords without degradation in triples
 

 RESULTS
 =======

  Reference energy                    -15.688743799235
   --><property name="energy" method="Reference" stateSymmetry="1" stateNumber="1"
     value="-15.6887437992351"/><!--
  RCCSD singles energy                 -0.004513001942
   --><property name="energy" method="RCCSD singles" stateSymmetry="1" stateNumber="1"
     value="-0.451300194202849E-02"/><!--
  RCCSD pair energy                    -0.122200583583
   --><property name="energy" method="RCCSD pair" stateSymmetry="1" stateNumber="1"
     value="-0.122200583582809"/><!--
  RCCSD correlation energy             -0.126713585525
   --><property name="energy" method="RCCSD correlation" stateSymmetry="1" stateNumber="1"
     value="-0.126713585524838"/><!--
  Triples (T) contribution             -0.001852944264
   --><property name="contribution" method="Triples (T)" stateSymmetry="1" stateNumber="1"
     value="-0.185294426357529E-02"/><!--
  Total correlation energy             -0.128566529788
   --><property name="energy" method="Total correlation" stateSymmetry="1" stateNumber="1"
     value="-0.128566529788413"/><!--
 
  RHF-RCCSD energy                    -15.815457384760
   --><property name="energy" method="RHF-RCCSD" stateSymmetry="1" stateNumber="1"
     value="-15.81545738476"/><!--
  RHF-RCCSD[T] energy                 -15.817417093701
   --><property name="energy" method="RHF-RCCSD[T]" stateSymmetry="1" stateNumber="1"
     value="-15.8174170937008"/><!--
  RHF-RCCSD-T energy                  -15.817244839947
   --><property name="energy" method="RHF-RCCSD-T" stateSymmetry="1" stateNumber="1"
     value="-15.8172448399474"/><!--
 !RHF-RCCSD(T) energy                 -15.817310329024
   --><property name="energy" method="RHF-RCCSD(T)" principal="true" stateSymmetry="1"
     stateNumber="1" value="-15.8173103290236"/><!--

 Program statistics:

 Available memory in ccsd:               255999732
 Min. memory needed in ccsd:                  4482
 Max. memory used in ccsd:                    4982
 Max. memory used in cckext:                 37185 ( 7 integral passes)
 Max. memory used in cckint:                 68387 ( 1 integral passes)



 **********************************************************************************************************************************
 DATASETS  * FILE   NREC   LENGTH (MB)   RECORD NAMES
              1      19       19.07       500      610      700      900      950      970     1000      129      960     1100   
                                          VAR    BASINP    GEOM    SYMINP    ZMAT    AOBASIS   BASIS     P2S    ABASIS      S 
                                         1400     1410     1420     1200     1210     1080     1600     1650     1700   
                                           T        V       ECP      H0       H01     AOSYM     SMH    MOLCAS    OPER   

              2       4        2.75       700     1000      520     2100   
                                         GEOM     BASIS   MCVARS     RHF  

 PROGRAMS   *        TOTAL  RCCSD(T)        HF       INT
 CPU TIMES  *         0.28      0.05      0.03      0.10
 REAL TIME  *         2.78 SEC
 DISK USED  *        78.44 MB      
 SF USED    *         0.22 MB      
 GA USED    *         0.00 MB       (max)       0.00 MB       (current)
 **********************************************************************************************************************************
   -->
   <time start="13:03:19" end="13:03:20" cpu="0.05" system="0.02" real="1.01"/>
   <storage units="megabyte" memory="2049.84" sf="0.22" df="65.8" eaf="12.65" ga="0.0"/>
  </jobstep><!--
 SETTING POSTHF(I)      =       -15.81731033  AU                              
                                                                                                                                                                                                                                                                

        SCF            POSTHF
    -15.68874380   -15.81731033
                                                  
-->
<table xmlns="http://www.w3.org/1999/xhtml" id="table1">
<thead><tr><th>SCF</th><th>POSTHF</th></tr></thead><tbody>
<tr><td>   -15.68874380</td><td>   -15.81731033</td></tr>
</tbody></table>
<!--

 RCCSD(T)/USERDEF energy=    -15.817310329024

        RCCSD(T)        HF-SCF  
    -15.81731033    -15.68874380
 **********************************************************************************************************************************
 Variable memory released
  --><stm:metadataList>
   <stm:metadata name="dc:date" content="2018-05-25T13:03:20-07:00"/>
   <stm:metadata name="dc:creator" content="aannabe"/>
   <stm:metadata name="dc:title" content="O"/>
   <stm:metadata name="cmlm:insilico" content="Molpro"/>
  </stm:metadataList><!--
  --><platform>
   <version major="2015" minor="1" SHA="2873118e99aab1bc19f5b6fc1784693c06d15c95"
     integer_bits="64" parallelism="mpp">
    2015.1
    <date year="2018" month="5" day="25" hour="13" minute="3" second="18">
     2018-05-25T13:03:18
    </date>
   </version>
   <licence id="lbl"/>
   <parallel processes="3" nodes="1" all_processes="3" openmp="1"/>
   <machine hostname="" architecture="">
     64 bit mpp version
    <sysinfo name="cpu MHz" content="2301.000"/>
    <sysinfo name="MemTotal" content="131899616 kB"/>
    <sysinfo name="vendor_id" content="GenuineIntel"/>
    <sysinfo name="cpu family" content="6"/>
    <sysinfo name="model name" content="Intel(R) Xeon(R) CPU E5-2698 v3 @ 2.30GHz"/>
    <sysinfo name="flags"
      content="fpu vme de pse tsc msr pae mce cx8 apic sep mtrr pge mca cmov pat pse36 clflush dts acpi mmx fxsr sse sse2 ss ht tm pbe syscall nx pdpe1gb rdtscp lm constant_tsc arch_perfmon pebs bts rep_good nopl xtopology nonstop_tsc aperfmperf eagerfpu pni pclmulqdq dtes64 monitor ds_cpl vmx smx est tm2 ssse3 sdbg fma cx16 xtpr pdcm pcid dca sse4_1 sse4_2 x2apic movbe popcnt tsc_deadline_timer aes xsave avx f16c rdrand lahf_lm abm ida arat epb invpcid_single pln pts dtherm kaiser tpr_shadow vnmi flexpriority ept vpid fsgsbase tsc_adjust bmi1 avx2 smep bmi2 erms invpcid cqm xsaveopt cqm_llc cqm_occup_llc"/>
    <sysinfo name="MemTotal" content="131899616 kB"/>
    <sysinfo name="cache size" content="40960 KB"/>
    <sysinfo name="ncpu" content="64"/>
   </machine>
  </platform><!--
  -->
  <input>
   <p> ***,O </p>
   <p> memory,256,m </p>
   <p>                                                                                 !gthresh,twoint=1.e-12 </p>
   <p> print,basis,orbitals </p>
   <p> angstrom </p>
   <p> geometry={ </p>
   <p> 1                                                                               ! Number of atoms </p>
   <p> O 0.0 0.0 0.0 </p>
   <p> } </p>
   <p> basis={ </p>
   <include file="/global/homes/a/aannabe/docs/totals/pps/O.pp"/>
   <include file="/global/homes/a/aannabe/docs/totals/basis/aug-cc-pVnZ/O_dz.basis"/>
   <p> } </p>
   <p> {hf </p>
   <p> wf,6,7,2 </p>
   <p> occ,1,1,1,0,1,0,0,0 </p>
   <p>                                                                                 !open,1.3 </p>
   <p> closed,1,1,0,0,0,0,0,0 </p>
   <p>                                                                                 !sym, </p>
   <p> } </p>
   <p> scf(i)=energy </p>
   <p>                                                                                 !_CC_NORM_MAX=2.0 </p>
   <p> {rccsd(t) </p>
   <p> maxit,100 </p>
   <p> core </p>
   <p> } </p>
   <p> posthf(i)=energy </p>
   <p> table,scf,posthf </p>
   <p> save,dz.csv </p>
  </input>
  <!--
 --></job><!--
--></molpro>
