
 Primary working directories    : /global/cscratch1/sd/aannabe
 Secondary working directories  : /global/cscratch1/sd/aannabe
 Wavefunction directory         : /global/homes/a/aannabe/wfu/
 Main file repository           : /global/cscratch1/sd/aannabe/

 SHA1      : 2873118e99aab1bc19f5b6fc1784693c06d15c95
 NAME      : 2015.1.8
 ARCHNAME  : linux/x86_64
 FC        : /opt/cray/pe/craype/2.5.5/bin/ftn
 BLASLIB   : -Wl,-_start-group /opt/intel/compilers_and_libraries_2016.3.210/linux/mkl/lib/intel64/libmkl_intel_ilp64.a /opt/intel/compilers_and_libraries_2016.3.210/linux/mkl/lib/intel64/libmkl_intel_thread.a /opt/intel/compilers_and_libraries_2016.3.210/linux/mkl/lib/intel64/libmkl_core.a -Wl,-_end-group
 id        : lbl

 Nodes     nprocs
 nid00500     1

 Using customized tuning parameters: mindgm=8; mindgv=16; mindgc=4; mindgr=1; noblas=0; minvec=7
 default implementation of scratch files=df  

 ***,Ni
 memory,512,m
 gthresh,twoint=1.e-12
 
 gprint,basis,orbitals
 gexpec,ekin,pot
 
 angstrom
 geometry={
 1                                                                               ! Number of atoms
 Ni 0.0 0.0 0.0
 }
 
 basis={
 Including file /global/homes/a/aannabe/docs/accurate/ccECP_D2h/pps/Ni.pp
                                             !include,/global/homes/a/aannabe/docs/accurate/ccECP_D2h/basis/aug-cc-pVnZ/Ni_tz.basis
 Including file /global/homes/a/aannabe/docs/accurate/ccECP_D2h/basis/cc-pVnZ/Ni_tz.basis
 }
 
 {hf
 start,atden
 wf,18,4,2
 occ,4,1,1,1,1,1,1,0
 open,4.1,1.4
 sym,1,1,3,2,1
 orbital,4202.2
 
 }
 scf(i)=energy
 
 _CC_NORM_MAX=2.0
 {ci
 maxit,100
 core
 }
 posthf(i)=energy
 
 table,scf,posthf,ekin,pot
 save,3.csv,new
 
 

 Variables initialized (889), CPU time= 0.00 sec
 Commands  initialized (702), CPU time= 0.02 sec, 572 directives.
 Default parameters read. Elapsed time= 0.25 sec

 Checking input...
 Passed
1


                                         ***  PROGRAM SYSTEM MOLPRO  ***
                                       Copyright, TTI GmbH Stuttgart, 2015
                                    Version 2015.1 linked Sep  7 2016 23:09:38


 **********************************************************************************************************************************
 LABEL *   Ni                                                                            
  64 bit serial version                                                                  DATE: 13-Nov-18          TIME: 22:29:15  
 **********************************************************************************************************************************

 SHA1:             2873118e99aab1bc19f5b6fc1784693c06d15c95
 **********************************************************************************************************************************

 THRESHOLDS:

 ZERO    =  1.00D-12  ONEINT  =  1.00D-12  TWOINT  =  1.00D-12  PREFAC  =  1.00D-14  LOCALI  =  1.00D-09  EORDER  =  1.00D-04
 ENERGY  =  0.00D+00  ETEST   =  0.00D+00  EDENS   =  0.00D+00  THRDEDEF=  1.00D-06  GRADIENT=  1.00D-02  STEP    =  1.00D-03
 ORBITAL =  1.00D-05  CIVEC   =  1.00D-05  COEFF   =  1.00D-04  PRINTCI =  5.00D-02  PUNCHCI =  9.90D+01  OPTGRAD =  3.00D-04
 OPTENERG=  1.00D-06  OPTSTEP =  3.00D-04  THRGRAD =  1.00D-10  COMPRESS=  1.00D-11  VARMIN  =  1.00D-07  VARMAX  =  1.00D-03
 THRDOUB =  0.00D+00  THRDIV  =  1.00D-05  THRRED  =  1.00D-07  THRPSP  =  1.00D+00  THRDC   =  1.00D-10  THRCS   =  1.00D-10
 THRNRM  =  1.00D-08  THREQ   =  0.00D+00  THRDE   =  1.00D+00  THRREF  =  1.00D-05  SPARFAC =  1.00D+00  THRDLP  =  1.00D-07
 THRDIA  =  1.00D-10  THRDLS  =  1.00D-07  THRGPS  =  0.00D+00  THRKEX  =  0.00D+00  THRDIS  =  2.00D-01  THRVAR  =  1.00D-10
 THRLOC  =  1.00D-06  THRGAP  =  1.00D-06  THRLOCT = -1.00D+00  THRGAPT = -1.00D+00  THRORB  =  1.00D-06  THRMLTP =  0.00D+00
 THRCPQCI=  1.00D-10  KEXTA   =  0.00D+00  THRCOARS=  0.00D+00  SYMTOL  =  1.00D-06  GRADTOL =  1.00D-06  THROVL  =  1.00D-08
 THRORTH =  1.00D-08  GRID    =  1.00D-06  GRIDMAX =  1.00D-03  DTMAX   =  0.00D+00  THROCCDE=  1.00D-01  THROCCDE=  1.00D-01



 ZUNIT=ANG
 

Geometry recognized as XYZ


 Variable memory set to  512000000 words,  buffer space   230000 words

 SETTING BASIS          =    USERDEF


 Recomputing integrals since basis changed


 Using spherical harmonics



 PROGRAM * SEWARD (Integral evaluation for generally contracted gaussian basis sets)     Author: Roland Lindh, 1990

 Geometry written to block  1 of record 700

 Orientation using atomic masses  
 Molecule type: Atom
 Symmetry elements: X,Y,Z
 Rotational constants:       0.0000000      0.0000000      0.0000000 GHz  (calculated with average atomic masses)

 Point group  D2h 



 ATOMIC COORDINATES

 NR  ATOM    CHARGE       X              Y              Z

   1  NI     18.00    0.000000000    0.000000000    0.000000000


          NI  CORE POTENTIAL

          d POTENTIAL

 POWERS             1              3              2              2
 EXPONENTIALS   28.26300       26.93603       27.08601       12.21300    
 COEFFICIENTS   18.00000       508.7340      -220.1000      -2.134933    

          s - d POTENTIAL

 POWERS             2              2
 EXPONENTIALS   26.43202       11.74897    
 COEFFICIENTS   321.2400       60.34701    

          p - d POTENTIAL

 POWERS             2              2
 EXPONENTIALS   29.49300       11.55698    
 COEFFICIENTS   236.5400       44.39699    


 BASIS DATA

   Nr Sym  Nuc  Type         Exponents   Contraction coefficients

    1.1 Ag    1  1s          97.161835     0.000709   -0.000140    0.000121    0.000434    0.000000
    2.1 Ag                   51.187866    -0.012399    0.002756    0.003322    0.004848    0.000000
    3.1 Ag                   26.996725     0.107220   -0.025482   -0.045785   -0.087818    0.000000
    4.1 Ag                   15.523536    -0.124556    0.032182    0.053415    0.121852    0.000000
    5.1 Ag                    8.916168    -0.351023    0.086226    0.222270    0.454218    0.000000
                              4.795806    -0.025758    0.001104   -0.073065   -0.245765    0.000000
                              2.619926     0.498948   -0.135790   -0.293998   -0.997345    0.000000
                              1.330111     0.568986   -0.215724   -0.668938   -0.834586    0.000000
                              0.668901     0.191121   -0.158367    0.297504    2.285675    0.000000
                              0.230439     0.010278    0.143499    1.233748    0.251538    0.000000
                              0.121518    -0.003627    0.443672    0.129317   -1.988796    0.000000
                              0.057951     0.001295    0.472558   -0.603407    0.347602    0.000000
                              0.027201    -0.000307    0.110173   -0.533062    0.824150    1.000000
    6.1 Ag    1  1s           1.554348     1.000000
    7.1 Ag    1  1s           4.246101     1.000000
    8.1 Ag    1  3d0        177.900125     0.000049
                             57.372112     0.007519
                             29.881432     0.036455
                             13.971757     0.086901
                              6.841152     0.180568
                              3.379983     0.268187
                              1.651827     0.296756
                              0.799251     0.251558
                              0.388057     0.162319
                              0.191191     0.072119
                              0.093358     0.023689
    9.1 Ag    1  3d2+       177.900125     0.000049
                             57.372112     0.007519
                             29.881432     0.036455
                             13.971757     0.086901
                              6.841152     0.180568
                              3.379983     0.268187
                              1.651827     0.296756
                              0.799251     0.251558
                              0.388057     0.162319
                              0.191191     0.072119
                              0.093358     0.023689
   10.1 Ag    1  3d0        177.900125    -0.000053
                             57.372112    -0.008850
                             29.881432    -0.041916
                             13.971757    -0.104691
                              6.841152    -0.219464
                              3.379983    -0.283712
                              1.651827    -0.122127
                              0.799251     0.190123
                              0.388057     0.376598
                              0.191191     0.295122
                              0.093358     0.178252
   11.1 Ag    1  3d2+       177.900125    -0.000053
                             57.372112    -0.008850
                             29.881432    -0.041916
                             13.971757    -0.104691
                              6.841152    -0.219464
                              3.379983    -0.283712
                              1.651827    -0.122127
                              0.799251     0.190123
                              0.388057     0.376598
                              0.191191     0.295122
                              0.093358     0.178252
   12.1 Ag    1  3d0        177.900125     0.000079
                             57.372112     0.011442
                             29.881432     0.053972
                             13.971757     0.141068
                              6.841152     0.302294
                              3.379983     0.236558
                              1.651827    -0.291311
                              0.799251    -0.581758
                              0.388057    -0.024063
                              0.191191     0.389387
                              0.093358     0.430833
   13.1 Ag    1  3d2+       177.900125     0.000079
                             57.372112     0.011442
                             29.881432     0.053972
                             13.971757     0.141068
                              6.841152     0.302294
                              3.379983     0.236558
                              1.651827    -0.291311
                              0.799251    -0.581758
                              0.388057    -0.024063
                              0.191191     0.389387
                              0.093358     0.430833
   14.1 Ag    1  3d0        177.900125     0.000000
                             57.372112     0.000000
                             29.881432     0.000000
                             13.971757     0.000000
                              6.841152     0.000000
                              3.379983     0.000000
                              1.651827     0.000000
                              0.799251     0.000000
                              0.388057     0.000000
                              0.191191     0.000000
                              0.093358     1.000000
   15.1 Ag    1  3d2+       177.900125     0.000000
                             57.372112     0.000000
                             29.881432     0.000000
                             13.971757     0.000000
                              6.841152     0.000000
                              3.379983     0.000000
                              1.651827     0.000000
                              0.799251     0.000000
                              0.388057     0.000000
                              0.191191     0.000000
                              0.093358     1.000000
   16.1 Ag    1  3d0          2.566254     1.000000
   17.1 Ag    1  3d2+         2.566254     1.000000
   18.1 Ag    1  3d0          4.627077     1.000000
   19.1 Ag    1  3d2+         4.627077     1.000000
   20.1 Ag    1  5g0          2.896680     1.000000
   21.1 Ag    1  5g4+         2.896680     1.000000
   22.1 Ag    1  5g2+         2.896680     1.000000
   23.1 Ag    1  5g0          7.108284     1.000000
   24.1 Ag    1  5g4+         7.108284     1.000000
   25.1 Ag    1  5g2+         7.108284     1.000000
    1.2 B3u   1  2px        148.087630     0.000055    0.000027   -0.000237   -0.000260    0.000000
    2.2 B3u                  77.452187    -0.000548   -0.000088    0.001456    0.001071    0.000000
    3.2 B3u                  40.915636     0.006979   -0.000773   -0.009745    0.002322    0.000000
    4.2 B3u                  22.575667    -0.023658    0.003345    0.037799   -0.032140    0.000000
    5.2 B3u                  13.218268    -0.075682    0.019405    0.052521   -0.134136    0.000000
                              7.232093     0.027253   -0.014288   -0.035006    0.229062    0.000000
                              4.054870     0.284778   -0.054527   -0.455577    0.752239    0.000000
                              2.122089     0.427632   -0.116454   -0.368306    0.205535    0.000000
                              1.092769     0.309937   -0.060236    0.100392   -1.692910    0.000000
                              0.548240     0.088535   -0.023928    1.076652    0.436295    0.000000
                              0.238886     0.006427    0.347869   -0.045326    1.219514    0.000000
                              0.084667     0.000708    0.522626   -0.703186   -0.945516    0.000000
                              0.038921     0.000186    0.276471    0.004580   -0.062232    1.000000
    6.2 B3u   1  2px          1.939264     1.000000
    7.2 B3u   1  2px          7.600387     1.000000
    8.2 B3u   1  4f1+         1.144322     1.000000
    9.2 B3u   1  4f3+         1.144322     1.000000
   10.2 B3u   1  4f1+         4.588601     1.000000
   11.2 B3u   1  4f3+         4.588601     1.000000
   12.2 B3u   1  4f1+         9.190898     1.000000
   13.2 B3u   1  4f3+         9.190898     1.000000
    1.3 B2u   1  2py        148.087630     0.000055    0.000027   -0.000237   -0.000260    0.000000
    2.3 B2u                  77.452187    -0.000548   -0.000088    0.001456    0.001071    0.000000
    3.3 B2u                  40.915636     0.006979   -0.000773   -0.009745    0.002322    0.000000
    4.3 B2u                  22.575667    -0.023658    0.003345    0.037799   -0.032140    0.000000
    5.3 B2u                  13.218268    -0.075682    0.019405    0.052521   -0.134136    0.000000
                              7.232093     0.027253   -0.014288   -0.035006    0.229062    0.000000
                              4.054870     0.284778   -0.054527   -0.455577    0.752239    0.000000
                              2.122089     0.427632   -0.116454   -0.368306    0.205535    0.000000
                              1.092769     0.309937   -0.060236    0.100392   -1.692910    0.000000
                              0.548240     0.088535   -0.023928    1.076652    0.436295    0.000000
                              0.238886     0.006427    0.347869   -0.045326    1.219514    0.000000
                              0.084667     0.000708    0.522626   -0.703186   -0.945516    0.000000
                              0.038921     0.000186    0.276471    0.004580   -0.062232    1.000000
    6.3 B2u   1  2py          1.939264     1.000000
    7.3 B2u   1  2py          7.600387     1.000000
    8.3 B2u   1  4f1-         1.144322     1.000000
    9.3 B2u   1  4f3-         1.144322     1.000000
   10.3 B2u   1  4f1-         4.588601     1.000000
   11.3 B2u   1  4f3-         4.588601     1.000000
   12.3 B2u   1  4f1-         9.190898     1.000000
   13.3 B2u   1  4f3-         9.190898     1.000000
    1.4 B1g   1  3d2-       177.900125     0.000049   -0.000053    0.000079    0.000000
    2.4 B1g                  57.372112     0.007519   -0.008850    0.011442    0.000000
    3.4 B1g                  29.881432     0.036455   -0.041916    0.053972    0.000000
    4.4 B1g                  13.971757     0.086901   -0.104691    0.141068    0.000000
                              6.841152     0.180568   -0.219464    0.302294    0.000000
                              3.379983     0.268187   -0.283712    0.236558    0.000000
                              1.651827     0.296756   -0.122127   -0.291311    0.000000
                              0.799251     0.251558    0.190123   -0.581758    0.000000
                              0.388057     0.162319    0.376598   -0.024063    0.000000
                              0.191191     0.072119    0.295122    0.389387    0.000000
                              0.093358     0.023689    0.178252    0.430833    1.000000
    5.4 B1g   1  3d2-         2.566254     1.000000
    6.4 B1g   1  3d2-         4.627077     1.000000
    7.4 B1g   1  5g2-         2.896680     1.000000
    8.4 B1g   1  5g4-         2.896680     1.000000
    9.4 B1g   1  5g2-         7.108284     1.000000
   10.4 B1g   1  5g4-         7.108284     1.000000
    1.5 B1u   1  2pz        148.087630     0.000055    0.000027   -0.000237   -0.000260    0.000000
    2.5 B1u                  77.452187    -0.000548   -0.000088    0.001456    0.001071    0.000000
    3.5 B1u                  40.915636     0.006979   -0.000773   -0.009745    0.002322    0.000000
    4.5 B1u                  22.575667    -0.023658    0.003345    0.037799   -0.032140    0.000000
    5.5 B1u                  13.218268    -0.075682    0.019405    0.052521   -0.134136    0.000000
                              7.232093     0.027253   -0.014288   -0.035006    0.229062    0.000000
                              4.054870     0.284778   -0.054527   -0.455577    0.752239    0.000000
                              2.122089     0.427632   -0.116454   -0.368306    0.205535    0.000000
                              1.092769     0.309937   -0.060236    0.100392   -1.692910    0.000000
                              0.548240     0.088535   -0.023928    1.076652    0.436295    0.000000
                              0.238886     0.006427    0.347869   -0.045326    1.219514    0.000000
                              0.084667     0.000708    0.522626   -0.703186   -0.945516    0.000000
                              0.038921     0.000186    0.276471    0.004580   -0.062232    1.000000
    6.5 B1u   1  2pz          1.939264     1.000000
    7.5 B1u   1  2pz          7.600387     1.000000
    8.5 B1u   1  4f0          1.144322     1.000000
    9.5 B1u   1  4f2+         1.144322     1.000000
   10.5 B1u   1  4f0          4.588601     1.000000
   11.5 B1u   1  4f2+         4.588601     1.000000
   12.5 B1u   1  4f0          9.190898     1.000000
   13.5 B1u   1  4f2+         9.190898     1.000000
    1.6 B2g   1  3d1+       177.900125     0.000049   -0.000053    0.000079    0.000000
    2.6 B2g                  57.372112     0.007519   -0.008850    0.011442    0.000000
    3.6 B2g                  29.881432     0.036455   -0.041916    0.053972    0.000000
    4.6 B2g                  13.971757     0.086901   -0.104691    0.141068    0.000000
                              6.841152     0.180568   -0.219464    0.302294    0.000000
                              3.379983     0.268187   -0.283712    0.236558    0.000000
                              1.651827     0.296756   -0.122127   -0.291311    0.000000
                              0.799251     0.251558    0.190123   -0.581758    0.000000
                              0.388057     0.162319    0.376598   -0.024063    0.000000
                              0.191191     0.072119    0.295122    0.389387    0.000000
                              0.093358     0.023689    0.178252    0.430833    1.000000
    5.6 B2g   1  3d1+         2.566254     1.000000
    6.6 B2g   1  3d1+         4.627077     1.000000
    7.6 B2g   1  5g1+         2.896680     1.000000
    8.6 B2g   1  5g3+         2.896680     1.000000
    9.6 B2g   1  5g1+         7.108284     1.000000
   10.6 B2g   1  5g3+         7.108284     1.000000
    1.7 B3g   1  3d1-       177.900125     0.000049   -0.000053    0.000079    0.000000
    2.7 B3g                  57.372112     0.007519   -0.008850    0.011442    0.000000
    3.7 B3g                  29.881432     0.036455   -0.041916    0.053972    0.000000
    4.7 B3g                  13.971757     0.086901   -0.104691    0.141068    0.000000
                              6.841152     0.180568   -0.219464    0.302294    0.000000
                              3.379983     0.268187   -0.283712    0.236558    0.000000
                              1.651827     0.296756   -0.122127   -0.291311    0.000000
                              0.799251     0.251558    0.190123   -0.581758    0.000000
                              0.388057     0.162319    0.376598   -0.024063    0.000000
                              0.191191     0.072119    0.295122    0.389387    0.000000
                              0.093358     0.023689    0.178252    0.430833    1.000000
    5.7 B3g   1  3d1-         2.566254     1.000000
    6.7 B3g   1  3d1-         4.627077     1.000000
    7.7 B3g   1  5g1-         2.896680     1.000000
    8.7 B3g   1  5g3-         2.896680     1.000000
    9.7 B3g   1  5g1-         7.108284     1.000000
   10.7 B3g   1  5g3-         7.108284     1.000000
    1.8 Au    1  4f2-         1.144322     1.000000
    2.8 Au    1  4f2-         4.588601     1.000000
    3.8 Au    1  4f2-         9.190898     1.000000

 NUCLEAR CHARGE:                   18
 NUMBER OF PRIMITIVE AOS:         198
 NUMBER OF SYMMETRY AOS:          164
 NUMBER OF CONTRACTIONS:           97   (  25Ag  +  13B3u +  13B2u +  10B1g +  13B1u +  10B2g +  10B3g +   3Au  )
 NUMBER OF CORE ORBITALS:           4   (   1Ag  +   1B3u +   1B2u +   0B1g +   1B1u +   0B2g +   0B3g +   0Au  )
 NUMBER OF VALENCE ORBITALS:        6   (   3Ag  +   0B3u +   0B2u +   1B1g +   0B1u +   1B2g +   1B3g +   0Au  )


 NUCLEAR REPULSION ENERGY    0.00000000

 EXTRA SYMMETRY OF AOS IN SYMMETRY 1:   1 1 1 1 1 1 1 2 3 2   3 2 3 2 3 2 3 2 3 4   5 6 4 5 6
 EXTRA SYMMETRY OF AOS IN SYMMETRY 2:   1 1 1 1 1 1 1 2 3 2   3 2 3
 EXTRA SYMMETRY OF AOS IN SYMMETRY 3:   1 1 1 1 1 1 1 2 3 2   3 2 3
 EXTRA SYMMETRY OF AOS IN SYMMETRY 4:   1 1 1 1 1 1 2 3 2 3
 EXTRA SYMMETRY OF AOS IN SYMMETRY 5:   1 1 1 1 1 1 1 2 3 2   3 2 3
 EXTRA SYMMETRY OF AOS IN SYMMETRY 6:   1 1 1 1 1 1 2 3 2 3
 EXTRA SYMMETRY OF AOS IN SYMMETRY 7:   1 1 1 1 1 1 2 3 2 3

 Eigenvalues of metric

         1 0.328E-02 0.135E-01 0.249E-01 0.249E-01 0.417E-01 0.417E-01 0.142E+00 0.142E+00
         2 0.316E-02 0.807E-01 0.194E+00 0.194E+00 0.223E+00 0.744E+00 0.905E+00 0.905E+00
         3 0.316E-02 0.807E-01 0.194E+00 0.194E+00 0.223E+00 0.744E+00 0.905E+00 0.905E+00
         4 0.249E-01 0.417E-01 0.142E+00 0.415E+00 0.415E+00 0.108E+01 0.158E+01 0.158E+01
         5 0.316E-02 0.807E-01 0.194E+00 0.194E+00 0.223E+00 0.744E+00 0.905E+00 0.905E+00
         6 0.249E-01 0.417E-01 0.142E+00 0.415E+00 0.415E+00 0.108E+01 0.158E+01 0.158E+01
         7 0.249E-01 0.417E-01 0.142E+00 0.415E+00 0.415E+00 0.108E+01 0.158E+01 0.158E+01
         8 0.194E+00 0.905E+00 0.190E+01


 Contracted 2-electron integrals neglected if value below      1.0D-12
 AO integral compression algorithm  1   Integral accuracy      1.0D-12

     14.418 MB (compressed) written to integral file ( 65.6%)


 NUMBER OF SORTED TWO-ELECTRON INTEGRALS:    1497820.     BUFFER LENGTH:  32768
 NUMBER OF SEGMENTS:   1  SEGMENT LENGTH:    1497820      RECORD LENGTH: 524288

 Memory used in sort:       2.05 MW

 SORT1 READ     2746375. AND WROTE     1138997. INTEGRALS IN      4 RECORDS. CPU TIME:     0.08 SEC, REAL TIME:     0.11 SEC
 SORT2 READ     1138997. AND WROTE     1497820. INTEGRALS IN     55 RECORDS. CPU TIME:     0.08 SEC, REAL TIME:     0.20 SEC

 FILE SIZES:   FILE 1:    33.7 MBYTE,  FILE 4:    16.8 MBYTE,   TOTAL:     50.6 MBYTE

 OPERATOR DM      FOR CENTER  0  COORDINATES:    0.000000    0.000000    0.000000
 OPERATOR EKIN    FOR CENTER  0  COORDINATES:    0.000000    0.000000    0.000000
 OPERATOR POT     FOR CENTER  0  COORDINATES:    0.000000    0.000000    0.000000


 **********************************************************************************************************************************
 DATASETS  * FILE   NREC   LENGTH (MB)   RECORD NAMES
              1      20       26.97       500      610      700      900      950      970     1000      129      960     1100   
                                          VAR    BASINP    GEOM    SYMINP    ZMAT    AOBASIS   BASIS     P2S    ABASIS      S 
                                         1400     1410     1420     1200     1210     1080     1600     1650     1300     1700   
                                         EKIN       V       ECP      H0       H01     AOSYM     SMH    MOLCAS    ERIS     OPER   

 PROGRAMS   *        TOTAL       INT
 CPU TIMES  *         2.11      1.98
 REAL TIME  *         3.87 SEC
 DISK USED  *        50.86 MB      
 **********************************************************************************************************************************


 PROGRAM * RHF-SCF (OPEN SHELL)       Authors: W. Meyer, H.-J. Werner


 NUMBER OF ELECTRONS:      10+    8-    SPACE SYMMETRY=4    SPIN SYMMETRY: Triplet 
 CONVERGENCE THRESHOLDS:    1.00E-05 (Density)    1.00E-07 (Energy)
 MAX. NUMBER OF ITERATIONS:       60
 INTERPOLATION TYPE:            DIIS
 INTERPOLATION STEPS:              2 (START)      1 (STEP)
 LEVEL SHIFTS:                 -0.60 (CLOSED) -0.30 (OPEN) 


 Singly occupied orbitals:      4.1       1.4
 
 Extra symmetries of mos in symmetry 1:   1   3   2   1

   Atom=NI basis=ECP10MDF_GUESS    lmin=0  lmax=2

 Orbital guess generated from atomic densities. Full valence occupancy:    4   1   1   1   1   1   1   0


 Molecular orbital dump at record        4202.2

 ITERATION    DDIFF          GRAD             ENERGY        2-EL.EN.            DIPOLE MOMENTS         DIIS   ORB.
    1      0.000D+00      0.000D+00      -167.52035035    242.269546    0.00000    0.00000    0.00000    0    start
    2      0.000D+00      0.130D+00      -167.88373171    289.408991    0.00000    0.00000    0.00000    1    diag,B
    3      0.373D-01      0.123D+00      -168.40731254    272.745175    0.00000    0.00000    0.00000    2    diag,B
    4      0.149D-01      0.143D-01      -168.41819470    271.301937    0.00000    0.00000    0.00000    3    diag,B
    5      0.588D-02      0.224D-02      -168.41981817    271.510428    0.00000    0.00000    0.00000    4    diag,B
    6      0.583D-02      0.596D-03      -168.42000789    271.657051    0.00000    0.00000    0.00000    5    diag,B
    7      0.340D-02      0.101D-03      -168.42001311    271.665658    0.00000    0.00000    0.00000    6    fixocc
    8      0.589D-03      0.352D-04      -168.42001396    271.669647    0.00000    0.00000    0.00000    7    diag,B
    9      0.171D-03      0.115D-04      -168.42001411    271.672254    0.00000    0.00000    0.00000    8    diag,B
   10      0.915D-04      0.307D-05      -168.42001412    271.672383    0.00000    0.00000    0.00000    9    orth
   11      0.137D-04      0.126D-05      -168.42001412    271.672696    0.00000    0.00000    0.00000    9    diag,B
   12      0.116D-04      0.522D-06      -168.42001412    271.672765    0.00000    0.00000    0.00000    9    diag,B
   13      0.532D-05      0.209D-06      -168.42001412    271.672782    0.00000    0.00000    0.00000    0    orth

 Final alpha occupancy:   4   1   1   1   1   1   1   0
 Final beta  occupancy:   3   1   1   0   1   1   1   0

 !RHF STATE 1.4 Energy               -168.420014120558
 Nuclear energy                         0.00000000
 One-electron energy                 -304.25640506
 Two-electron energy                  135.83639094
 Virial quotient                       -1.55166260
 !RHF STATE 1.4 Dipole moment           0.00000000     0.00000000     0.00000000
 Dipole moment /Debye                   0.00000000     0.00000000     0.00000000
 

 !RHF expec          <1.4|EKIN|1.4>   108.541647099413
 
 !RHF expec           <1.4|POT|1.4>   -23.838004296698

 ELECTRON ORBITALS
 =================


   Orb  Occ    Energy  Couls-En    Coefficients

                                   1 1s      1 1s      1 1s      1 1s      1 1s      1 1s      1 1s      1 3d0     1 3d2+    1 3d0  
                                   1 3d2+    1 3d0     1 3d2+    1 3d0     1 3d2+    1 3d0     1 3d2+    1 3d0     1 3d2+    1 5g0  
                                   1 5g4+    1 5g2+    1 5g0     1 5g4+    1 5g2+ 

   1.1   2    -4.8255  -26.1665  1.002210  0.008607  0.003878  0.004788 -0.003689 -0.002692  0.001419 -0.003645  0.000000  0.001737
                                -0.000000  0.000021 -0.000000 -0.000367  0.000000 -0.001644 -0.000000 -0.000368  0.000000 -0.000084
                                 0.000544 -0.000000 -0.000016  0.000111  0.000000

   2.1   2    -0.4761  -15.9642 -0.000000  0.000000  0.000000  0.000000  0.000000 -0.000000  0.000000  0.000000  0.999546  0.000000
                                 0.030384  0.000000  0.009088 -0.000000 -0.004154  0.000000  0.001342  0.000000  0.000199 -0.000000
                                 0.000000 -0.001277  0.000000  0.000000 -0.000218

   3.1   2    -0.4182  -15.7399  0.005200  0.000438 -0.001355  0.000405 -0.000310  0.000329 -0.000163  0.997359 -0.000000  0.049375
                                -0.000000  0.016110 -0.000000  0.000259  0.000000  0.002363 -0.000000 -0.000324 -0.000000 -0.001923
                                -0.000311  0.000000 -0.000319 -0.000060 -0.000000

   4.1   +    -0.2422   -6.5272 -0.008876  0.952465 -0.087863  0.015519  0.049593 -0.005625  0.001533  0.001285 -0.000000 -0.011960
                                -0.000000 -0.003759 -0.000000 -0.004123  0.000000 -0.000158 -0.000000  0.000196  0.000000  0.000007
                                -0.000097  0.000000 -0.000037  0.000178 -0.000000

                                   1 2px     1 2px     1 2px     1 2px     1 2px     1 2px     1 2px     1 4f1+    1 4f3+    1 4f1+ 
                                   1 4f3+    1 4f1+    1 4f3+ 

   1.2   2    -3.1088  -22.5464  1.007605  0.023154  0.020166 -0.000878 -0.006266 -0.008058  0.001195 -0.000836  0.004138 -0.001189
                                 0.002058  0.000096  0.000432

                                   1 2py     1 2py     1 2py     1 2py     1 2py     1 2py     1 2py     1 4f1-    1 4f3-    1 4f1- 
                                   1 4f3-    1 4f1-    1 4f3- 

   1.3   2    -3.1088  -22.5464  1.007605  0.023154  0.020166 -0.000878 -0.006266 -0.008058  0.001195 -0.000836 -0.004138 -0.001189
                                -0.002058  0.000096 -0.000432

                                   1 3d2-    1 3d2-    1 3d2-    1 3d2-    1 3d2-    1 3d2-    1 5g2-    1 5g4-    1 5g2-    1 5g4- 


   1.4   +    -0.5330  -16.1326  0.998732  0.016524  0.004740 -0.004604  0.002119  0.000689 -0.002376  0.000000 -0.000436  0.000000

                                   1 2pz     1 2pz     1 2pz     1 2pz     1 2pz     1 2pz     1 2pz     1 4f0     1 4f2+    1 4f0  
                                   1 4f2+    1 4f0     1 4f2+ 

   1.5   2    -3.1008  -22.5276  1.008999  0.026007  0.021770 -0.000585 -0.007037 -0.009732  0.001663 -0.002337  0.000000 -0.002104
                                -0.000000 -0.000020  0.000000

                                   1 3d1+    1 3d1+    1 3d1+    1 3d1+    1 3d1+    1 3d1+    1 5g1+    1 5g3+    1 5g1+    1 5g3+ 


   1.6   2    -0.4329  -15.7996  0.998071  0.044444  0.014282 -0.001162  0.002091 -0.000190 -0.001732  0.000193 -0.000289  0.000037

                                   1 3d1-    1 3d1-    1 3d1-    1 3d1-    1 3d1-    1 3d1-    1 5g1-    1 5g3-    1 5g1-    1 5g3- 


   1.7   2    -0.4329  -15.7996  0.998071  0.044444  0.014282 -0.001162  0.002091 -0.000190 -0.001732 -0.000193 -0.000289 -0.000037

 HOMO      4.1    -0.242211 =      -6.5909eV
 LUMO      2.2     0.045154 =       1.2287eV
 LUMO-HOMO         0.287365 =       7.8196eV


 **********************************************************************************************************************************
 DATASETS  * FILE   NREC   LENGTH (MB)   RECORD NAMES
              1      20       26.97       500      610      700      900      950      970     1000      129      960     1100   
                                          VAR    BASINP    GEOM    SYMINP    ZMAT    AOBASIS   BASIS     P2S    ABASIS      S 
                                         1400     1410     1420     1200     1210     1080     1600     1650     1300     1700   
                                         EKIN       V       ECP      H0       H01     AOSYM     SMH    MOLCAS    ERIS     OPER   

              2       4        2.81       700     1000      520     4202   
                                         GEOM     BASIS   MCVARS     RHF  

 PROGRAMS   *        TOTAL        HF       INT
 CPU TIMES  *         2.27      0.16      1.98
 REAL TIME  *         4.25 SEC
 DISK USED  *        50.86 MB      
 **********************************************************************************************************************************
 SETTING SCF(I)         =      -168.42001412  AU                              
 SETTING _CC_NORM_MAX   =         2.00000000                                  


 PROGRAM * CI (Multireference internally contracted CI)     Authors: H.-J. Werner, P.J. Knowles, 1987


 Convergence thresholds:  THRVAR = 1.00D-08  THRDEN = 1.00D-06

 Number of optimized states:  1  Roots:   1
 Number of reference states:  1  Roots:   1

 Reference symmetry:                   4   Triplet 
 Number of electrons:                 18
 Maximum number of shells:             3
 Maximum number of spin couplings:     9

 Reference space:        1 conf        1 CSFs
 N elec internal:       45 conf       45 CSFs
 N-1 el internal:       98 conf      226 CSFs
 N-2 el internal:       53 conf      325 CSFs

 Number of electrons in valence space:                     18
 Maximum number of open shell orbitals in reference space:  2
 Maximum number of open shell orbitals in internal spaces:  6


 Number of closed-shell orbitals:   8 (   3   1   1   0   1   1   1   0 )
 Number of active  orbitals:        2 (   1   0   0   1   0   0   0   0 )
 Number of external orbitals:      87 (  21  12  12   9  12   9   9   3 )

 Molecular orbitals read from record     4202.2  Type=RHF/CANONICAL (state 1.4)

 Integral transformation finished. Total CPU:   0.03 sec, npass=  1  Memory used:   0.13 MW

 Number of p-space configurations:   1

 Reference wavefunction optimized for reference space (refopt=1)

 State     Reference Energy 
   1        -168.42001412

 Number of blocks in overlap matrix:    97   Smallest eigenvalue:  0.10D+01
 Number of N-2 electron functions:      97
 Number of N-1 electron functions:     226

 Number of internal configurations:                    6
 Number of singly external configurations:          2538
 Number of doubly external configurations:         47490
 Total number of contracted configurations:        50034
 Total number of uncontracted configurations:     159291

 Diagonal Coupling coefficients finished.               Storage:   18397 words, CPU-Time:      0.00 seconds.
 Energy denominators for pairs finished in 1 passes.    Storage:   34992 words, CPU-time:      0.00 seconds.

  ITER. STATE  ROOT     SQ.NORM     CORR.ENERGY   TOTAL ENERGY   ENERGY CHANGE       DEN1      VAR(S)    VAR(P)      TIME
    1     1     1     1.00000000     0.00000000  -168.42001412    -0.00000000    -0.95803922  0.89D-02  0.12D+00     0.06
    2     1     1     1.07446306    -0.72376672  -169.14378085    -0.72376672    -0.03996083  0.28D-02  0.50D-02     0.18
    3     1     1     1.06948431    -0.75593613  -169.17595025    -0.03216940    -0.00124984  0.22D-03  0.10D-03     0.30
    4     1     1     1.06942277    -0.75695368  -169.17696780    -0.00101756    -0.00006527  0.11D-04  0.55D-05     0.43
    5     1     1     1.06963712    -0.75701496  -169.17702908    -0.00006127    -0.00000329  0.24D-06  0.34D-06     0.54
    6     1     1     1.06973782    -0.75701831  -169.17703243    -0.00000335    -0.00000010  0.79D-08  0.14D-07     0.67
    7     1     1     1.06974807    -0.75701842  -169.17703254    -0.00000011    -0.00000000  0.76D-09  0.50D-09     0.79


 =====================================
 Analysis of CPU times by interactions
 =====================================

       I      S      P

 I   0.0%
 S   0.0%  25.3%
 P   0.0%  11.4%  25.3%

 Initialization:   7.6%
 Other:           30.4%

 Total CPU:        0.8 seconds
 =====================================



 Reference coefficients greater than 0.0500000
 =============================================
 222/22/222           0.9668495



 RESULTS FOR STATE 1.4
 =====================

 Coefficient of reference function:   C(0) = 0.96684947 (fixed)   0.96684947 (relaxed)

 Energy contributions of configuration classes

 CLASS          SQ.NORM        ECORR1        ECORR2
 +++++++++++++++++++++++++++++++++++++++++++++++++++
 Internals    0.00000176    0.00000000   -0.00000124
 Singles      0.00665819   -0.04286861   -0.04478403
 Pairs        0.06309000   -0.71414981   -0.71223314
 Total        1.06974995   -0.75701842   -0.75701842
 +++++++++++++++++++++++++++++++++++++++++++++++++++


 Reference energy                    -168.42001412
 Nuclear energy                         0.00000000
 Kinetic energy                       109.13005278
 One electron energy                 -303.28985133
 Two electron energy                  134.11281879
 Virial quotient                       -1.55023321
 Correlation energy                    -0.75701842
 !CI(SD) STATE 1.4 Energy            -169.177032540424

 Properties without orbital relaxation:

 !CI(SD) STATE 1.4 Dipole moment        0.00000000     0.00000000     0.00000000
 Dipole moment /Debye                   0.00000000     0.00000000     0.00000000

 Cluster corrected energies          -169.22983454 (Davidson, fixed reference)
 Cluster corrected energies          -169.22983454 (Davidson, relaxed reference)

 Cluster corrected energies          -169.22575578 (Pople, fixed reference)
 Cluster corrected energies          -169.22575578 (Pople, relaxed reference)

 

 !CI(SD) expec       <1.4|EKIN|1.4>   109.130052777822
 
 !CI(SD) expec        <1.4|POT|1.4>   -23.820632071326


 **********************************************************************************************************************************
 DATASETS  * FILE   NREC   LENGTH (MB)   RECORD NAMES
              1      21       27.85       500      610      700      900      950      970     1000      129      960     1100   
                                          VAR    BASINP    GEOM    SYMINP    ZMAT    AOBASIS   BASIS     P2S    ABASIS      S 
                                         1400     1410     1420     1200     1210     1080     1600     1650     1300     1700   
                                         EKIN       V       ECP      H0       H01     AOSYM     SMH    MOLCAS    ERIS     OPER   
                                         1380   
                                         JKOP   

              2       4        2.81       700     1000      520     4202   
                                         GEOM     BASIS   MCVARS     RHF  

 PROGRAMS   *        TOTAL        CI        HF       INT
 CPU TIMES  *         3.10      0.83      0.16      1.98
 REAL TIME  *         5.72 SEC
 DISK USED  *        50.86 MB      
 **********************************************************************************************************************************
 SETTING POSTHF(I)      =      -169.17703254  AU                              
                                                                                                                                                                                                                                                                

         SCF            POSTHF        EKIN          POT
    -168.4200141   -169.1770325   109.1300528   -23.82063207
                                                  

 CI/USERDEF energy=   -169.177032540424

        CI              HF-SCF  
   -169.17703254   -168.42001412
 **********************************************************************************************************************************
 Variable memory released
