
 Primary working directories    : /global/cscratch1/sd/aannabe
 Secondary working directories  : /global/cscratch1/sd/aannabe
 Wavefunction directory         : /global/homes/a/aannabe/wfu/
 Main file repository           : /global/cscratch1/sd/aannabe/

 SHA1      : 2873118e99aab1bc19f5b6fc1784693c06d15c95
 NAME      : 2015.1.8
 ARCHNAME  : linux/x86_64
 FC        : /opt/cray/pe/craype/2.5.5/bin/ftn
 BLASLIB   : -Wl,-_start-group /opt/intel/compilers_and_libraries_2016.3.210/linux/mkl/lib/intel64/libmkl_intel_ilp64.a /opt/intel/compilers_and_libraries_2016.3.210/linux/mkl/lib/intel64/libmkl_intel_thread.a /opt/intel/compilers_and_libraries_2016.3.210/linux/mkl/lib/intel64/libmkl_core.a -Wl,-_end-group
 id        : lbl

 Nodes     nprocs
 nid00500     1

 Using customized tuning parameters: mindgm=8; mindgv=16; mindgc=4; mindgr=1; noblas=0; minvec=7
 default implementation of scratch files=df  

 ***,Ni
 memory,512,m
 gthresh,twoint=1.e-12
 
 gprint,basis,orbitals
 gexpec,ekin,pot
 
 angstrom
 geometry={
 1                                                                               ! Number of atoms
 Ni 0.0 0.0 0.0
 }
 
 basis={
 Including file /global/homes/a/aannabe/docs/accurate/ccECP_D2h/pps/Ni.pp
                                             !include,/global/homes/a/aannabe/docs/accurate/ccECP_D2h/basis/aug-cc-pVnZ/Ni_5z.basis
 Including file /global/homes/a/aannabe/docs/accurate/ccECP_D2h/basis/cc-pVnZ/Ni_5z.basis
 }
 
 {hf
 start,atden
 wf,18,4,2
 occ,4,1,1,1,1,1,1,0
 open,4.1,1.4
 sym,1,1,3,2,1
 orbital,4202.2
 
 }
 scf(i)=energy
 
 _CC_NORM_MAX=2.0
 {ci
 maxit,100
 core
 }
 posthf(i)=energy
 
 table,scf,posthf,ekin,pot
 save,5.csv,new
 
 

 Variables initialized (889), CPU time= 0.01 sec
 Commands  initialized (702), CPU time= 0.01 sec, 572 directives.
 Default parameters read. Elapsed time= 0.21 sec

 Checking input...
 Passed
1


                                         ***  PROGRAM SYSTEM MOLPRO  ***
                                       Copyright, TTI GmbH Stuttgart, 2015
                                    Version 2015.1 linked Sep  7 2016 23:09:38


 **********************************************************************************************************************************
 LABEL *   Ni                                                                            
  64 bit serial version                                                                  DATE: 13-Nov-18          TIME: 22:30:02  
 **********************************************************************************************************************************

 SHA1:             2873118e99aab1bc19f5b6fc1784693c06d15c95
 **********************************************************************************************************************************

 THRESHOLDS:

 ZERO    =  1.00D-12  ONEINT  =  1.00D-12  TWOINT  =  1.00D-12  PREFAC  =  1.00D-14  LOCALI  =  1.00D-09  EORDER  =  1.00D-04
 ENERGY  =  0.00D+00  ETEST   =  0.00D+00  EDENS   =  0.00D+00  THRDEDEF=  1.00D-06  GRADIENT=  1.00D-02  STEP    =  1.00D-03
 ORBITAL =  1.00D-05  CIVEC   =  1.00D-05  COEFF   =  1.00D-04  PRINTCI =  5.00D-02  PUNCHCI =  9.90D+01  OPTGRAD =  3.00D-04
 OPTENERG=  1.00D-06  OPTSTEP =  3.00D-04  THRGRAD =  1.00D-10  COMPRESS=  1.00D-11  VARMIN  =  1.00D-07  VARMAX  =  1.00D-03
 THRDOUB =  0.00D+00  THRDIV  =  1.00D-05  THRRED  =  1.00D-07  THRPSP  =  1.00D+00  THRDC   =  1.00D-10  THRCS   =  1.00D-10
 THRNRM  =  1.00D-08  THREQ   =  0.00D+00  THRDE   =  1.00D+00  THRREF  =  1.00D-05  SPARFAC =  1.00D+00  THRDLP  =  1.00D-07
 THRDIA  =  1.00D-10  THRDLS  =  1.00D-07  THRGPS  =  0.00D+00  THRKEX  =  0.00D+00  THRDIS  =  2.00D-01  THRVAR  =  1.00D-10
 THRLOC  =  1.00D-06  THRGAP  =  1.00D-06  THRLOCT = -1.00D+00  THRGAPT = -1.00D+00  THRORB  =  1.00D-06  THRMLTP =  0.00D+00
 THRCPQCI=  1.00D-10  KEXTA   =  0.00D+00  THRCOARS=  0.00D+00  SYMTOL  =  1.00D-06  GRADTOL =  1.00D-06  THROVL  =  1.00D-08
 THRORTH =  1.00D-08  GRID    =  1.00D-06  GRIDMAX =  1.00D-03  DTMAX   =  0.00D+00  THROCCDE=  1.00D-01  THROCCDE=  1.00D-01



 ZUNIT=ANG
 

Geometry recognized as XYZ


 Variable memory set to  512000000 words,  buffer space   230000 words

 SETTING BASIS          =    USERDEF


 Recomputing integrals since basis changed


 Using spherical harmonics



 PROGRAM * SEWARD (Integral evaluation for generally contracted gaussian basis sets)     Author: Roland Lindh, 1990

 Geometry written to block  1 of record 700

 Orientation using atomic masses  
 Molecule type: Atom
 Symmetry elements: X,Y,Z
 Rotational constants:       0.0000000      0.0000000      0.0000000 GHz  (calculated with average atomic masses)

 Point group  D2h 



 ATOMIC COORDINATES

 NR  ATOM    CHARGE       X              Y              Z

   1  NI     18.00    0.000000000    0.000000000    0.000000000


          NI  CORE POTENTIAL

          d POTENTIAL

 POWERS             1              3              2              2
 EXPONENTIALS   28.26300       26.93603       27.08601       12.21300    
 COEFFICIENTS   18.00000       508.7340      -220.1000      -2.134933    

          s - d POTENTIAL

 POWERS             2              2
 EXPONENTIALS   26.43202       11.74897    
 COEFFICIENTS   321.2400       60.34701    

          p - d POTENTIAL

 POWERS             2              2
 EXPONENTIALS   29.49300       11.55698    
 COEFFICIENTS   236.5400       44.39699    


 BASIS DATA

   Nr Sym  Nuc  Type         Exponents   Contraction coefficients

    1.1 Ag    1  1s          97.161835     0.000709   -0.000140    0.000121    0.000434    0.002461    0.000002
                                           0.000000
    2.1 Ag                   51.187866    -0.012399    0.002756    0.003322    0.004848   -0.023460   -0.011799
                                           0.000000
    3.1 Ag                   26.996725     0.107220   -0.025482   -0.045785   -0.087818    0.198590    0.228034
                                           0.000000
    4.1 Ag                   15.523536    -0.124556    0.032182    0.053415    0.121852   -0.402525   -0.518505
                                           0.000000
    5.1 Ag                    8.916168    -0.351023    0.086226    0.222270    0.454218   -0.405568   -1.143264
                                           0.000000
    6.1 Ag                    4.795806    -0.025758    0.001104   -0.073065   -0.245765    0.387893    3.241774
                                           0.000000
    7.1 Ag                    2.619926     0.498948   -0.135790   -0.293998   -0.997345    2.684679    0.667935
                                           0.000000
                              1.330111     0.568986   -0.215724   -0.668938   -0.834586   -2.955956   -6.658332
                                           0.000000
                              0.668901     0.191121   -0.158367    0.297504    2.285675   -0.667467    6.627251
                                           0.000000
                              0.230439     0.010278    0.143499    1.233748    0.251538    4.094074   -3.199018
                                           0.000000
                              0.121518    -0.003627    0.443672    0.129317   -1.988796   -3.103355   -0.632888
                                           0.000000
                              0.057951     0.001295    0.472558   -0.603407    0.347602   -0.768728    3.287436
                                           0.000000
                              0.027201    -0.000307    0.110173   -0.533062    0.824150    1.331217   -1.861778
                                           1.000000
    8.1 Ag    1  1s           3.839643     1.000000
    9.1 Ag    1  1s           4.440328     1.000000
   10.1 Ag    1  3d0        177.900125     0.000049
                             57.372112     0.007519
                             29.881432     0.036455
                             13.971757     0.086901
                              6.841152     0.180568
                              3.379983     0.268187
                              1.651827     0.296756
                              0.799251     0.251558
                              0.388057     0.162319
                              0.191191     0.072119
                              0.093358     0.023689
   11.1 Ag    1  3d2+       177.900125     0.000049
                             57.372112     0.007519
                             29.881432     0.036455
                             13.971757     0.086901
                              6.841152     0.180568
                              3.379983     0.268187
                              1.651827     0.296756
                              0.799251     0.251558
                              0.388057     0.162319
                              0.191191     0.072119
                              0.093358     0.023689
   12.1 Ag    1  3d0        177.900125    -0.000053
                             57.372112    -0.008850
                             29.881432    -0.041916
                             13.971757    -0.104691
                              6.841152    -0.219464
                              3.379983    -0.283712
                              1.651827    -0.122127
                              0.799251     0.190123
                              0.388057     0.376598
                              0.191191     0.295122
                              0.093358     0.178252
   13.1 Ag    1  3d2+       177.900125    -0.000053
                             57.372112    -0.008850
                             29.881432    -0.041916
                             13.971757    -0.104691
                              6.841152    -0.219464
                              3.379983    -0.283712
                              1.651827    -0.122127
                              0.799251     0.190123
                              0.388057     0.376598
                              0.191191     0.295122
                              0.093358     0.178252
   14.1 Ag    1  3d0        177.900125     0.000079
                             57.372112     0.011442
                             29.881432     0.053972
                             13.971757     0.141068
                              6.841152     0.302294
                              3.379983     0.236558
                              1.651827    -0.291311
                              0.799251    -0.581758
                              0.388057    -0.024063
                              0.191191     0.389387
                              0.093358     0.430833
   15.1 Ag    1  3d2+       177.900125     0.000079
                             57.372112     0.011442
                             29.881432     0.053972
                             13.971757     0.141068
                              6.841152     0.302294
                              3.379983     0.236558
                              1.651827    -0.291311
                              0.799251    -0.581758
                              0.388057    -0.024063
                              0.191191     0.389387
                              0.093358     0.430833
   16.1 Ag    1  3d0        177.900125    -0.000124
                             57.372112    -0.016602
                             29.881432    -0.077533
                             13.971757    -0.221826
                              6.841152    -0.481658
                              3.379983     0.182447
                              1.651827     0.945626
                              0.799251    -0.334241
                              0.388057    -0.761164
                              0.191191     0.136816
                              0.093358     0.600785
   17.1 Ag    1  3d2+       177.900125    -0.000124
                             57.372112    -0.016602
                             29.881432    -0.077533
                             13.971757    -0.221826
                              6.841152    -0.481658
                              3.379983     0.182447
                              1.651827     0.945626
                              0.799251    -0.334241
                              0.388057    -0.761164
                              0.191191     0.136816
                              0.093358     0.600785
   18.1 Ag    1  3d0        177.900125     0.000143
                             57.372112    -0.024129
                             29.881432    -0.087065
                             13.971757    -0.359465
                              6.841152    -0.490303
                              3.379983     1.318207
                              1.651827    -0.172417
                              0.799251    -1.342487
                              0.388057     1.013614
                              0.191191     0.533432
                              0.093358    -0.866049
   19.1 Ag    1  3d2+       177.900125     0.000143
                             57.372112    -0.024129
                             29.881432    -0.087065
                             13.971757    -0.359465
                              6.841152    -0.490303
                              3.379983     1.318207
                              1.651827    -0.172417
                              0.799251    -1.342487
                              0.388057     1.013614
                              0.191191     0.533432
                              0.093358    -0.866049
   20.1 Ag    1  3d0        177.900125     0.000000
                             57.372112     0.000000
                             29.881432     0.000000
                             13.971757     0.000000
                              6.841152     0.000000
                              3.379983     0.000000
                              1.651827     0.000000
                              0.799251     0.000000
                              0.388057     0.000000
                              0.191191     0.000000
                              0.093358     1.000000
   21.1 Ag    1  3d2+       177.900125     0.000000
                             57.372112     0.000000
                             29.881432     0.000000
                             13.971757     0.000000
                              6.841152     0.000000
                              3.379983     0.000000
                              1.651827     0.000000
                              0.799251     0.000000
                              0.388057     0.000000
                              0.191191     0.000000
                              0.093358     1.000000
   22.1 Ag    1  3d0          6.308547     1.000000
   23.1 Ag    1  3d2+         6.308547     1.000000
   24.1 Ag    1  3d0          6.503304     1.000000
   25.1 Ag    1  3d2+         6.503304     1.000000
   26.1 Ag    1  5g0          0.944121     1.000000
   27.1 Ag    1  5g4+         0.944121     1.000000
   28.1 Ag    1  5g2+         0.944121     1.000000
   29.1 Ag    1  5g0          2.771204     1.000000
   30.1 Ag    1  5g4+         2.771204     1.000000
   31.1 Ag    1  5g2+         2.771204     1.000000
   32.1 Ag    1  5g0          8.134096     1.000000
   33.1 Ag    1  5g4+         8.134096     1.000000
   34.1 Ag    1  5g2+         8.134096     1.000000
   35.1 Ag    1  5g0          5.827115     1.000000
   36.1 Ag    1  5g4+         5.827115     1.000000
   37.1 Ag    1  5g2+         5.827115     1.000000
   38.1 Ag    1  7i6+         4.485842     1.000000
   39.1 Ag    1  7i4+         4.485842     1.000000
   40.1 Ag    1  7i2+         4.485842     1.000000
   41.1 Ag    1  7i0          4.485842     1.000000
   42.1 Ag    1  7i6+         9.183271     1.000000
   43.1 Ag    1  7i4+         9.183271     1.000000
   44.1 Ag    1  7i2+         9.183271     1.000000
   45.1 Ag    1  7i0          9.183271     1.000000
    1.2 B3u   1  2px        148.087630     0.000055    0.000027   -0.000237   -0.000260    0.000080   -0.001985
                                           0.000000
    2.2 B3u                  77.452187    -0.000548   -0.000088    0.001456    0.001071   -0.000101    0.010159
                                           0.000000
    3.2 B3u                  40.915636     0.006979   -0.000773   -0.009745    0.002322   -0.006492   -0.029367
                                           0.000000
    4.2 B3u                  22.575667    -0.023658    0.003345    0.037799   -0.032140    0.083129   -0.066497
                                           0.000000
    5.2 B3u                  13.218268    -0.075682    0.019405    0.052521   -0.134136    0.195393   -0.464883
                                           0.000000
    6.2 B3u                   7.232093     0.027253   -0.014288   -0.035006    0.229062   -0.765806    2.881074
                                           0.000000
    7.2 B3u                   4.054870     0.284778   -0.054527   -0.455577    0.752239   -1.206017   -2.201144
                                           0.000000
                              2.122089     0.427632   -0.116454   -0.368306    0.205535    2.424444   -2.240154
                                           0.000000
                              1.092769     0.309937   -0.060236    0.100392   -1.692910   -0.079387    5.380160
                                           0.000000
                              0.548240     0.088535   -0.023928    1.076652    0.436295   -2.325449   -4.638381
                                           0.000000
                              0.238886     0.006427    0.347869   -0.045326    1.219514    2.129133    2.076353
                                           0.000000
                              0.084667     0.000708    0.522626   -0.703186   -0.945516   -0.733585   -0.211195
                                           0.000000
                              0.038921     0.000186    0.276471    0.004580   -0.062232   -0.180444   -0.408015
                                           1.000000
    8.2 B3u   1  2px          4.337090     1.000000
    9.2 B3u   1  2px         10.973202     1.000000
   10.2 B3u   1  4f1+         0.443146     1.000000
   11.2 B3u   1  4f3+         0.443146     1.000000
   12.2 B3u   1  4f1+         1.263741     1.000000
   13.2 B3u   1  4f3+         1.263741     1.000000
   14.2 B3u   1  4f1+         3.603870     1.000000
   15.2 B3u   1  4f3+         3.603870     1.000000
   16.2 B3u   1  4f1+        10.277329     1.000000
   17.2 B3u   1  4f3+        10.277329     1.000000
   18.2 B3u   1  4f1+         5.165757     1.000000
   19.2 B3u   1  4f3+         5.165757     1.000000
   20.2 B3u   1  6h1+         1.828195     1.000000
   21.2 B3u   1  6h3+         1.828195     1.000000
   22.2 B3u   1  6h5+         1.828195     1.000000
   23.2 B3u   1  6h1+         5.825403     1.000000
   24.2 B3u   1  6h3+         5.825403     1.000000
   25.2 B3u   1  6h5+         5.825403     1.000000
   26.2 B3u   1  6h1+         8.338379     1.000000
   27.2 B3u   1  6h3+         8.338379     1.000000
   28.2 B3u   1  6h5+         8.338379     1.000000
    1.3 B2u   1  2py        148.087630     0.000055    0.000027   -0.000237   -0.000260    0.000080   -0.001985
                                           0.000000
    2.3 B2u                  77.452187    -0.000548   -0.000088    0.001456    0.001071   -0.000101    0.010159
                                           0.000000
    3.3 B2u                  40.915636     0.006979   -0.000773   -0.009745    0.002322   -0.006492   -0.029367
                                           0.000000
    4.3 B2u                  22.575667    -0.023658    0.003345    0.037799   -0.032140    0.083129   -0.066497
                                           0.000000
    5.3 B2u                  13.218268    -0.075682    0.019405    0.052521   -0.134136    0.195393   -0.464883
                                           0.000000
    6.3 B2u                   7.232093     0.027253   -0.014288   -0.035006    0.229062   -0.765806    2.881074
                                           0.000000
    7.3 B2u                   4.054870     0.284778   -0.054527   -0.455577    0.752239   -1.206017   -2.201144
                                           0.000000
                              2.122089     0.427632   -0.116454   -0.368306    0.205535    2.424444   -2.240154
                                           0.000000
                              1.092769     0.309937   -0.060236    0.100392   -1.692910   -0.079387    5.380160
                                           0.000000
                              0.548240     0.088535   -0.023928    1.076652    0.436295   -2.325449   -4.638381
                                           0.000000
                              0.238886     0.006427    0.347869   -0.045326    1.219514    2.129133    2.076353
                                           0.000000
                              0.084667     0.000708    0.522626   -0.703186   -0.945516   -0.733585   -0.211195
                                           0.000000
                              0.038921     0.000186    0.276471    0.004580   -0.062232   -0.180444   -0.408015
                                           1.000000
    8.3 B2u   1  2py          4.337090     1.000000
    9.3 B2u   1  2py         10.973202     1.000000
   10.3 B2u   1  4f1-         0.443146     1.000000
   11.3 B2u   1  4f3-         0.443146     1.000000
   12.3 B2u   1  4f1-         1.263741     1.000000
   13.3 B2u   1  4f3-         1.263741     1.000000
   14.3 B2u   1  4f1-         3.603870     1.000000
   15.3 B2u   1  4f3-         3.603870     1.000000
   16.3 B2u   1  4f1-        10.277329     1.000000
   17.3 B2u   1  4f3-        10.277329     1.000000
   18.3 B2u   1  4f1-         5.165757     1.000000
   19.3 B2u   1  4f3-         5.165757     1.000000
   20.3 B2u   1  6h1-         1.828195     1.000000
   21.3 B2u   1  6h3-         1.828195     1.000000
   22.3 B2u   1  6h5-         1.828195     1.000000
   23.3 B2u   1  6h1-         5.825403     1.000000
   24.3 B2u   1  6h3-         5.825403     1.000000
   25.3 B2u   1  6h5-         5.825403     1.000000
   26.3 B2u   1  6h1-         8.338379     1.000000
   27.3 B2u   1  6h3-         8.338379     1.000000
   28.3 B2u   1  6h5-         8.338379     1.000000
    1.4 B1g   1  3d2-       177.900125     0.000049   -0.000053    0.000079   -0.000124    0.000143    0.000000
    2.4 B1g                  57.372112     0.007519   -0.008850    0.011442   -0.016602   -0.024129    0.000000
    3.4 B1g                  29.881432     0.036455   -0.041916    0.053972   -0.077533   -0.087065    0.000000
    4.4 B1g                  13.971757     0.086901   -0.104691    0.141068   -0.221826   -0.359465    0.000000
    5.4 B1g                   6.841152     0.180568   -0.219464    0.302294   -0.481658   -0.490303    0.000000
    6.4 B1g                   3.379983     0.268187   -0.283712    0.236558    0.182447    1.318207    0.000000
                              1.651827     0.296756   -0.122127   -0.291311    0.945626   -0.172417    0.000000
                              0.799251     0.251558    0.190123   -0.581758   -0.334241   -1.342487    0.000000
                              0.388057     0.162319    0.376598   -0.024063   -0.761164    1.013614    0.000000
                              0.191191     0.072119    0.295122    0.389387    0.136816    0.533432    0.000000
                              0.093358     0.023689    0.178252    0.430833    0.600785   -0.866049    1.000000
    7.4 B1g   1  3d2-         6.308547     1.000000
    8.4 B1g   1  3d2-         6.503304     1.000000
    9.4 B1g   1  5g2-         0.944121     1.000000
   10.4 B1g   1  5g4-         0.944121     1.000000
   11.4 B1g   1  5g2-         2.771204     1.000000
   12.4 B1g   1  5g4-         2.771204     1.000000
   13.4 B1g   1  5g2-         8.134096     1.000000
   14.4 B1g   1  5g4-         8.134096     1.000000
   15.4 B1g   1  5g2-         5.827115     1.000000
   16.4 B1g   1  5g4-         5.827115     1.000000
   17.4 B1g   1  7i2-         4.485842     1.000000
   18.4 B1g   1  7i6-         4.485842     1.000000
   19.4 B1g   1  7i4-         4.485842     1.000000
   20.4 B1g   1  7i2-         9.183271     1.000000
   21.4 B1g   1  7i6-         9.183271     1.000000
   22.4 B1g   1  7i4-         9.183271     1.000000
    1.5 B1u   1  2pz        148.087630     0.000055    0.000027   -0.000237   -0.000260    0.000080   -0.001985
                                           0.000000
    2.5 B1u                  77.452187    -0.000548   -0.000088    0.001456    0.001071   -0.000101    0.010159
                                           0.000000
    3.5 B1u                  40.915636     0.006979   -0.000773   -0.009745    0.002322   -0.006492   -0.029367
                                           0.000000
    4.5 B1u                  22.575667    -0.023658    0.003345    0.037799   -0.032140    0.083129   -0.066497
                                           0.000000
    5.5 B1u                  13.218268    -0.075682    0.019405    0.052521   -0.134136    0.195393   -0.464883
                                           0.000000
    6.5 B1u                   7.232093     0.027253   -0.014288   -0.035006    0.229062   -0.765806    2.881074
                                           0.000000
    7.5 B1u                   4.054870     0.284778   -0.054527   -0.455577    0.752239   -1.206017   -2.201144
                                           0.000000
                              2.122089     0.427632   -0.116454   -0.368306    0.205535    2.424444   -2.240154
                                           0.000000
                              1.092769     0.309937   -0.060236    0.100392   -1.692910   -0.079387    5.380160
                                           0.000000
                              0.548240     0.088535   -0.023928    1.076652    0.436295   -2.325449   -4.638381
                                           0.000000
                              0.238886     0.006427    0.347869   -0.045326    1.219514    2.129133    2.076353
                                           0.000000
                              0.084667     0.000708    0.522626   -0.703186   -0.945516   -0.733585   -0.211195
                                           0.000000
                              0.038921     0.000186    0.276471    0.004580   -0.062232   -0.180444   -0.408015
                                           1.000000
    8.5 B1u   1  2pz          4.337090     1.000000
    9.5 B1u   1  2pz         10.973202     1.000000
   10.5 B1u   1  4f0          0.443146     1.000000
   11.5 B1u   1  4f2+         0.443146     1.000000
   12.5 B1u   1  4f0          1.263741     1.000000
   13.5 B1u   1  4f2+         1.263741     1.000000
   14.5 B1u   1  4f0          3.603870     1.000000
   15.5 B1u   1  4f2+         3.603870     1.000000
   16.5 B1u   1  4f0         10.277329     1.000000
   17.5 B1u   1  4f2+        10.277329     1.000000
   18.5 B1u   1  4f0          5.165757     1.000000
   19.5 B1u   1  4f2+         5.165757     1.000000
   20.5 B1u   1  6h2+         1.828195     1.000000
   21.5 B1u   1  6h4+         1.828195     1.000000
   22.5 B1u   1  6h0          1.828195     1.000000
   23.5 B1u   1  6h2+         5.825403     1.000000
   24.5 B1u   1  6h4+         5.825403     1.000000
   25.5 B1u   1  6h0          5.825403     1.000000
   26.5 B1u   1  6h2+         8.338379     1.000000
   27.5 B1u   1  6h4+         8.338379     1.000000
   28.5 B1u   1  6h0          8.338379     1.000000
    1.6 B2g   1  3d1+       177.900125     0.000049   -0.000053    0.000079   -0.000124    0.000143    0.000000
    2.6 B2g                  57.372112     0.007519   -0.008850    0.011442   -0.016602   -0.024129    0.000000
    3.6 B2g                  29.881432     0.036455   -0.041916    0.053972   -0.077533   -0.087065    0.000000
    4.6 B2g                  13.971757     0.086901   -0.104691    0.141068   -0.221826   -0.359465    0.000000
    5.6 B2g                   6.841152     0.180568   -0.219464    0.302294   -0.481658   -0.490303    0.000000
    6.6 B2g                   3.379983     0.268187   -0.283712    0.236558    0.182447    1.318207    0.000000
                              1.651827     0.296756   -0.122127   -0.291311    0.945626   -0.172417    0.000000
                              0.799251     0.251558    0.190123   -0.581758   -0.334241   -1.342487    0.000000
                              0.388057     0.162319    0.376598   -0.024063   -0.761164    1.013614    0.000000
                              0.191191     0.072119    0.295122    0.389387    0.136816    0.533432    0.000000
                              0.093358     0.023689    0.178252    0.430833    0.600785   -0.866049    1.000000
    7.6 B2g   1  3d1+         6.308547     1.000000
    8.6 B2g   1  3d1+         6.503304     1.000000
    9.6 B2g   1  5g1+         0.944121     1.000000
   10.6 B2g   1  5g3+         0.944121     1.000000
   11.6 B2g   1  5g1+         2.771204     1.000000
   12.6 B2g   1  5g3+         2.771204     1.000000
   13.6 B2g   1  5g1+         8.134096     1.000000
   14.6 B2g   1  5g3+         8.134096     1.000000
   15.6 B2g   1  5g1+         5.827115     1.000000
   16.6 B2g   1  5g3+         5.827115     1.000000
   17.6 B2g   1  7i5+         4.485842     1.000000
   18.6 B2g   1  7i3+         4.485842     1.000000
   19.6 B2g   1  7i1+         4.485842     1.000000
   20.6 B2g   1  7i5+         9.183271     1.000000
   21.6 B2g   1  7i3+         9.183271     1.000000
   22.6 B2g   1  7i1+         9.183271     1.000000
    1.7 B3g   1  3d1-       177.900125     0.000049   -0.000053    0.000079   -0.000124    0.000143    0.000000
    2.7 B3g                  57.372112     0.007519   -0.008850    0.011442   -0.016602   -0.024129    0.000000
    3.7 B3g                  29.881432     0.036455   -0.041916    0.053972   -0.077533   -0.087065    0.000000
    4.7 B3g                  13.971757     0.086901   -0.104691    0.141068   -0.221826   -0.359465    0.000000
    5.7 B3g                   6.841152     0.180568   -0.219464    0.302294   -0.481658   -0.490303    0.000000
    6.7 B3g                   3.379983     0.268187   -0.283712    0.236558    0.182447    1.318207    0.000000
                              1.651827     0.296756   -0.122127   -0.291311    0.945626   -0.172417    0.000000
                              0.799251     0.251558    0.190123   -0.581758   -0.334241   -1.342487    0.000000
                              0.388057     0.162319    0.376598   -0.024063   -0.761164    1.013614    0.000000
                              0.191191     0.072119    0.295122    0.389387    0.136816    0.533432    0.000000
                              0.093358     0.023689    0.178252    0.430833    0.600785   -0.866049    1.000000
    7.7 B3g   1  3d1-         6.308547     1.000000
    8.7 B3g   1  3d1-         6.503304     1.000000
    9.7 B3g   1  5g1-         0.944121     1.000000
   10.7 B3g   1  5g3-         0.944121     1.000000
   11.7 B3g   1  5g1-         2.771204     1.000000
   12.7 B3g   1  5g3-         2.771204     1.000000
   13.7 B3g   1  5g1-         8.134096     1.000000
   14.7 B3g   1  5g3-         8.134096     1.000000
   15.7 B3g   1  5g1-         5.827115     1.000000
   16.7 B3g   1  5g3-         5.827115     1.000000
   17.7 B3g   1  7i5-         4.485842     1.000000
   18.7 B3g   1  7i3-         4.485842     1.000000
   19.7 B3g   1  7i1-         4.485842     1.000000
   20.7 B3g   1  7i5-         9.183271     1.000000
   21.7 B3g   1  7i3-         9.183271     1.000000
   22.7 B3g   1  7i1-         9.183271     1.000000
    1.8 Au    1  4f2-         0.443146     1.000000
    2.8 Au    1  4f2-         1.263741     1.000000
    3.8 Au    1  4f2-         3.603870     1.000000
    4.8 Au    1  4f2-        10.277329     1.000000
    5.8 Au    1  4f2-         5.165757     1.000000
    6.8 Au    1  6h4-         1.828195     1.000000
    7.8 Au    1  6h2-         1.828195     1.000000
    8.8 Au    1  6h4-         5.825403     1.000000
    9.8 Au    1  6h2-         5.825403     1.000000
   10.8 Au    1  6h4-         8.338379     1.000000
   11.8 Au    1  6h2-         8.338379     1.000000

 NUCLEAR CHARGE:                   18
 NUMBER OF PRIMITIVE AOS:         367
 NUMBER OF SYMMETRY AOS:          255
 NUMBER OF CONTRACTIONS:          206   (  45Ag  +  28B3u +  28B2u +  22B1g +  28B1u +  22B2g +  22B3g +  11Au  )
 NUMBER OF CORE ORBITALS:           4   (   1Ag  +   1B3u +   1B2u +   0B1g +   1B1u +   0B2g +   0B3g +   0Au  )
 NUMBER OF VALENCE ORBITALS:        6   (   3Ag  +   0B3u +   0B2u +   1B1g +   0B1u +   1B2g +   1B3g +   0Au  )


 NUCLEAR REPULSION ENERGY    0.00000000

 EXTRA SYMMETRY OF AOS IN SYMMETRY 1:   1 1 1 1 1 1 1 1 1 2   3 2 3 2 3 2 3 2 3 2   3 2 3 2 3 4 5 6 4 5   6 4 5 6 4 5 6 7 8 9
                                       10 7 8 910
 EXTRA SYMMETRY OF AOS IN SYMMETRY 2:   1 1 1 1 1 1 1 1 1 2   3 2 3 2 3 2 3 2 3 4   5 6 4 5 6 4 5 6
 EXTRA SYMMETRY OF AOS IN SYMMETRY 3:   1 1 1 1 1 1 1 1 1 2   3 2 3 2 3 2 3 2 3 4   5 6 4 5 6 4 5 6
 EXTRA SYMMETRY OF AOS IN SYMMETRY 4:   1 1 1 1 1 1 1 1 2 3   2 3 2 3 2 3 4 5 6 4   5 6
 EXTRA SYMMETRY OF AOS IN SYMMETRY 5:   1 1 1 1 1 1 1 1 1 2   3 2 3 2 3 2 3 2 3 4   5 6 4 5 6 4 5 6
 EXTRA SYMMETRY OF AOS IN SYMMETRY 6:   1 1 1 1 1 1 1 1 2 3   2 3 2 3 2 3 4 5 6 4   5 6
 EXTRA SYMMETRY OF AOS IN SYMMETRY 7:   1 1 1 1 1 1 1 1 2 3   2 3 2 3 2 3 4 5 6 4   5 6
 EXTRA SYMMETRY OF AOS IN SYMMETRY 8:   1 1 1 1 1 2 3 2 3 2   3

 Eigenvalues of metric

         1 0.275E-04 0.290E-04 0.290E-04 0.735E-03 0.573E-02 0.573E-02 0.277E-01 0.277E-01
         2 0.376E-03 0.139E-01 0.139E-01 0.457E-01 0.805E-01 0.805E-01 0.805E-01 0.116E+00
         3 0.376E-03 0.139E-01 0.139E-01 0.457E-01 0.805E-01 0.805E-01 0.805E-01 0.116E+00
         4 0.290E-04 0.573E-02 0.277E-01 0.286E-01 0.286E-01 0.372E+00 0.372E+00 0.376E+00
         5 0.376E-03 0.139E-01 0.139E-01 0.457E-01 0.805E-01 0.805E-01 0.805E-01 0.116E+00
         6 0.290E-04 0.573E-02 0.277E-01 0.286E-01 0.286E-01 0.372E+00 0.372E+00 0.376E+00
         7 0.290E-04 0.573E-02 0.277E-01 0.286E-01 0.286E-01 0.372E+00 0.372E+00 0.376E+00
         8 0.139E-01 0.805E-01 0.805E-01 0.244E+00 0.560E+00 0.880E+00 0.880E+00 0.140E+01


 Contracted 2-electron integrals neglected if value below      1.0D-12
 AO integral compression algorithm  1   Integral accuracy      1.0D-12

     181.404 MB (compressed) written to integral file ( 51.0%)


 NUMBER OF SORTED TWO-ELECTRON INTEGRALS:   29098917.     BUFFER LENGTH:  32768
 NUMBER OF SEGMENTS:   2  SEGMENT LENGTH:   15999969      RECORD LENGTH: 524288

 Memory used in sort:      16.56 MW

 SORT1 READ    44478058. AND WROTE    18923596. INTEGRALS IN     55 RECORDS. CPU TIME:     1.83 SEC, REAL TIME:     3.46 SEC
 SORT2 READ    18923596. AND WROTE    29098917. INTEGRALS IN    692 RECORDS. CPU TIME:     0.79 SEC, REAL TIME:     1.55 SEC

 FILE SIZES:   FILE 1:   201.5 MBYTE,  FILE 4:   230.7 MBYTE,   TOTAL:    432.2 MBYTE

 OPERATOR DM      FOR CENTER  0  COORDINATES:    0.000000    0.000000    0.000000
 OPERATOR EKIN    FOR CENTER  0  COORDINATES:    0.000000    0.000000    0.000000
 OPERATOR POT     FOR CENTER  0  COORDINATES:    0.000000    0.000000    0.000000


 **********************************************************************************************************************************
 DATASETS  * FILE   NREC   LENGTH (MB)   RECORD NAMES
              1      20      136.32       500      610      700      900      950      970     1000      129      960     1100   
                                          VAR    BASINP    GEOM    SYMINP    ZMAT    AOBASIS   BASIS     P2S    ABASIS      S 
                                         1400     1410     1420     1200     1210     1080     1600     1650     1300     1700   
                                         EKIN       V       ECP      H0       H01     AOSYM     SMH    MOLCAS    ERIS     OPER   

 PROGRAMS   *        TOTAL       INT
 CPU TIMES  *        13.65     13.51
 REAL TIME  *        19.69 SEC
 DISK USED  *       432.55 MB      
 **********************************************************************************************************************************


 PROGRAM * RHF-SCF (OPEN SHELL)       Authors: W. Meyer, H.-J. Werner


 NUMBER OF ELECTRONS:      10+    8-    SPACE SYMMETRY=4    SPIN SYMMETRY: Triplet 
 CONVERGENCE THRESHOLDS:    1.00E-05 (Density)    1.00E-07 (Energy)
 MAX. NUMBER OF ITERATIONS:       60
 INTERPOLATION TYPE:            DIIS
 INTERPOLATION STEPS:              2 (START)      1 (STEP)
 LEVEL SHIFTS:                 -0.60 (CLOSED) -0.30 (OPEN) 


 Singly occupied orbitals:      4.1       1.4
 
 Extra symmetries of mos in symmetry 1:   1   3   2   1

   Atom=NI basis=ECP10MDF_GUESS    lmin=0  lmax=2

 Orbital guess generated from atomic densities. Full valence occupancy:    4   1   1   1   1   1   1   0


 Molecular orbital dump at record        4202.2

 ITERATION    DDIFF          GRAD             ENERGY        2-EL.EN.            DIPOLE MOMENTS         DIIS   ORB.
    1      0.000D+00      0.000D+00      -167.51353209    242.139088    0.00000    0.00000    0.00000    0    start
    2      0.000D+00      0.906D-01      -167.87932928    289.483666    0.00000    0.00000    0.00000    1    diag,B
    3      0.185D-01      0.861D-01      -168.40730989    272.757673    0.00000    0.00000    0.00000    2    diag,B
    4      0.645D-02      0.100D-01      -168.41840193    271.298876    0.00000    0.00000    0.00000    3    diag,B
    5      0.234D-02      0.157D-02      -168.42004600    271.509670    0.00000    0.00000    0.00000    4    diag,B
    6      0.308D-02      0.418D-03      -168.42024964    271.650855    0.00000    0.00000    0.00000    5    diag,B
    7      0.266D-02      0.955D-04      -168.42026034    271.664115    0.00000    0.00000    0.00000    6    fixocc
    8      0.114D-02      0.217D-04      -168.42026105    271.666861    0.00000    0.00000    0.00000    7    diag,B
    9      0.202D-03      0.878D-05      -168.42026129    271.669440    0.00000    0.00000    0.00000    8    diag,B
   10      0.103D-03      0.302D-05      -168.42026133    271.670104    0.00000    0.00000    0.00000    9    orth
   11      0.109D-04      0.198D-05      -168.42026136    271.670543    0.00000    0.00000    0.00000    9    diag,B
   12      0.856D-05      0.128D-05      -168.42026136    271.670459    0.00000    0.00000    0.00000    0    orth

 Final alpha occupancy:   4   1   1   1   1   1   1   0
 Final beta  occupancy:   3   1   1   0   1   1   1   0

 !RHF STATE 1.4 Energy               -168.420261363892
 Nuclear energy                         0.00000000
 One-electron energy                 -304.25549084
 Two-electron energy                  135.83522948
 Virial quotient                       -1.55169957
 !RHF STATE 1.4 Dipole moment           0.00000000     0.00000000     0.00000000
 Dipole moment /Debye                   0.00000000     0.00000000     0.00000000
 

 !RHF expec          <1.4|EKIN|1.4>   108.539219995296
 
 !RHF expec           <1.4|POT|1.4>   -23.837892275804

 ELECTRON ORBITALS
 =================


   Orb  Occ    Energy  Couls-En    Coefficients

                                   1 1s      1 1s      1 1s      1 1s      1 1s      1 1s      1 1s      1 1s      1 1s      1 3d0  
                                   1 3d2+    1 3d0     1 3d2+    1 3d0     1 3d2+    1 3d0     1 3d2+    1 3d0     1 3d2+    1 3d0  
                                   1 3d2+    1 3d0     1 3d2+    1 3d0     1 3d2+    1 5g0     1 5g4+    1 5g2+    1 5g0     1 5g4+ 
                                   1 5g2+    1 5g0     1 5g4+    1 5g2+    1 5g0     1 5g4+    1 5g2+    1 7i6+    1 7i4+    1 7i2+ 
                                   1 7i0     1 7i6+    1 7i4+    1 7i2+    1 7i0  

   1.1   2    -4.8255  -26.1666  0.999595  0.003136  0.006685  0.002878 -0.000717  0.000623  0.002859 -0.000389  0.000275 -0.005229
                                -0.000000  0.002272 -0.000000 -0.000049 -0.000000 -0.000560 -0.000000 -0.000309  0.000000 -0.000197
                                 0.000000 -0.001472 -0.000000  0.001320  0.000000 -0.000091  0.000548  0.000000 -0.000072  0.000469
                                -0.000000 -0.000047  0.000290 -0.000000  0.000032 -0.000183  0.000000  0.000000  0.000000  0.000000
                                -0.000000 -0.000000  0.000000 -0.000000 -0.000000

   2.1   2    -0.4760  -15.9643 -0.000000  0.000000 -0.000000  0.000000 -0.000000  0.000000 -0.000000  0.000000 -0.000000  0.000000
                                 1.001094 -0.000000  0.030900 -0.000000  0.010033 -0.000000  0.001008  0.000000  0.000010  0.000000
                                -0.005770 -0.000000  0.001518  0.000000 -0.001310 -0.000000 -0.000000 -0.001427  0.000000  0.000000
                                -0.000935  0.000000  0.000000 -0.000274 -0.000000 -0.000000 -0.000052 -0.000301 -0.000000  0.000015
                                -0.000000 -0.000050 -0.000000  0.000002  0.000000

   3.1   2    -0.4186  -15.7400  0.005366  0.002775 -0.001170  0.000528  0.000033 -0.000052 -0.000598  0.000096 -0.000079  1.000039
                                -0.000000  0.051215 -0.000000  0.018311 -0.000000  0.002089 -0.000000 -0.000304  0.000000 -0.003756
                                 0.000000  0.002557 -0.000000 -0.002487  0.000000 -0.002190 -0.000487  0.000000 -0.001392 -0.000212
                                -0.000000 -0.000400 -0.000093  0.000000 -0.000088  0.000004  0.000000  0.000000 -0.000128  0.000000
                                 0.000051  0.000000 -0.000020 -0.000000  0.000008

   4.1   +    -0.2422   -6.5271 -0.008659  0.970792 -0.097809  0.020662  0.003328 -0.000578  0.027505 -0.004884  0.003771 -0.000914
                                -0.000000 -0.011843 -0.000000 -0.003715 -0.000000 -0.000074 -0.000000 -0.000014  0.000000 -0.003965
                                 0.000000  0.001836 -0.000000 -0.001695  0.000000  0.000217 -0.001094 -0.000000 -0.000046  0.000187
                                 0.000000 -0.000019  0.000077  0.000000 -0.000001  0.000025 -0.000000  0.000000 -0.000000 -0.000000
                                 0.000000 -0.000000 -0.000001  0.000000  0.000000

                                   1 2px     1 2px     1 2px     1 2px     1 2px     1 2px     1 2px     1 2px     1 2px     1 4f1+ 
                                   1 4f3+    1 4f1+    1 4f3+    1 4f1+    1 4f3+    1 4f1+    1 4f3+    1 4f1+    1 4f3+    1 6h1+ 
                                   1 6h3+    1 6h5+    1 6h1+    1 6h3+    1 6h5+    1 6h1+    1 6h3+    1 6h5+ 

   1.2   2    -3.1087  -22.5464  0.998762  0.024655  0.020737 -0.000648 -0.001095  0.000070 -0.007277  0.002292 -0.000546  0.000292
                                 0.001379 -0.000760  0.003027 -0.001180  0.002386 -0.000125  0.000768  0.000053 -0.000202  0.000011
                                 0.000006 -0.000065  0.000029  0.000028 -0.000198 -0.000005 -0.000005  0.000034

                                   1 2py     1 2py     1 2py     1 2py     1 2py     1 2py     1 2py     1 2py     1 2py     1 4f1- 
                                   1 4f3-    1 4f1-    1 4f3-    1 4f1-    1 4f3-    1 4f1-    1 4f3-    1 4f1-    1 4f3-    1 6h1- 
                                   1 6h3-    1 6h5-    1 6h1-    1 6h3-    1 6h5-    1 6h1-    1 6h3-    1 6h5- 

   1.3   2    -3.1087  -22.5464  0.998762  0.024655  0.020737 -0.000648 -0.001095  0.000070 -0.007277  0.002292 -0.000546  0.000292
                                -0.001379 -0.000760 -0.003027 -0.001180 -0.002386 -0.000125 -0.000768  0.000053  0.000202  0.000011
                                -0.000006 -0.000065  0.000029 -0.000028 -0.000198 -0.000005  0.000005  0.000034

                                   1 3d2-    1 3d2-    1 3d2-    1 3d2-    1 3d2-    1 3d2-    1 3d2-    1 3d2-    1 5g2-    1 5g4- 
                                   1 5g2-    1 5g4-    1 5g2-    1 5g4-    1 5g2-    1 5g4-    1 7i2-    1 7i6-    1 7i4-    1 7i2- 
                                   1 7i6-    1 7i4- 

   1.4   +    -0.5327  -16.1319  1.001086  0.016546  0.005473  0.001162  0.000306 -0.005892  0.001403 -0.000943 -0.002362 -0.000000
                                -0.001816  0.000000 -0.000495  0.000000 -0.000132 -0.000000  0.000088 -0.000599 -0.000000  0.000014
                                -0.000103  0.000000

                                   1 2pz     1 2pz     1 2pz     1 2pz     1 2pz     1 2pz     1 2pz     1 2pz     1 2pz     1 4f0  
                                   1 4f2+    1 4f0     1 4f2+    1 4f0     1 4f2+    1 4f0     1 4f2+    1 4f0     1 4f2+    1 6h2+ 
                                   1 6h4+    1 6h0     1 6h2+    1 6h4+    1 6h0     1 6h2+    1 6h4+    1 6h0  

   1.5   2    -3.1012  -22.5278  0.999186  0.027541  0.022129  0.000030 -0.001437  0.000148 -0.008076  0.001683 -0.000343 -0.000079
                                -0.000000 -0.001892  0.000000 -0.002195 -0.000000 -0.000396 -0.000000  0.000127  0.000000  0.000000
                                -0.000043  0.000017 -0.000000 -0.000126  0.000038  0.000000  0.000022 -0.000006

                                   1 3d1+    1 3d1+    1 3d1+    1 3d1+    1 3d1+    1 3d1+    1 3d1+    1 3d1+    1 5g1+    1 5g3+ 
                                   1 5g1+    1 5g3+    1 5g1+    1 5g3+    1 5g1+    1 5g3+    1 7i5+    1 7i3+    1 7i1+    1 7i5+ 
                                   1 7i3+    1 7i1+ 

   1.6   2    -0.4331  -15.7997  1.000448  0.045967  0.016165  0.001808 -0.000228 -0.004555  0.002373 -0.002266 -0.001946  0.000302
                                -0.001259  0.000131 -0.000360  0.000058 -0.000080 -0.000003 -0.000174  0.000041  0.000045 -0.000028
                                 0.000007  0.000007

                                   1 3d1-    1 3d1-    1 3d1-    1 3d1-    1 3d1-    1 3d1-    1 3d1-    1 3d1-    1 5g1-    1 5g3- 
                                   1 5g1-    1 5g3-    1 5g1-    1 5g3-    1 5g1-    1 5g3-    1 7i5-    1 7i3-    1 7i1-    1 7i5- 
                                   1 7i3-    1 7i1- 

   1.7   2    -0.4331  -15.7997  1.000448  0.045967  0.016165  0.001808 -0.000228 -0.004555  0.002373 -0.002266 -0.001946 -0.000302
                                -0.001259 -0.000131 -0.000360 -0.000058 -0.000080  0.000003 -0.000174 -0.000041  0.000045 -0.000028
                                -0.000007  0.000007

 HOMO      4.1    -0.242221 =      -6.5912eV
 LUMO      2.2     0.043899 =       1.1946eV
 LUMO-HOMO         0.286121 =       7.7857eV


 **********************************************************************************************************************************
 DATASETS  * FILE   NREC   LENGTH (MB)   RECORD NAMES
              1      20      136.32       500      610      700      900      950      970     1000      129      960     1100   
                                          VAR    BASINP    GEOM    SYMINP    ZMAT    AOBASIS   BASIS     P2S    ABASIS      S 
                                         1400     1410     1420     1200     1210     1080     1600     1650     1300     1700   
                                         EKIN       V       ECP      H0       H01     AOSYM     SMH    MOLCAS    ERIS     OPER   

              2       4        2.96       700     1000      520     4202   
                                         GEOM     BASIS   MCVARS     RHF  

 PROGRAMS   *        TOTAL        HF       INT
 CPU TIMES  *        14.90      1.25     13.51
 REAL TIME  *        21.54 SEC
 DISK USED  *       432.55 MB      
 **********************************************************************************************************************************
 SETTING SCF(I)         =      -168.42026136  AU                              
 SETTING _CC_NORM_MAX   =         2.00000000                                  


 PROGRAM * CI (Multireference internally contracted CI)     Authors: H.-J. Werner, P.J. Knowles, 1987


 Convergence thresholds:  THRVAR = 1.00D-08  THRDEN = 1.00D-06

 Number of optimized states:  1  Roots:   1
 Number of reference states:  1  Roots:   1

 Reference symmetry:                   4   Triplet 
 Number of electrons:                 18
 Maximum number of shells:             3
 Maximum number of spin couplings:     9

 Reference space:        1 conf        1 CSFs
 N elec internal:       45 conf       45 CSFs
 N-1 el internal:       98 conf      226 CSFs
 N-2 el internal:       53 conf      325 CSFs

 Number of electrons in valence space:                     18
 Maximum number of open shell orbitals in reference space:  2
 Maximum number of open shell orbitals in internal spaces:  6


 Number of closed-shell orbitals:   8 (   3   1   1   0   1   1   1   0 )
 Number of active  orbitals:        2 (   1   0   0   1   0   0   0   0 )
 Number of external orbitals:     196 (  41  27  27  21  27  21  21  11 )

 Molecular orbitals read from record     4202.2  Type=RHF/CANONICAL (state 1.4)

 Integral transformation finished. Total CPU:   0.34 sec, npass=  1  Memory used:   0.40 MW

 Number of p-space configurations:   1

 Reference wavefunction optimized for reference space (refopt=1)

 State     Reference Energy 
   1        -168.42026136

 Number of blocks in overlap matrix:    97   Smallest eigenvalue:  0.10D+01
 Number of N-2 electron functions:      97
 Number of N-1 electron functions:     226

 Number of internal configurations:                    6
 Number of singly external configurations:          5668
 Number of doubly external configurations:        237288
 Total number of contracted configurations:       242962
 Total number of uncontracted configurations:     795306

 Diagonal Coupling coefficients finished.               Storage:   18397 words, CPU-Time:      0.00 seconds.
 Energy denominators for pairs finished in 1 passes.    Storage:  122893 words, CPU-time:      0.00 seconds.

  ITER. STATE  ROOT     SQ.NORM     CORR.ENERGY   TOTAL ENERGY   ENERGY CHANGE       DEN1      VAR(S)    VAR(P)      TIME
    1     1     1     1.00000000     0.00000000  -168.42026136     0.00000000    -1.04208851  0.91D-02  0.13D+00     0.39
    2     1     1     1.07997548    -0.80270450  -169.22296587    -0.80270450    -0.04109207  0.26D-02  0.50D-02     1.22
    3     1     1     1.07317289    -0.83599931  -169.25626067    -0.03329481    -0.00121830  0.23D-03  0.91D-04     2.04
    4     1     1     1.07277867    -0.83699989  -169.25726125    -0.00100058    -0.00006007  0.79D-05  0.55D-05     2.88
    5     1     1     1.07285859    -0.83705670  -169.25731806    -0.00005681    -0.00000290  0.18D-06  0.31D-06     3.71
    6     1     1     1.07294032    -0.83705967  -169.25732104    -0.00000298    -0.00000009  0.62D-08  0.12D-07     4.55
    7     1     1     1.07294495    -0.83705977  -169.25732113    -0.00000010    -0.00000000  0.48D-09  0.51D-09     5.37


 =====================================
 Analysis of CPU times by interactions
 =====================================

       I      S      P

 I   0.0%
 S   0.2%   6.1%
 P   0.0%   2.0%  16.2%

 Initialization:   7.1%
 Other:           68.3%

 Total CPU:        5.4 seconds
 =====================================



 Reference coefficients greater than 0.0500000
 =============================================
 222/22/222           0.9654082



 RESULTS FOR STATE 1.4
 =====================

 Coefficient of reference function:   C(0) = 0.96540822 (fixed)   0.96540822 (relaxed)

 Energy contributions of configuration classes

 CLASS          SQ.NORM        ECORR1        ECORR2
 +++++++++++++++++++++++++++++++++++++++++++++++++++
 Internals    0.00000132    0.00000001   -0.00000102
 Singles      0.00650671   -0.04457607   -0.04662043
 Pairs        0.06643834   -0.79248371   -0.79043832
 Total        1.07294637   -0.83705977   -0.83705977
 +++++++++++++++++++++++++++++++++++++++++++++++++++


 Reference energy                    -168.42026136
 Nuclear energy                         0.00000000
 Kinetic energy                       109.13075793
 One electron energy                 -303.24254747
 Two electron energy                  133.98522634
 Virial quotient                       -1.55095891
 Correlation energy                    -0.83705977
 !CI(SD) STATE 1.4 Energy            -169.257321130681

 Properties without orbital relaxation:

 !CI(SD) STATE 1.4 Dipole moment        0.00000000     0.00000000     0.00000000
 Dipole moment /Debye                   0.00000000     0.00000000     0.00000000

 Cluster corrected energies          -169.31838160 (Davidson, fixed reference)
 Cluster corrected energies          -169.31838160 (Davidson, relaxed reference)

 Cluster corrected energies          -169.31380448 (Pople, fixed reference)
 Cluster corrected energies          -169.31380448 (Pople, relaxed reference)

 

 !CI(SD) expec       <1.4|EKIN|1.4>   109.130757928300
 
 !CI(SD) expec        <1.4|POT|1.4>   -23.817931191773


 **********************************************************************************************************************************
 DATASETS  * FILE   NREC   LENGTH (MB)   RECORD NAMES
              1      21      140.16       500      610      700      900      950      970     1000      129      960     1100   
                                          VAR    BASINP    GEOM    SYMINP    ZMAT    AOBASIS   BASIS     P2S    ABASIS      S 
                                         1400     1410     1420     1200     1210     1080     1600     1650     1300     1700   
                                         EKIN       V       ECP      H0       H01     AOSYM     SMH    MOLCAS    ERIS     OPER   
                                         1380   
                                         JKOP   

              2       4        2.96       700     1000      520     4202   
                                         GEOM     BASIS   MCVARS     RHF  

 PROGRAMS   *        TOTAL        CI        HF       INT
 CPU TIMES  *        20.34      5.44      1.25     13.51
 REAL TIME  *        30.24 SEC
 DISK USED  *       432.55 MB      
 **********************************************************************************************************************************
 SETTING POSTHF(I)      =      -169.25732113  AU                              
                                                                                                                                                                                                                                                                

         SCF            POSTHF        EKIN          POT
    -168.4202614   -169.2573211   109.1307579   -23.81793119
                                                  

 CI/USERDEF energy=   -169.257321130681

        CI              HF-SCF  
   -169.25732113   -168.42026136
 **********************************************************************************************************************************
 Variable memory released
