
 Primary working directories    : /global/cscratch1/sd/aannabe
 Secondary working directories  : /global/cscratch1/sd/aannabe
 Wavefunction directory         : /global/homes/a/aannabe/wfu/
 Main file repository           : /global/cscratch1/sd/aannabe/

 SHA1      : 2873118e99aab1bc19f5b6fc1784693c06d15c95
 NAME      : 2015.1.8
 ARCHNAME  : linux/x86_64
 FC        : /opt/cray/pe/craype/2.5.5/bin/ftn
 BLASLIB   : -Wl,-_start-group /opt/intel/compilers_and_libraries_2016.3.210/linux/mkl/lib/intel64/libmkl_intel_ilp64.a /opt/intel/compilers_and_libraries_2016.3.210/linux/mkl/lib/intel64/libmkl_intel_thread.a /opt/intel/compilers_and_libraries_2016.3.210/linux/mkl/lib/intel64/libmkl_core.a -Wl,-_end-group
 id        : lbl

 Nodes     nprocs
 nid00446     1

 Using customized tuning parameters: mindgm=8; mindgv=16; mindgc=4; mindgr=1; noblas=0; minvec=7
 default implementation of scratch files=df  

 ***,Zn
 memory,512,m
 gthresh,twoint=1.e-12
 
 gprint,basis,orbitals
 gexpec,ekin,pot
 
 angstrom
 geometry={
 1                                                                               ! Number of atoms
 Zn 0.0 0.0 0.0
 }
 
 basis={
 Including file /global/homes/a/aannabe/docs/totals/pps/Zn.pp
 Including file /global/homes/a/aannabe/docs/totals/basis/aug-cc-pVnZ/Zn_5z.basis
 }
 
 {hf
 wf,20,1,0
 occ,4,1,1,1,1,1,1,0
 }
 scf(i)=energy
 
 _CC_NORM_MAX=2.0
 {ci
 maxit,100
 core
 }
 posthf(i)=energy
 
 table,scf,posthf,ekin,pot
 save,5.csv,new
 
 

 Variables initialized (889), CPU time= 0.00 sec
 Commands  initialized (702), CPU time= 0.01 sec, 572 directives.
 Default parameters read. Elapsed time= 0.28 sec

 Checking input...
 Passed
1


                                         ***  PROGRAM SYSTEM MOLPRO  ***
                                       Copyright, TTI GmbH Stuttgart, 2015
                                    Version 2015.1 linked Sep  7 2016 23:09:38


 **********************************************************************************************************************************
 LABEL *   Zn                                                                            
  64 bit serial version                                                                  DATE: 12-Jun-18          TIME: 13:46:54  
 **********************************************************************************************************************************

 SHA1:             2873118e99aab1bc19f5b6fc1784693c06d15c95
 **********************************************************************************************************************************

 THRESHOLDS:

 ZERO    =  1.00D-12  ONEINT  =  1.00D-12  TWOINT  =  1.00D-12  PREFAC  =  1.00D-14  LOCALI  =  1.00D-09  EORDER  =  1.00D-04
 ENERGY  =  0.00D+00  ETEST   =  0.00D+00  EDENS   =  0.00D+00  THRDEDEF=  1.00D-06  GRADIENT=  1.00D-02  STEP    =  1.00D-03
 ORBITAL =  1.00D-05  CIVEC   =  1.00D-05  COEFF   =  1.00D-04  PRINTCI =  5.00D-02  PUNCHCI =  9.90D+01  OPTGRAD =  3.00D-04
 OPTENERG=  1.00D-06  OPTSTEP =  3.00D-04  THRGRAD =  1.00D-10  COMPRESS=  1.00D-11  VARMIN  =  1.00D-07  VARMAX  =  1.00D-03
 THRDOUB =  0.00D+00  THRDIV  =  1.00D-05  THRRED  =  1.00D-07  THRPSP  =  1.00D+00  THRDC   =  1.00D-10  THRCS   =  1.00D-10
 THRNRM  =  1.00D-08  THREQ   =  0.00D+00  THRDE   =  1.00D+00  THRREF  =  1.00D-05  SPARFAC =  1.00D+00  THRDLP  =  1.00D-07
 THRDIA  =  1.00D-10  THRDLS  =  1.00D-07  THRGPS  =  0.00D+00  THRKEX  =  0.00D+00  THRDIS  =  2.00D-01  THRVAR  =  1.00D-10
 THRLOC  =  1.00D-06  THRGAP  =  1.00D-06  THRLOCT = -1.00D+00  THRGAPT = -1.00D+00  THRORB  =  1.00D-06  THRMLTP =  0.00D+00
 THRCPQCI=  1.00D-10  KEXTA   =  0.00D+00  THRCOARS=  0.00D+00  SYMTOL  =  1.00D-06  GRADTOL =  1.00D-06  THROVL  =  1.00D-08
 THRORTH =  1.00D-08  GRID    =  1.00D-06  GRIDMAX =  1.00D-03  DTMAX   =  0.00D+00  THROCCDE=  1.00D-01  THROCCDE=  1.00D-01



 ZUNIT=ANG
 

Geometry recognized as XYZ


 Variable memory set to  512000000 words,  buffer space   230000 words

 SETTING BASIS          =    USERDEF


 Recomputing integrals since basis changed


 Using spherical harmonics



 PROGRAM * SEWARD (Integral evaluation for generally contracted gaussian basis sets)     Author: Roland Lindh, 1990

 Geometry written to block  1 of record 700

 Orientation using atomic masses  
 Molecule type: Atom
 Symmetry elements: X,Y,Z
 Rotational constants:       0.0000000      0.0000000      0.0000000 GHz  (calculated with average atomic masses)

 Point group  D2h 



 ATOMIC COORDINATES

 NR  ATOM    CHARGE       X              Y              Z

   1  ZN     20.00    0.000000000    0.000000000    0.000000000


          ZN  CORE POTENTIAL

          d POTENTIAL

 POWERS             1              3              2              2
 EXPONENTIALS   35.80798       34.53646       28.62830       7.962397    
 COEFFICIENTS   20.00000       716.1595      -204.6839      0.7602661    

          s - d POTENTIAL

 POWERS             2              2
 EXPONENTIALS   14.63499       35.02141    
 COEFFICIENTS   95.87640       431.7080    

          p - d POTENTIAL

 POWERS             2              2
 EXPONENTIALS   14.57429       42.22979    
 COEFFICIENTS   74.01270       313.5777    


 BASIS DATA

   Nr Sym  Nuc  Type         Exponents   Contraction coefficients

    1.1 Ag    1  1s         114.485022     0.000429   -0.000109    0.000666    0.000704    0.005614   -0.001458
                                           0.000000
    2.1 Ag                   61.996430    -0.019339    0.004459    0.006269    0.012841   -0.066590    0.053602
                                           0.000000
    3.1 Ag                   40.117132     0.086254   -0.020067   -0.046603   -0.085910    0.242763   -0.298549
                                           0.000000
    4.1 Ag                   20.119649    -0.088955    0.022338    0.050399    0.117982   -0.433968    0.710662
                                           0.000000
    5.1 Ag                   10.171676    -0.402671    0.096698    0.363493    0.630164   -0.799712    1.691695
                                           0.000000
    6.1 Ag                    5.601641     0.067304   -0.021966   -0.242840   -0.600344    1.542151   -6.871352
                                           0.000000
    7.1 Ag                    2.864122     0.479215   -0.128768   -0.382281   -1.249060    3.080299    6.723615
                                           0.000000
                              1.592779     0.503960   -0.181706   -0.861567   -0.329498   -6.198250    0.196854
                                           0.000000
                              0.826525     0.222088   -0.162311    0.706077    2.592469    2.581766   -4.997314
                                           0.000000
                              0.263975     0.012203    0.116264    1.495001   -1.004481    3.211988    7.573318
                                           0.000000
                              0.145302    -0.004300    0.411314   -0.453994   -1.379514   -4.767457   -6.943390
                                           0.000000
                              0.068195     0.001243    0.494257   -0.597822    1.046842    1.676561    1.831608
                                           0.000000
                              0.031465    -0.000267    0.138103   -0.256117    0.324676    0.270909    0.260835
                                           1.000000
    8.1 Ag    1  1s           0.015000     1.000000
    9.1 Ag    1  3d0        270.014061    -0.000016
                            100.161579     0.000696
                             43.530609     0.013536
                             21.262419     0.069350
                             10.577821     0.149559
                              5.343620     0.239588
                              2.704857     0.286744
                              1.353018     0.271459
                              0.660873     0.202426
                              0.309149     0.103307
                              0.133879     0.023211
   10.1 Ag    1  3d2+       270.014061    -0.000016
                            100.161579     0.000696
                             43.530609     0.013536
                             21.262419     0.069350
                             10.577821     0.149559
                              5.343620     0.239588
                              2.704857     0.286744
                              1.353018     0.271459
                              0.660873     0.202426
                              0.309149     0.103307
                              0.133879     0.023211
   11.1 Ag    1  3d0        270.014061     0.000013
                            100.161579    -0.000889
                             43.530609    -0.018640
                             21.262419    -0.094646
                             10.577821    -0.215659
                              5.343620    -0.322469
                              2.704857    -0.197529
                              1.353018     0.164448
                              0.660873     0.410017
                              0.309149     0.327838
                              0.133879     0.105749
   12.1 Ag    1  3d2+       270.014061     0.000013
                            100.161579    -0.000889
                             43.530609    -0.018640
                             21.262419    -0.094646
                             10.577821    -0.215659
                              5.343620    -0.322469
                              2.704857    -0.197529
                              1.353018     0.164448
                              0.660873     0.410017
                              0.309149     0.327838
                              0.133879     0.105749
   13.1 Ag    1  3d0        270.014061     0.000007
                            100.161579     0.000868
                             43.530609     0.021631
                             21.262419     0.107748
                             10.577821     0.278997
                              5.343620     0.314543
                              2.704857    -0.241926
                              1.353018    -0.602415
                              0.660873    -0.118013
                              0.309149     0.545482
                              0.133879     0.363829
   14.1 Ag    1  3d2+       270.014061     0.000007
                            100.161579     0.000868
                             43.530609     0.021631
                             21.262419     0.107748
                             10.577821     0.278997
                              5.343620     0.314543
                              2.704857    -0.241926
                              1.353018    -0.602415
                              0.660873    -0.118013
                              0.309149     0.545482
                              0.133879     0.363829
   15.1 Ag    1  3d0        270.014061    -0.000088
                            100.161579    -0.000674
                             43.530609    -0.030726
                             21.262419    -0.143218
                             10.577821    -0.445330
                              5.343620    -0.136693
                              2.704857     0.927823
                              1.353018     0.143204
                              0.660873    -1.060202
                              0.309149     0.160452
                              0.133879     0.658542
   16.1 Ag    1  3d2+       270.014061    -0.000088
                            100.161579    -0.000674
                             43.530609    -0.030726
                             21.262419    -0.143218
                             10.577821    -0.445330
                              5.343620    -0.136693
                              2.704857     0.927823
                              1.353018     0.143204
                              0.660873    -1.060202
                              0.309149     0.160452
                              0.133879     0.658542
   17.1 Ag    1  3d0        270.014061     0.000115
                            100.161579     0.000997
                             43.530609     0.041742
                             21.262419     0.223761
                             10.577821     0.730928
                              5.343620    -0.869900
                              2.704857    -0.850529
                              1.353018     1.815694
                              0.660873    -0.681109
                              0.309149    -0.817280
                              0.133879     0.887309
   18.1 Ag    1  3d2+       270.014061     0.000115
                            100.161579     0.000997
                             43.530609     0.041742
                             21.262419     0.223761
                             10.577821     0.730928
                              5.343620    -0.869900
                              2.704857    -0.850529
                              1.353018     1.815694
                              0.660873    -0.681109
                              0.309149    -0.817280
                              0.133879     0.887309
   19.1 Ag    1  3d0        270.014061     0.000000
                            100.161579     0.000000
                             43.530609     0.000000
                             21.262419     0.000000
                             10.577821     0.000000
                              5.343620     0.000000
                              2.704857     0.000000
                              1.353018     0.000000
                              0.660873     0.000000
                              0.309149     0.000000
                              0.133879     1.000000
   20.1 Ag    1  3d2+       270.014061     0.000000
                            100.161579     0.000000
                             43.530609     0.000000
                             21.262419     0.000000
                             10.577821     0.000000
                              5.343620     0.000000
                              2.704857     0.000000
                              1.353018     0.000000
                              0.660873     0.000000
                              0.309149     0.000000
                              0.133879     1.000000
   21.1 Ag    1  3d0          0.060000     1.000000
   22.1 Ag    1  3d2+         0.060000     1.000000
   23.1 Ag    1  5g0          0.453073     1.000000
   24.1 Ag    1  5g4+         0.453073     1.000000
   25.1 Ag    1  5g2+         0.453073     1.000000
   26.1 Ag    1  5g0          1.280919     1.000000
   27.1 Ag    1  5g4+         1.280919     1.000000
   28.1 Ag    1  5g2+         1.280919     1.000000
   29.1 Ag    1  5g0          3.621387     1.000000
   30.1 Ag    1  5g4+         3.621387     1.000000
   31.1 Ag    1  5g2+         3.621387     1.000000
   32.1 Ag    1  5g0         10.238310     1.000000
   33.1 Ag    1  5g4+        10.238310     1.000000
   34.1 Ag    1  5g2+        10.238310     1.000000
   35.1 Ag    1  7i6+         2.439342     1.000000
   36.1 Ag    1  7i4+         2.439342     1.000000
   37.1 Ag    1  7i2+         2.439342     1.000000
   38.1 Ag    1  7i0          2.439342     1.000000
   39.1 Ag    1  7i6+         5.639501     1.000000
   40.1 Ag    1  7i4+         5.639501     1.000000
   41.1 Ag    1  7i2+         5.639501     1.000000
   42.1 Ag    1  7i0          5.639501     1.000000
    1.2 B3u   1  2px        158.770986    -0.000153    0.000053   -0.000170   -0.000781   -0.000304    0.003251
                                           0.000000
    2.2 B3u                  75.802876     0.001893   -0.000571    0.000604    0.007855    0.000060   -0.023609
                                           0.000000
    3.2 B3u                  44.547824     0.010461   -0.001073   -0.019987   -0.008671   -0.036931    0.154911
                                           0.000000
    4.2 B3u                  31.445269    -0.045141    0.007463    0.061153   -0.040553    0.146019   -0.385539
                                           0.000000
    5.2 B3u                  13.080125    -0.084201    0.018676    0.067317   -0.200062    0.222104    0.043028
                                           0.000000
    6.2 B3u                   7.788616     0.104973   -0.028090   -0.139211    0.528599   -1.206310    2.491372
                                           0.000000
    7.2 B3u                   4.195040     0.307714   -0.054438   -0.527041    0.528552   -0.644084   -2.763659
                                           0.000000
                              2.362276     0.368563   -0.093744   -0.176194    0.243576    2.398136   -1.614563
                                           0.000000
                              1.302584     0.286336   -0.054169    0.037129   -1.807182   -0.304441    5.182032
                                           0.000000
                              0.660704     0.095156   -0.007972    1.079322    0.629496   -1.960894   -4.105360
                                           0.000000
                              0.249042     0.005851    0.356198   -0.050149    1.137613    1.895400    1.712702
                                           0.000000
                              0.091781    -0.000034    0.412399   -0.688971   -1.067150   -0.821577   -0.168837
                                           0.000000
                              0.048931     0.000252    0.361321    0.037331    0.022190   -0.132471   -0.454998
                                           1.000000
    8.2 B3u   1  2px          0.024000     1.000000
    9.2 B3u   1  4f1+         0.210567     1.000000
   10.2 B3u   1  4f3+         0.210567     1.000000
   11.2 B3u   1  4f1+         0.588643     1.000000
   12.2 B3u   1  4f3+         0.588643     1.000000
   13.2 B3u   1  4f1+         1.645556     1.000000
   14.2 B3u   1  4f3+         1.645556     1.000000
   15.2 B3u   1  4f1+         4.600166     1.000000
   16.2 B3u   1  4f3+         4.600166     1.000000
   17.2 B3u   1  4f1+        12.859800     1.000000
   18.2 B3u   1  4f3+        12.859800     1.000000
   19.2 B3u   1  6h1+         0.780736     1.000000
   20.2 B3u   1  6h3+         0.780736     1.000000
   21.2 B3u   1  6h5+         0.780736     1.000000
   22.2 B3u   1  6h1+         2.421611     1.000000
   23.2 B3u   1  6h3+         2.421611     1.000000
   24.2 B3u   1  6h5+         2.421611     1.000000
   25.2 B3u   1  6h1+         7.511113     1.000000
   26.2 B3u   1  6h3+         7.511113     1.000000
   27.2 B3u   1  6h5+         7.511113     1.000000
    1.3 B2u   1  2py        158.770986    -0.000153    0.000053   -0.000170   -0.000781   -0.000304    0.003251
                                           0.000000
    2.3 B2u                  75.802876     0.001893   -0.000571    0.000604    0.007855    0.000060   -0.023609
                                           0.000000
    3.3 B2u                  44.547824     0.010461   -0.001073   -0.019987   -0.008671   -0.036931    0.154911
                                           0.000000
    4.3 B2u                  31.445269    -0.045141    0.007463    0.061153   -0.040553    0.146019   -0.385539
                                           0.000000
    5.3 B2u                  13.080125    -0.084201    0.018676    0.067317   -0.200062    0.222104    0.043028
                                           0.000000
    6.3 B2u                   7.788616     0.104973   -0.028090   -0.139211    0.528599   -1.206310    2.491372
                                           0.000000
    7.3 B2u                   4.195040     0.307714   -0.054438   -0.527041    0.528552   -0.644084   -2.763659
                                           0.000000
                              2.362276     0.368563   -0.093744   -0.176194    0.243576    2.398136   -1.614563
                                           0.000000
                              1.302584     0.286336   -0.054169    0.037129   -1.807182   -0.304441    5.182032
                                           0.000000
                              0.660704     0.095156   -0.007972    1.079322    0.629496   -1.960894   -4.105360
                                           0.000000
                              0.249042     0.005851    0.356198   -0.050149    1.137613    1.895400    1.712702
                                           0.000000
                              0.091781    -0.000034    0.412399   -0.688971   -1.067150   -0.821577   -0.168837
                                           0.000000
                              0.048931     0.000252    0.361321    0.037331    0.022190   -0.132471   -0.454998
                                           1.000000
    8.3 B2u   1  2py          0.024000     1.000000
    9.3 B2u   1  4f1-         0.210567     1.000000
   10.3 B2u   1  4f3-         0.210567     1.000000
   11.3 B2u   1  4f1-         0.588643     1.000000
   12.3 B2u   1  4f3-         0.588643     1.000000
   13.3 B2u   1  4f1-         1.645556     1.000000
   14.3 B2u   1  4f3-         1.645556     1.000000
   15.3 B2u   1  4f1-         4.600166     1.000000
   16.3 B2u   1  4f3-         4.600166     1.000000
   17.3 B2u   1  4f1-        12.859800     1.000000
   18.3 B2u   1  4f3-        12.859800     1.000000
   19.3 B2u   1  6h1-         0.780736     1.000000
   20.3 B2u   1  6h3-         0.780736     1.000000
   21.3 B2u   1  6h5-         0.780736     1.000000
   22.3 B2u   1  6h1-         2.421611     1.000000
   23.3 B2u   1  6h3-         2.421611     1.000000
   24.3 B2u   1  6h5-         2.421611     1.000000
   25.3 B2u   1  6h1-         7.511113     1.000000
   26.3 B2u   1  6h3-         7.511113     1.000000
   27.3 B2u   1  6h5-         7.511113     1.000000
    1.4 B1g   1  3d2-       270.014061    -0.000016    0.000013    0.000007   -0.000088    0.000115    0.000000
    2.4 B1g                 100.161579     0.000696   -0.000889    0.000868   -0.000674    0.000997    0.000000
    3.4 B1g                  43.530609     0.013536   -0.018640    0.021631   -0.030726    0.041742    0.000000
    4.4 B1g                  21.262419     0.069350   -0.094646    0.107748   -0.143218    0.223761    0.000000
    5.4 B1g                  10.577821     0.149559   -0.215659    0.278997   -0.445330    0.730928    0.000000
    6.4 B1g                   5.343620     0.239588   -0.322469    0.314543   -0.136693   -0.869900    0.000000
                              2.704857     0.286744   -0.197529   -0.241926    0.927823   -0.850529    0.000000
                              1.353018     0.271459    0.164448   -0.602415    0.143204    1.815694    0.000000
                              0.660873     0.202426    0.410017   -0.118013   -1.060202   -0.681109    0.000000
                              0.309149     0.103307    0.327838    0.545482    0.160452   -0.817280    0.000000
                              0.133879     0.023211    0.105749    0.363829    0.658542    0.887309    1.000000
    7.4 B1g   1  3d2-         0.060000     1.000000
    8.4 B1g   1  5g2-         0.453073     1.000000
    9.4 B1g   1  5g4-         0.453073     1.000000
   10.4 B1g   1  5g2-         1.280919     1.000000
   11.4 B1g   1  5g4-         1.280919     1.000000
   12.4 B1g   1  5g2-         3.621387     1.000000
   13.4 B1g   1  5g4-         3.621387     1.000000
   14.4 B1g   1  5g2-        10.238310     1.000000
   15.4 B1g   1  5g4-        10.238310     1.000000
   16.4 B1g   1  7i2-         2.439342     1.000000
   17.4 B1g   1  7i6-         2.439342     1.000000
   18.4 B1g   1  7i4-         2.439342     1.000000
   19.4 B1g   1  7i2-         5.639501     1.000000
   20.4 B1g   1  7i6-         5.639501     1.000000
   21.4 B1g   1  7i4-         5.639501     1.000000
    1.5 B1u   1  2pz        158.770986    -0.000153    0.000053   -0.000170   -0.000781   -0.000304    0.003251
                                           0.000000
    2.5 B1u                  75.802876     0.001893   -0.000571    0.000604    0.007855    0.000060   -0.023609
                                           0.000000
    3.5 B1u                  44.547824     0.010461   -0.001073   -0.019987   -0.008671   -0.036931    0.154911
                                           0.000000
    4.5 B1u                  31.445269    -0.045141    0.007463    0.061153   -0.040553    0.146019   -0.385539
                                           0.000000
    5.5 B1u                  13.080125    -0.084201    0.018676    0.067317   -0.200062    0.222104    0.043028
                                           0.000000
    6.5 B1u                   7.788616     0.104973   -0.028090   -0.139211    0.528599   -1.206310    2.491372
                                           0.000000
    7.5 B1u                   4.195040     0.307714   -0.054438   -0.527041    0.528552   -0.644084   -2.763659
                                           0.000000
                              2.362276     0.368563   -0.093744   -0.176194    0.243576    2.398136   -1.614563
                                           0.000000
                              1.302584     0.286336   -0.054169    0.037129   -1.807182   -0.304441    5.182032
                                           0.000000
                              0.660704     0.095156   -0.007972    1.079322    0.629496   -1.960894   -4.105360
                                           0.000000
                              0.249042     0.005851    0.356198   -0.050149    1.137613    1.895400    1.712702
                                           0.000000
                              0.091781    -0.000034    0.412399   -0.688971   -1.067150   -0.821577   -0.168837
                                           0.000000
                              0.048931     0.000252    0.361321    0.037331    0.022190   -0.132471   -0.454998
                                           1.000000
    8.5 B1u   1  2pz          0.024000     1.000000
    9.5 B1u   1  4f0          0.210567     1.000000
   10.5 B1u   1  4f2+         0.210567     1.000000
   11.5 B1u   1  4f0          0.588643     1.000000
   12.5 B1u   1  4f2+         0.588643     1.000000
   13.5 B1u   1  4f0          1.645556     1.000000
   14.5 B1u   1  4f2+         1.645556     1.000000
   15.5 B1u   1  4f0          4.600166     1.000000
   16.5 B1u   1  4f2+         4.600166     1.000000
   17.5 B1u   1  4f0         12.859800     1.000000
   18.5 B1u   1  4f2+        12.859800     1.000000
   19.5 B1u   1  6h2+         0.780736     1.000000
   20.5 B1u   1  6h4+         0.780736     1.000000
   21.5 B1u   1  6h0          0.780736     1.000000
   22.5 B1u   1  6h2+         2.421611     1.000000
   23.5 B1u   1  6h4+         2.421611     1.000000
   24.5 B1u   1  6h0          2.421611     1.000000
   25.5 B1u   1  6h2+         7.511113     1.000000
   26.5 B1u   1  6h4+         7.511113     1.000000
   27.5 B1u   1  6h0          7.511113     1.000000
    1.6 B2g   1  3d1+       270.014061    -0.000016    0.000013    0.000007   -0.000088    0.000115    0.000000
    2.6 B2g                 100.161579     0.000696   -0.000889    0.000868   -0.000674    0.000997    0.000000
    3.6 B2g                  43.530609     0.013536   -0.018640    0.021631   -0.030726    0.041742    0.000000
    4.6 B2g                  21.262419     0.069350   -0.094646    0.107748   -0.143218    0.223761    0.000000
    5.6 B2g                  10.577821     0.149559   -0.215659    0.278997   -0.445330    0.730928    0.000000
    6.6 B2g                   5.343620     0.239588   -0.322469    0.314543   -0.136693   -0.869900    0.000000
                              2.704857     0.286744   -0.197529   -0.241926    0.927823   -0.850529    0.000000
                              1.353018     0.271459    0.164448   -0.602415    0.143204    1.815694    0.000000
                              0.660873     0.202426    0.410017   -0.118013   -1.060202   -0.681109    0.000000
                              0.309149     0.103307    0.327838    0.545482    0.160452   -0.817280    0.000000
                              0.133879     0.023211    0.105749    0.363829    0.658542    0.887309    1.000000
    7.6 B2g   1  3d1+         0.060000     1.000000
    8.6 B2g   1  5g1+         0.453073     1.000000
    9.6 B2g   1  5g3+         0.453073     1.000000
   10.6 B2g   1  5g1+         1.280919     1.000000
   11.6 B2g   1  5g3+         1.280919     1.000000
   12.6 B2g   1  5g1+         3.621387     1.000000
   13.6 B2g   1  5g3+         3.621387     1.000000
   14.6 B2g   1  5g1+        10.238310     1.000000
   15.6 B2g   1  5g3+        10.238310     1.000000
   16.6 B2g   1  7i5+         2.439342     1.000000
   17.6 B2g   1  7i3+         2.439342     1.000000
   18.6 B2g   1  7i1+         2.439342     1.000000
   19.6 B2g   1  7i5+         5.639501     1.000000
   20.6 B2g   1  7i3+         5.639501     1.000000
   21.6 B2g   1  7i1+         5.639501     1.000000
    1.7 B3g   1  3d1-       270.014061    -0.000016    0.000013    0.000007   -0.000088    0.000115    0.000000
    2.7 B3g                 100.161579     0.000696   -0.000889    0.000868   -0.000674    0.000997    0.000000
    3.7 B3g                  43.530609     0.013536   -0.018640    0.021631   -0.030726    0.041742    0.000000
    4.7 B3g                  21.262419     0.069350   -0.094646    0.107748   -0.143218    0.223761    0.000000
    5.7 B3g                  10.577821     0.149559   -0.215659    0.278997   -0.445330    0.730928    0.000000
    6.7 B3g                   5.343620     0.239588   -0.322469    0.314543   -0.136693   -0.869900    0.000000
                              2.704857     0.286744   -0.197529   -0.241926    0.927823   -0.850529    0.000000
                              1.353018     0.271459    0.164448   -0.602415    0.143204    1.815694    0.000000
                              0.660873     0.202426    0.410017   -0.118013   -1.060202   -0.681109    0.000000
                              0.309149     0.103307    0.327838    0.545482    0.160452   -0.817280    0.000000
                              0.133879     0.023211    0.105749    0.363829    0.658542    0.887309    1.000000
    7.7 B3g   1  3d1-         0.060000     1.000000
    8.7 B3g   1  5g1-         0.453073     1.000000
    9.7 B3g   1  5g3-         0.453073     1.000000
   10.7 B3g   1  5g1-         1.280919     1.000000
   11.7 B3g   1  5g3-         1.280919     1.000000
   12.7 B3g   1  5g1-         3.621387     1.000000
   13.7 B3g   1  5g3-         3.621387     1.000000
   14.7 B3g   1  5g1-        10.238310     1.000000
   15.7 B3g   1  5g3-        10.238310     1.000000
   16.7 B3g   1  7i5-         2.439342     1.000000
   17.7 B3g   1  7i3-         2.439342     1.000000
   18.7 B3g   1  7i1-         2.439342     1.000000
   19.7 B3g   1  7i5-         5.639501     1.000000
   20.7 B3g   1  7i3-         5.639501     1.000000
   21.7 B3g   1  7i1-         5.639501     1.000000
    1.8 Au    1  4f2-         0.210567     1.000000
    2.8 Au    1  4f2-         0.588643     1.000000
    3.8 Au    1  4f2-         1.645556     1.000000
    4.8 Au    1  4f2-         4.600166     1.000000
    5.8 Au    1  4f2-        12.859800     1.000000
    6.8 Au    1  6h4-         0.780736     1.000000
    7.8 Au    1  6h2-         0.780736     1.000000
    8.8 Au    1  6h4-         2.421611     1.000000
    9.8 Au    1  6h2-         2.421611     1.000000
   10.8 Au    1  6h4-         7.511113     1.000000
   11.8 Au    1  6h2-         7.511113     1.000000

 NUCLEAR CHARGE:                   20
 NUMBER OF PRIMITIVE AOS:         357
 NUMBER OF SYMMETRY AOS:          246
 NUMBER OF CONTRACTIONS:          197   (  42Ag  +  27B3u +  27B2u +  21B1g +  27B1u +  21B2g +  21B3g +  11Au  )
 NUMBER OF CORE ORBITALS:           4   (   1Ag  +   1B3u +   1B2u +   0B1g +   1B1u +   0B2g +   0B3g +   0Au  )
 NUMBER OF VALENCE ORBITALS:        6   (   3Ag  +   0B3u +   0B2u +   1B1g +   0B1u +   1B2g +   1B3g +   0Au  )


 NUCLEAR REPULSION ENERGY    0.00000000

 EXTRA SYMMETRY OF AOS IN SYMMETRY 1:   1 1 1 1 1 1 1 1 2 3   2 3 2 3 2 3 2 3 2 3   2 3 4 5 6 4 5 6 4 5   6 4 5 6 7 8 910 7 8
                                        910
 EXTRA SYMMETRY OF AOS IN SYMMETRY 2:   1 1 1 1 1 1 1 1 2 3   2 3 2 3 2 3 2 3 4 5   6 4 5 6 4 5 6
 EXTRA SYMMETRY OF AOS IN SYMMETRY 3:   1 1 1 1 1 1 1 1 2 3   2 3 2 3 2 3 2 3 4 5   6 4 5 6 4 5 6
 EXTRA SYMMETRY OF AOS IN SYMMETRY 4:   1 1 1 1 1 1 1 2 3 2   3 2 3 2 3 4 5 6 4 5   6
 EXTRA SYMMETRY OF AOS IN SYMMETRY 5:   1 1 1 1 1 1 1 1 2 3   2 3 2 3 2 3 2 3 4 5   6 4 5 6 4 5 6
 EXTRA SYMMETRY OF AOS IN SYMMETRY 6:   1 1 1 1 1 1 1 2 3 2   3 2 3 2 3 4 5 6 4 5   6
 EXTRA SYMMETRY OF AOS IN SYMMETRY 7:   1 1 1 1 1 1 1 2 3 2   3 2 3 2 3 4 5 6 4 5   6
 EXTRA SYMMETRY OF AOS IN SYMMETRY 8:   1 1 1 1 1 2 3 2 3 2   3

 Eigenvalues of metric

         1 0.364E-02 0.650E-02 0.650E-02 0.138E+00 0.272E+00 0.272E+00 0.272E+00 0.274E+00
         2 0.863E-02 0.159E+00 0.159E+00 0.270E+00 0.383E+00 0.383E+00 0.489E+00 0.489E+00
         3 0.863E-02 0.159E+00 0.159E+00 0.270E+00 0.383E+00 0.383E+00 0.489E+00 0.489E+00
         4 0.650E-02 0.272E+00 0.272E+00 0.274E+00 0.473E+00 0.473E+00 0.473E+00 0.631E+00
         5 0.863E-02 0.159E+00 0.159E+00 0.270E+00 0.383E+00 0.383E+00 0.489E+00 0.489E+00
         6 0.650E-02 0.272E+00 0.272E+00 0.274E+00 0.473E+00 0.473E+00 0.473E+00 0.631E+00
         7 0.650E-02 0.272E+00 0.272E+00 0.274E+00 0.473E+00 0.473E+00 0.473E+00 0.631E+00
         8 0.159E+00 0.383E+00 0.489E+00 0.489E+00 0.829E+00 0.970E+00 0.970E+00 0.149E+01


 Contracted 2-electron integrals neglected if value below      1.0D-12
 AO integral compression algorithm  1   Integral accuracy      1.0D-12

     132.645 MB (compressed) written to integral file ( 44.0%)


 NUMBER OF SORTED TWO-ELECTRON INTEGRALS:   24352329.     BUFFER LENGTH:  32768
 NUMBER OF SEGMENTS:   2  SEGMENT LENGTH:   15998961      RECORD LENGTH: 524288

 Memory used in sort:      16.56 MW

 SORT1 READ    37634223. AND WROTE    15876700. INTEGRALS IN     46 RECORDS. CPU TIME:     1.23 SEC, REAL TIME:     1.56 SEC
 SORT2 READ    15876700. AND WROTE    24352329. INTEGRALS IN    506 RECORDS. CPU TIME:     0.70 SEC, REAL TIME:     0.93 SEC

 FILE SIZES:   FILE 1:   152.6 MBYTE,  FILE 4:   193.0 MBYTE,   TOTAL:    345.6 MBYTE

 OPERATOR DM      FOR CENTER  0  COORDINATES:    0.000000    0.000000    0.000000
 OPERATOR EKIN    FOR CENTER  0  COORDINATES:    0.000000    0.000000    0.000000
 OPERATOR POT     FOR CENTER  0  COORDINATES:    0.000000    0.000000    0.000000


 **********************************************************************************************************************************
 DATASETS  * FILE   NREC   LENGTH (MB)   RECORD NAMES
              1      20      105.22       500      610      700      900      950      970     1000      129      960     1100   
                                          VAR    BASINP    GEOM    SYMINP    ZMAT    AOBASIS   BASIS     P2S    ABASIS      S 
                                         1400     1410     1420     1200     1210     1080     1600     1650     1300     1700   
                                         EKIN       V       ECP      H0       H01     AOSYM     SMH    MOLCAS    ERIS     OPER   

 PROGRAMS   *        TOTAL       INT
 CPU TIMES  *        10.95     10.84
 REAL TIME  *        13.93 SEC
 DISK USED  *       345.96 MB      
 **********************************************************************************************************************************


 PROGRAM * RHF-SCF (CLOSED SHELL)       Authors: W. Meyer, H.-J. Werner


 NUMBER OF ELECTRONS:      10+   10-    SPACE SYMMETRY=1    SPIN SYMMETRY: Singlet 
 CONVERGENCE THRESHOLDS:    1.00E-05 (Density)    1.00E-07 (Energy)
 MAX. NUMBER OF ITERATIONS:       60
 INTERPOLATION TYPE:            DIIS
 INTERPOLATION STEPS:              2 (START)      1 (STEP)
 LEVEL SHIFTS:                  0.00 (CLOSED)  0.00 (OPEN) 

 Number of closed-shell orbitals:   10 (   4   1   1   1   1   1   1   0 )



   Atom=ZN basis=cc-pVTZ-PP        lmin=0  lmax=2

 Orbital guess generated from atomic densities. Full valence occupancy:    4   1   1   1   1   1   1   0


 Molecular orbital dump at record        2100.2

 ITERATION    DDIFF          GRAD             ENERGY        2-EL.EN.            DIPOLE MOMENTS         DIIS   ORB.
    1      0.000D+00      0.000D+00      -225.27288774    362.292424    0.00000    0.00000    0.00000    0    start
    2      0.000D+00      0.616D-02      -225.27256333    365.175599    0.00000    0.00000    0.00000    1    diag
    3      0.113D-02      0.633D-02      -225.27506346    363.616196    0.00000    0.00000    0.00000    2    diag
    4      0.604D-03      0.149D-03      -225.27506497    363.650988    0.00000    0.00000    0.00000    3    diag
    5      0.206D-04      0.887D-05      -225.27506498    363.648225    0.00000    0.00000    0.00000    4    diag
    6      0.479D-05      0.102D-05      -225.27506498    363.647920    0.00000    0.00000    0.00000    0    orth

 Final occupancy:   4   1   1   1   1   1   1   0

 !RHF STATE 1.1 Energy               -225.275064981593
 Nuclear energy                         0.00000000
 One-electron energy                 -407.09902512
 Two-electron energy                  181.82396014
 Virial quotient                       -1.50081580
 !RHF STATE 1.1 Dipole moment           0.00000000     0.00000000     0.00000000
 Dipole moment /Debye                   0.00000000     0.00000000     0.00000000
 

 !RHF expec          <1.1|EKIN|1.1>   150.101741005595
 
 !RHF expec           <1.1|POT|1.1>   -28.852524986894

 ELECTRON ORBITALS
 =================


   Orb  Occ    Energy  Couls-En    Coefficients

                                   1 1s      1 1s      1 1s      1 1s      1 1s      1 1s      1 1s      1 1s      1 3d0     1 3d2+ 
                                   1 3d0     1 3d2+    1 3d0     1 3d2+    1 3d0     1 3d2+    1 3d0     1 3d2+    1 3d0     1 3d2+ 
                                   1 3d0     1 3d2+    1 5g0     1 5g4+    1 5g2+    1 5g0     1 5g4+    1 5g2+    1 5g0     1 5g4+ 
                                   1 5g2+    1 5g0     1 5g4+    1 5g2+    1 7i6+    1 7i4+    1 7i2+    1 7i0     1 7i6+    1 7i4+ 
                                   1 7i2+    1 7i0  

   1.1   2    -5.8440  -31.7532  1.000026  0.000119 -0.000041  0.000026  0.000013  0.000004 -0.000219  0.000099 -0.000000  0.000000
                                -0.000000  0.000000 -0.000000  0.000000 -0.000000 -0.000000 -0.000000  0.000000  0.000000 -0.000000
                                 0.000000  0.000000 -0.000000  0.000000  0.000000  0.000000 -0.000000 -0.000000 -0.000000 -0.000000
                                 0.000000  0.000000 -0.000000 -0.000000  0.000000 -0.000000  0.000000 -0.000000  0.000000  0.000000
                                -0.000000 -0.000000

   2.1   2    -0.7633  -20.3819  0.000000  0.000000 -0.000000  0.000000  0.000000 -0.000000 -0.000000  0.000000  1.000066  0.002035
                                 0.000136  0.000000  0.000147  0.000000  0.000079  0.000000  0.000020  0.000000 -0.000378 -0.000001
                                 0.000235  0.000000  0.000000 -0.000000  0.000000 -0.000000  0.000000 -0.000000  0.000000  0.000000
                                 0.000000  0.000000 -0.000000 -0.000000 -0.000000 -0.000000  0.000000  0.000000 -0.000000  0.000000
                                -0.000000  0.000000

   3.1   2    -0.7633  -20.3819 -0.000000 -0.000000  0.000000 -0.000000 -0.000000  0.000000  0.000000 -0.000000 -0.002035  1.000066
                                -0.000000  0.000136 -0.000000  0.000147 -0.000000  0.000079 -0.000000  0.000020  0.000001 -0.000378
                                -0.000000  0.000235 -0.000000  0.000000  0.000000  0.000000 -0.000000 -0.000000 -0.000000  0.000000
                                 0.000000  0.000000 -0.000000 -0.000000 -0.000000 -0.000000  0.000000 -0.000000  0.000000 -0.000000
                                -0.000000 -0.000000

   4.1   2    -0.2984   -8.3520  0.000005  1.000016  0.000009 -0.000006 -0.000003 -0.000002 -0.000085  0.000088 -0.000000 -0.000000
                                -0.000000  0.000000 -0.000000  0.000000 -0.000000  0.000000 -0.000000  0.000000  0.000000 -0.000000
                                -0.000000  0.000000 -0.000000  0.000000 -0.000000  0.000000 -0.000000 -0.000000  0.000000  0.000000
                                -0.000000 -0.000000  0.000000 -0.000000  0.000000 -0.000000  0.000000 -0.000000 -0.000000  0.000000
                                -0.000000  0.000000

                                   1 2px     1 2px     1 2px     1 2px     1 2px     1 2px     1 2px     1 2px     1 4f1+    1 4f3+ 
                                   1 4f1+    1 4f3+    1 4f1+    1 4f3+    1 4f1+    1 4f3+    1 4f1+    1 4f3+    1 6h1+    1 6h3+ 
                                   1 6h5+    1 6h1+    1 6h3+    1 6h5+    1 6h1+    1 6h3+    1 6h5+ 

   1.2   2    -3.9222  -27.7534  1.000395  0.014411  0.010648 -0.000292 -0.000989 -0.000042 -0.005681 -0.000063  0.000000 -0.000000
                                -0.000000  0.000000  0.000000 -0.000000 -0.000000  0.000000  0.000000 -0.000000  0.000000 -0.000000
                                 0.000000  0.000000  0.000000 -0.000000  0.000000  0.000000  0.000000

                                   1 2py     1 2py     1 2py     1 2py     1 2py     1 2py     1 2py     1 2py     1 4f1-    1 4f3- 
                                   1 4f1-    1 4f3-    1 4f1-    1 4f3-    1 4f1-    1 4f3-    1 4f1-    1 4f3-    1 6h1-    1 6h3- 
                                   1 6h5-    1 6h1-    1 6h3-    1 6h5-    1 6h1-    1 6h3-    1 6h5- 

   1.3   2    -3.9222  -27.7534  1.000395  0.014411  0.010648 -0.000292 -0.000989 -0.000042 -0.005681 -0.000063  0.000000  0.000000
                                -0.000000 -0.000000  0.000000  0.000000 -0.000000 -0.000000  0.000000  0.000000  0.000000 -0.000000
                                 0.000000  0.000000  0.000000 -0.000000  0.000000 -0.000000 -0.000000

                                   1 3d2-    1 3d2-    1 3d2-    1 3d2-    1 3d2-    1 3d2-    1 3d2-    1 5g2-    1 5g4-    1 5g2- 
                                   1 5g4-    1 5g2-    1 5g4-    1 5g2-    1 5g4-    1 7i2-    1 7i6-    1 7i4-    1 7i2-    1 7i6- 
                                   1 7i4- 

   1.4   2    -0.7633  -20.3819  1.000068  0.000136  0.000147  0.000079  0.000020 -0.000378  0.000235  0.000000 -0.000000 -0.000000
                                 0.000000  0.000000 -0.000000 -0.000000  0.000000  0.000000 -0.000000  0.000000 -0.000000  0.000000
                                -0.000000

                                   1 2pz     1 2pz     1 2pz     1 2pz     1 2pz     1 2pz     1 2pz     1 2pz     1 4f0     1 4f2+ 
                                   1 4f0     1 4f2+    1 4f0     1 4f2+    1 4f0     1 4f2+    1 4f0     1 4f2+    1 6h2+    1 6h4+ 
                                   1 6h0     1 6h2+    1 6h4+    1 6h0     1 6h2+    1 6h4+    1 6h0  

   1.5   2    -3.9222  -27.7534  1.000395  0.014411  0.010648 -0.000292 -0.000989 -0.000042 -0.005681 -0.000063 -0.000000  0.000000
                                 0.000000 -0.000000 -0.000000  0.000000  0.000000 -0.000000 -0.000000  0.000000 -0.000000 -0.000000
                                -0.000000  0.000000  0.000000  0.000000 -0.000000 -0.000000 -0.000000

                                   1 3d1+    1 3d1+    1 3d1+    1 3d1+    1 3d1+    1 3d1+    1 3d1+    1 5g1+    1 5g3+    1 5g1+ 
                                   1 5g3+    1 5g1+    1 5g3+    1 5g1+    1 5g3+    1 7i5+    1 7i3+    1 7i1+    1 7i5+    1 7i3+ 
                                   1 7i1+ 

   1.6   2    -0.7633  -20.3819  1.000068  0.000136  0.000147  0.000079  0.000020 -0.000378  0.000235  0.000000  0.000000 -0.000000
                                -0.000000  0.000000 -0.000000 -0.000000  0.000000  0.000000  0.000000  0.000000  0.000000 -0.000000
                                -0.000000

                                   1 3d1-    1 3d1-    1 3d1-    1 3d1-    1 3d1-    1 3d1-    1 3d1-    1 5g1-    1 5g3-    1 5g1- 
                                   1 5g3-    1 5g1-    1 5g3-    1 5g1-    1 5g3-    1 7i5-    1 7i3-    1 7i1-    1 7i5-    1 7i3- 
                                   1 7i1- 

   1.7   2    -0.7633  -20.3819  1.000068  0.000136  0.000147  0.000079  0.000020 -0.000378  0.000235  0.000000 -0.000000 -0.000000
                                 0.000000  0.000000  0.000000 -0.000000 -0.000000  0.000000 -0.000000  0.000000 -0.000000  0.000000
                                -0.000000

 HOMO      4.1    -0.298377 =      -8.1192eV
 LUMO      5.1     0.032068 =       0.8726eV
 LUMO-HOMO         0.330444 =       8.9918eV


 **********************************************************************************************************************************
 DATASETS  * FILE   NREC   LENGTH (MB)   RECORD NAMES
              1      20      105.22       500      610      700      900      950      970     1000      129      960     1100   
                                          VAR    BASINP    GEOM    SYMINP    ZMAT    AOBASIS   BASIS     P2S    ABASIS      S 
                                         1400     1410     1420     1200     1210     1080     1600     1650     1300     1700   
                                         EKIN       V       ECP      H0       H01     AOSYM     SMH    MOLCAS    ERIS     OPER   

              2       4        2.90       700     1000      520     2100   
                                         GEOM     BASIS   MCVARS     RHF  

 PROGRAMS   *        TOTAL        HF       INT
 CPU TIMES  *        11.46      0.51     10.84
 REAL TIME  *        15.03 SEC
 DISK USED  *       345.96 MB      
 **********************************************************************************************************************************
 SETTING SCF(I)         =      -225.27506498  AU                              
 SETTING _CC_NORM_MAX   =         2.00000000                                  


 PROGRAM * CI (Multireference internally contracted CI)     Authors: H.-J. Werner, P.J. Knowles, 1987


 Convergence thresholds:  THRVAR = 1.00D-08  THRDEN = 1.00D-06

 Number of optimized states:  1  Roots:   1
 Number of reference states:  1  Roots:   1

 Reference symmetry:                   1   Singlet 
 Number of electrons:                 20
 Maximum number of shells:             3
 Maximum number of spin couplings:     2

 Reference space:        1 conf        1 CSFs
 N elec internal:        1 conf        1 CSFs
 N-1 el internal:       10 conf       10 CSFs
 N-2 el internal:       55 conf      100 CSFs

 Number of electrons in valence space:                     20
 Maximum number of open shell orbitals in reference space:  0
 Maximum number of open shell orbitals in internal spaces:  4


 Number of closed-shell orbitals:  10 (   4   1   1   1   1   1   1   0 )
 Number of external orbitals:     187 (  38  26  26  20  26  20  20  11 )

 Molecular orbitals read from record     2100.2  Type=RHF/CANONICAL (state 1.1)

 Integral transformation finished. Total CPU:   0.28 sec, npass=  1  Memory used:   0.36 MW

 Number of p-space configurations:   1

 Reference wavefunction optimized for reference space (refopt=1)

 State     Reference Energy 
   1        -225.27506498

 Number of blocks in overlap matrix:   100   Smallest eigenvalue:  0.10D+01
 Number of N-2 electron functions:     100
 Number of N-1 electron functions:      10

 Number of internal configurations:                    1
 Number of singly external configurations:           290
 Number of doubly external configurations:        222846
 Total number of contracted configurations:       223137
 Total number of uncontracted configurations:     223137

 Diagonal Coupling coefficients finished.               Storage:    8706 words, CPU-Time:      0.00 seconds.
 Energy denominators for pairs finished in 1 passes.    Storage:  111756 words, CPU-time:      0.00 seconds.

  ITER. STATE  ROOT     SQ.NORM     CORR.ENERGY   TOTAL ENERGY   ENERGY CHANGE       DEN1      VAR(S)    VAR(P)      TIME
    1     1     1     1.00000000     0.00000000  -225.27506498    -0.00000000    -1.13150395  0.15D-09  0.13D+00     0.32
    2     1     1     1.08102895    -0.89298830  -226.16805329    -0.89298830    -0.03741778  0.20D-02  0.41D-02     0.98
    3     1     1     1.07216715    -0.92487402  -226.19993900    -0.03188572    -0.00117592  0.11D-03  0.20D-03     1.65
    4     1     1     1.07085636    -0.92591459  -226.20097957    -0.00104056    -0.00006471  0.78D-05  0.97D-05     2.33
    5     1     1     1.07076838    -0.92597793  -226.20104291    -0.00006334    -0.00000275  0.10D-06  0.41D-06     3.02
    6     1     1     1.07082574    -0.92598066  -226.20104564    -0.00000273    -0.00000008  0.34D-08  0.12D-07     3.69
    7     1     1     1.07082891    -0.92598074  -226.20104572    -0.00000008    -0.00000000  0.26D-09  0.32D-09     4.36


 =====================================
 Analysis of CPU times by interactions
 =====================================

       I      S      P

 I   0.0%
 S   0.0%   0.7%
 P   0.2%   1.1%  18.3%

 Initialization:   7.1%
 Other:           72.5%

 Total CPU:        4.4 seconds
 =====================================



 Reference coefficients greater than 0.0500000
 =============================================
 2222222222           0.9663623



 RESULTS FOR STATE 1.1
 =====================

 Coefficient of reference function:   C(0) = 0.96636225 (fixed)   0.96636225 (relaxed)

 Energy contributions of configuration classes

 CLASS          SQ.NORM        ECORR1        ECORR2
 +++++++++++++++++++++++++++++++++++++++++++++++++++
 Internals    0.00000000    0.00000000    0.00000000
 Singles      0.00153412    0.00000026   -0.00132646
 Pairs        0.06929479   -0.92598100   -0.92465427
 Total        1.07082891   -0.92598074   -0.92598074
 +++++++++++++++++++++++++++++++++++++++++++++++++++


 Reference energy                    -225.27506498
 Nuclear energy                         0.00000000
 Kinetic energy                       150.50806546
 One electron energy                 -405.96582251
 Two electron energy                  179.76477679
 Virial quotient                       -1.50291644
 Correlation energy                    -0.92598074
 !CI(SD) STATE 1.1 Energy            -226.201045718816

 Properties without orbital relaxation:

 !CI(SD) STATE 1.1 Dipole moment        0.00000000     0.00000000     0.00000000
 Dipole moment /Debye                   0.00000000     0.00000000     0.00000000

 Cluster corrected energies          -226.26663192 (Davidson, fixed reference)
 Cluster corrected energies          -226.26663192 (Davidson, relaxed reference)

 Cluster corrected energies          -226.26358718 (Pople, fixed reference)
 Cluster corrected energies          -226.26358718 (Pople, relaxed reference)

 

 !CI(SD) expec       <1.1|EKIN|1.1>   150.508065463924
 
 !CI(SD) expec        <1.1|POT|1.1>   -28.821225521002


 **********************************************************************************************************************************
 DATASETS  * FILE   NREC   LENGTH (MB)   RECORD NAMES
              1      21      108.64       500      610      700      900      950      970     1000      129      960     1100   
                                          VAR    BASINP    GEOM    SYMINP    ZMAT    AOBASIS   BASIS     P2S    ABASIS      S 
                                         1400     1410     1420     1200     1210     1080     1600     1650     1300     1700   
                                         EKIN       V       ECP      H0       H01     AOSYM     SMH    MOLCAS    ERIS     OPER   
                                         1380   
                                         JKOP   

              2       4        2.90       700     1000      520     2100   
                                         GEOM     BASIS   MCVARS     RHF  

 PROGRAMS   *        TOTAL        CI        HF       INT
 CPU TIMES  *        15.87      4.40      0.51     10.84
 REAL TIME  *        20.49 SEC
 DISK USED  *       345.96 MB      
 **********************************************************************************************************************************
 SETTING POSTHF(I)      =      -226.20104572  AU                              
                                                                                                                                                                                                                                                                

         SCF            POSTHF        EKIN          POT
    -225.2750650   -226.2010457   150.5080655   -28.82122552
                                                  

 CI/USERDEF energy=   -226.201045718816

        CI              HF-SCF  
   -226.20104572   -225.27506498
 **********************************************************************************************************************************
 Variable memory released
