TACC:  Starting up job 2858493 
TACC:  Starting parallel tasks... 
  Input file(s): F.log.qmc.in-wfj.xml 

=====================================================
                    QMCPACK 3.6.0

       (c) Copyright 2003-  QMCPACK developers

                    Please cite:
 J. Kim et al. J. Phys. Cond. Mat. 30 195901 (2018)
      https://doi.org/10.1088/1361-648X/aab9c3

  Git branch: develop
  Last git commit: 8025d469c3748fa6a35dc38bfa5b192a28e9e66e
  Last git commit date: Mon Jan 14 15:08:34 2019 -0600
  Last git commit subject: Merge pull request #1314 from prckent/update_citations
=====================================================
  Global options 

  MPI Nodes             = 1024
  MPI Nodes per group   = 1024
  MPI Group ID          = 0
  OMP 1st level threads = 1
  OMP nested threading disabled or only 1 thread on the 2nd level

  Precision used in this calculation, see definitions in the manual:
  Base precision      = double
  Full precision      = double

  Structure-of-arrays (SoA) optimization enabled

  Input XML = F.log.qmc.in-wfj.xml

  Project = F.log
  date    = 2019-02-02 10:23:41 CST
  host    = c455-042.stampede2.tacc.utexas.edu

 Random Number
 -------------
  Offset for the random number seeds based on time: 13

  Range of prime numbers to use as seeds over processors and threads = 47-8287


 Particle Set 
 ------------
  Name: ion0
  All the species have the same mass 1
  Particle set size: 1

 Particle Set 
 ------------
  Name: e
  All the species have the same mass 1
  Particle set size: 7

 Wavefunction setup: 
 ------------------- 
  Name: psi0
  LCAO: SoaAtomicBasisSet<MultiQuintic,0>

  Distance table for similar particles (A-A):
    source/target: e
    Using structure-of-arrays (SoA) data layout
    Distance computations use open boundary conditions in 3D.


  Distance table for dissimilar particles (A-B):
    source: ion0  target: e
    Using structure-of-arrays (SoA) data layout
    Distance computations use open boundary conditions in 3D.

Reading BasisSet from HDF5 file:F.log.orbs.h5
<input node="atomicBasisSet" name="Gaussian" expandYlm="Gamess" angular="cartesian" elementType="F" normalized="no" type="Numerical" expM="0" />
  AO BasisSet for F
   Angular momentum expanded in cartesian functions x^lx y^ly z^lz according to Gamess
   Grid is created by the input paremters in h5
    Using log grid ri = 1e-06 rf = 100 npts = 1001
   R(n,l,m,s) 0 0 0 0
   R(n,l,m,s) 1 1 0 0
   R(n,l,m,s) 2 0 0 0
   R(n,l,m,s) 3 0 0 0
   R(n,l,m,s) 4 1 0 0
   R(n,l,m,s) 5 1 0 0
   R(n,l,m,s) 6 2 0 0
   R(n,l,m,s) 7 2 0 0
   R(n,l,m,s) 8 3 0 0
Expanding Ylm (angular function) according to Gamess using cartesian gaussians
Adding 1 cartesian gaussian orbitals for l= 0
Adding 3 cartesian gaussian orbitals for l= 1
Adding 1 cartesian gaussian orbitals for l= 0
Adding 1 cartesian gaussian orbitals for l= 0
Adding 3 cartesian gaussian orbitals for l= 1
Adding 3 cartesian gaussian orbitals for l= 1
Adding 6 cartesian gaussian orbitals for l= 2
Adding 6 cartesian gaussian orbitals for l= 2
Adding 10 cartesian gaussian orbitals for l= 3
   Maximum Angular Momentum  = 3
   Number of Radial functors = 9
   Basis size                = 34

  Created SPOSet builder named 'LCAOBSet' of type molecularorbital
Reuse SPOSetBuilder "LCAOBSet" type MolecularOrbital
  Building SPOSet '' with '' basis set.
Reuse SPOSetBuilder "LCAOBSet" type MolecularOrbital
  Building SPOSet '' with '' basis set.
  Creating a determinant updet group=0 sposet=updet
  Reusing a SPO set updet
Using DiracDeterminant
Using rank-1 Sherman-Morrison Fahy update

  Creating a determinant downdet group=1 sposet=downdet
  Reusing a SPO set downdet
Using DiracDeterminant
Using rank-1 Sherman-Morrison Fahy update

  FermionWF = SlaterDet
  RadialJastrowBuilder adds a functor with cusp = -0.25
 size = 10 parameters 
 cusp = -0.25
 rcut = 6.5
Parameter     Name      Value
uu_0 0.23139 1 1  ON 0
uu_1 0.111687 1 1  ON 1
uu_2 0.0272389 1 1  ON 2
uu_3 -0.0291172 1 1  ON 3
uu_4 -0.0635854 1 1  ON 4
uu_5 -0.0809549 1 1  ON 5
uu_6 -0.0841925 1 1  ON 6
uu_7 -0.0758418 1 1  ON 7
uu_8 -0.0584749 1 1  ON 8
uu_9 -0.032815 1 1  ON 9
  RadialJastrowBuilder adds a functor with cusp = -0.5
 size = 10 parameters 
 cusp = -0.5
 rcut = 6.5
Parameter     Name      Value
ud_0 0.353113 1 1  ON 0
ud_1 0.149411 1 1  ON 1
ud_2 0.0337625 1 1  ON 2
ud_3 -0.0375035 1 1  ON 3
ud_4 -0.0802737 1 1  ON 4
ud_5 -0.102621 1 1  ON 5
ud_6 -0.109033 1 1  ON 6
ud_7 -0.101806 1 1  ON 7
ud_8 -0.0781692 1 1  ON 8
ud_9 -0.0475305 1 1  ON 9
 size = 10 parameters 
 cusp = 0
 rcut = 6.5
Parameter     Name      Value
eF_0 -0.685025 1 1  ON 0
eF_1 -0.4888 1 1  ON 1
eF_2 -0.172806 1 1  ON 2
eF_3 0.0812498 1 1  ON 3
eF_4 0.246406 1 1  ON 4
eF_5 0.325282 1 1  ON 5
eF_6 0.330107 1 1  ON 6
eF_7 0.277186 1 1  ON 7
eF_8 0.163857 1 1  ON 8
eF_9 -0.00180393 1 1  ON 9
Expected 26 parameters, but found 0 in PolynomialFunctor3D.
Parameter     Name      Value
uuF_0 0 1 1  ON 0
uuF_1 0 1 1  ON 1
uuF_2 0 1 1  ON 2
uuF_3 0 1 1  ON 3
uuF_4 0 1 1  ON 4
uuF_5 0 1 1  ON 5
uuF_6 0 1 1  ON 6
uuF_7 0 1 1  ON 7
uuF_8 0 1 1  ON 8
uuF_9 0 1 1  ON 9
uuF_10 0 1 1  ON 10
uuF_11 0 1 1  ON 11
uuF_12 0 1 1  ON 12
uuF_13 0 1 1  ON 13
uuF_14 0 1 1  ON 14
uuF_15 0 1 1  ON 15
uuF_16 0 1 1  ON 16
uuF_17 0 1 1  ON 17
uuF_18 0 1 1  ON 18
uuF_19 0 1 1  ON 19
uuF_20 0 1 1  ON 20
uuF_21 0 1 1  ON 21
uuF_22 0 1 1  ON 22
uuF_23 0 1 1  ON 23
uuF_24 0 1 1  ON 24
uuF_25 0 1 1  ON 25
Expected 26 parameters, but found 0 in PolynomialFunctor3D.
Parameter     Name      Value
udF_0 0 1 1  ON 0
udF_1 0 1 1  ON 1
udF_2 0 1 1  ON 2
udF_3 0 1 1  ON 3
udF_4 0 1 1  ON 4
udF_5 0 1 1  ON 5
udF_6 0 1 1  ON 6
udF_7 0 1 1  ON 7
udF_8 0 1 1  ON 8
udF_9 0 1 1  ON 9
udF_10 0 1 1  ON 10
udF_11 0 1 1  ON 11
udF_12 0 1 1  ON 12
udF_13 0 1 1  ON 13
udF_14 0 1 1  ON 14
udF_15 0 1 1  ON 15
udF_16 0 1 1  ON 16
udF_17 0 1 1  ON 17
udF_18 0 1 1  ON 18
udF_19 0 1 1  ON 19
udF_20 0 1 1  ON 20
udF_21 0 1 1  ON 21
udF_22 0 1 1  ON 22
udF_23 0 1 1  ON 23
udF_24 0 1 1  ON 24
udF_25 0 1 1  ON 25
  QMCHamiltonian::addOperator Kinetic to H, physical Hamiltonian 
  QMCHamiltonian::addOperator ElecElec to H, physical Hamiltonian 
QMCHamiltonian::addOperatorType added type coulomb named ElecElec
  CoulombAA for ion0 is not created.  Number of particles == 1 and nonPeriodic

  ECPotential builder for pseudopotential 

  Adding pseudopotential for F
   Linear grid  ri=0 rf=10 npts = 10001
    ECPComponentBuilder::buildSemiLocalAndLocal 
    Assuming Hartree unit
   Number of angular momentum channels 2
   Maximum angular momentum channel 1
   Creating a Linear Grid Rmax=1.03
  Using global grid with delta = 0.001
   Making L=1 a local potential with a radial cutoff of 9.999
    Non-local pseudopotential parameters
    Maximum angular mementum = 0
    Number of non-local channels = 1
       l(0)=0
    Cutoff radius = 1.03
    Spherical grids and weights: 
                        1                 0                 0       0.08333333333
                       -1   1.224646799e-16                 0       0.08333333333
             0.4472135955       0.894427191                 0       0.08333333333
            -0.4472135955      0.7236067977      0.5257311121       0.08333333333
             0.4472135955      0.2763932023      0.8506508084       0.08333333333
            -0.4472135955     -0.2763932023      0.8506508084       0.08333333333
             0.4472135955     -0.7236067977      0.5257311121       0.08333333333
            -0.4472135955      -0.894427191   1.095357397e-16       0.08333333333
             0.4472135955     -0.7236067977     -0.5257311121       0.08333333333
            -0.4472135955     -0.2763932023     -0.8506508084       0.08333333333
             0.4472135955      0.2763932023     -0.8506508084       0.08333333333
            -0.4472135955      0.7236067977     -0.5257311121       0.08333333333
    Maximum cutoff radius 1.03
  QMCHamiltonian::addOperator LocalECP to H, physical Hamiltonian 

  Using NonLocalECP potential 
    Maximum grid on a sphere for NonLocalECPotential: 12
  QMCHamiltonian::addOperator NonLocalECP to H, physical Hamiltonian 
QMCHamiltonian::addOperatorType added type pseudo named PseudoPot

  QMCHamiltonian::add2WalkerProperty added
    4 to P::PropertyList 
    0 to P::Collectables 
    starting Index of the observables in P::PropertyList = 9
ParticleSetPool::randomize 
<init source="ion0" target="e">
</init>
  Initialization Execution time = 0.4035 secs
=========================================================
 Summary of QMC systems 
=========================================================
ParticleSetPool has: 

  ParticleSet e : 0 4 7 

    7

    u  3.8743704630e-01 -5.2106289422e-01  3.0214311157e+00
    u -1.9262405348e+00  9.5131329184e-01 -1.9134536847e+00
    u -8.5432261304e-01  8.8644548154e-01  2.0552297395e+00
    u -2.8249980506e-01  2.1658115603e+00 -9.6715058060e-01
    d -1.5096741897e+00  1.1623935882e+00 -4.7574892932e-01
    d  1.2836550520e+00  2.5162480386e-01  2.0546699253e+00
    d -6.6124881331e-01 -7.4433584872e-01 -1.0133936908e+00

  ParticleSet ion0 : 0 1 

    1

    F  0.0000000000e+00  0.0000000000e+00  0.0000000000e+00

  Hamiltonian h0
  Kinetic         Kinetic energy
  ElecElec        CoulombAA source/target e

  LocalECP        LocalECPotential: ion0
  NonLocalECP     NonLocalECPotential: ion0

=========================================================
  Start VMC
  File Root F.log.s000 append = no 
=========================================================
  Adding 1 walkers to 0 existing sets
  Total number of walkers: 1.0240000000e+03
  Total weight: 1.0240000000e+03
  Resetting Properties of the walkers 1 x 13

<vmc function="put">
  qmc_counter=0  my_counter=0
  time step      = 1.5000000000e-01
  blocks         = 200
  steps          = 1
  substeps       = 5
  current        = 0
  target samples = 1.0240000000e+03
  walkers/mpi    = 1

  stepsbetweensamples = 200
<parameter name="blocks" condition="int">200</parameter>
<parameter name="blocks_between_recompute" condition="int">0</parameter>
<parameter name="check_properties" condition="int">100</parameter>
<parameter name="checkproperties" condition="int">100</parameter>
<parameter name="current" condition="int">0</parameter>
<parameter name="dmcwalkersperthread" condition="real">1.0000000000e+00</parameter>
<parameter name="maxcpusecs" condition="real">3.6000000000e+05</parameter>
<parameter name="record_configs" condition="int">0</parameter>
<parameter name="record_walkers" condition="int">200</parameter>
<parameter name="recordconfigs" condition="int">0</parameter>
<parameter name="recordwalkers" condition="int">200</parameter>
<parameter name="rewind" condition="int">0</parameter>
<parameter name="samples" condition="real">1.0240000000e+03</parameter>
<parameter name="samplesperthread" condition="real">1.0000000000e+00</parameter>
<parameter name="steps" condition="int">1</parameter>
<parameter name="stepsbetweensamples" condition="int">200</parameter>
<parameter name="store_configs" condition="int">0</parameter>
<parameter name="storeconfigs" condition="int">0</parameter>
<parameter name="sub_steps" condition="int">5</parameter>
<parameter name="substeps" condition="int">5</parameter>
<parameter name="tau" condition="au">1.5000000000e-01</parameter>
<parameter name="time_step" condition="au">1.5000000000e-01</parameter>
<parameter name="timestep" condition="au">1.5000000000e-01</parameter>
<parameter name="use_drift" condition="string">no</parameter>
<parameter name="usedrift" condition="string">no</parameter>
<parameter name="walkers" condition="int">1</parameter>
<parameter name="warmup_steps" condition="int">100</parameter>
<parameter name="warmupsteps" condition="int">100</parameter>
  DumpConfig==false Nothing (configurations, state) will be saved.
  Walker Samples are dumped every 200 steps.
</vmc>
  Initial partition of walkers 0 1 

  Using Particle by Particle moves
  Walker moves without drift
  Total Sample Size   =1024
  Walker distribution on root = 0 1 
  Using Locality Approximation
===== Memory Usage after the buffer registration =====
Available memory on node 0, free + buffers : 83883 MB
Memory footprint by rank 0 on node 0       : 72 MB
==================================================
  Anonymous Buffer size per walker : 2688 Bytes.
MEMORY increase 0 MB VMC::resetRun
====================================================
  SimpleFixedNodeBranch::finalize after a VMC block
    QMC counter        = 0
    time step          = 0.15
    reference energy   = -24.1377
    reference variance = 0.942743
====================================================
  QMC Execution time = 1.4599e+00 secs
Loop execution max-interations = 20

=========================================================
  Start QMCFixedSampleLinearOptimize
  File Root F.log.s001 append = no 
=========================================================
  Skip QMCDriver::putQMCInfo 
  Resetting Properties of the walkers 1 x 13

=========================================================
  Start VMC
  File Root F.log.s001 append = no 
=========================================================
  Using the current 1 walkers.
  Total number of walkers: 1.0240e+03
  Total weight: 1.0240e+03
  Resetting Properties of the walkers 1 x 13

<vmc function="put">
  qmc_counter=0  my_counter=0
  time step      = 1.5000e-01
  blocks         = 300
  steps          = 2
  substeps       = 5
  current        = 0
  target samples = 5.1200e+05
  walkers/mpi    = 1

  stepsbetweensamples = 1
<parameter name="blocks" condition="int">300</parameter>
<parameter name="blocks_between_recompute" condition="int">0</parameter>
<parameter name="check_properties" condition="int">100</parameter>
<parameter name="checkproperties" condition="int">100</parameter>
<parameter name="current" condition="int">0</parameter>
<parameter name="dmcwalkersperthread" condition="real">5.0000e+02</parameter>
<parameter name="maxcpusecs" condition="real">3.6000e+05</parameter>
<parameter name="record_configs" condition="int">0</parameter>
<parameter name="record_walkers" condition="int">1</parameter>
<parameter name="recordconfigs" condition="int">0</parameter>
<parameter name="recordwalkers" condition="int">1</parameter>
<parameter name="rewind" condition="int">0</parameter>
<parameter name="samples" condition="real">5.1200e+05</parameter>
<parameter name="samplesperthread" condition="real">5.0000e+02</parameter>
<parameter name="steps" condition="int">2</parameter>
<parameter name="stepsbetweensamples" condition="int">1</parameter>
<parameter name="store_configs" condition="int">0</parameter>
<parameter name="storeconfigs" condition="int">0</parameter>
<parameter name="sub_steps" condition="int">5</parameter>
<parameter name="substeps" condition="int">5</parameter>
<parameter name="tau" condition="au">1.5000e-01</parameter>
<parameter name="time_step" condition="au">1.5000e-01</parameter>
<parameter name="timestep" condition="au">1.5000e-01</parameter>
<parameter name="use_drift" condition="string">no</parameter>
<parameter name="usedrift" condition="string">no</parameter>
<parameter name="walkers" condition="int">1</parameter>
<parameter name="warmup_steps" condition="int">0</parameter>
<parameter name="warmupsteps" condition="int">0</parameter>
  DumpConfig==false Nothing (configurations, state) will be saved.
  Walker Samples are dumped every 1 steps.
</vmc>
    Restarting, cummulative properties:
      energy     = -2.4138e+01
      variance   = 0.0000e+00
      r2accepted = 1.0000e-10
      r2proposed = 1.0000e-10
 Using QMCCostFunction::QMCCostFunction
  EstimatorManagerBase::add replace LocalEnergy estimator.
<optimization-report>
<vmc stage="main" blocks="300">
  Cannot make clones again. Use existing 1 clones
  Initial partition of walkers 0 1 

  Using Particle by Particle moves
  Walker moves without drift
  Total Sample Size   =512000
  Walker distribution on root = 0 1 
  Using Locality Approximation
===== Memory Usage after the buffer registration =====
Available memory on node 0, free + buffers : 83875 MB
Memory footprint by rank 0 on node 0       : 73 MB
==================================================
  Anonymous Buffer size per walker : 2688 Bytes.
MEMORY increase 0 MB VMC::resetRun
====================================================
  SimpleFixedNodeBranch::finalize after a VMC block
    QMC counter        = 1
    time step          = 0.15
    reference energy   = -24.1404
    reference variance = 0.284488
====================================================
  Execution time = 3.1906e+00
</vmc>
<opt stage="setup">
  <log>
   Reading configurations from h5FileRoot F.log.s001
  QMCCostFunction is created with 1 threads.
  Using Nonlocal PP in Opt: NonLocalECP
   Number of samples loaded to each thread : 500 
  VMC Eavg = -2.4156e+01
  VMC Evar = 4.5430e-01
  Total weights = 5.1200e+05
  Execution time = 1.2409e+00
  </log>
</opt>
<opt stage="main" walkers="512000">
  <log>

*****************************************
Building overlap and Hamiltonian matrices
*****************************************

Among totally 82 optimized parameters, largest LM parameter change : 1.5018e-01 at parameter 21

******************************************************************************
Init Cost =  -2.2925e+01    New Cost =  -2.2943e+01  Delta Cost =  -1.7501e-02
******************************************************************************

The new set of parameters is valid. Updating the trial wave function!

*****************************************************************************
Applying the update for shift_i =   1.0000e-02     and shift_s =   2.5000e-01
*****************************************************************************
  Execution time = 5.5449e+00
  </log>
  <optVariables href="F.log.s001.opt.xml">
uu_0 2.1368e-01 1 1  ON 0
uu_1 1.0004e-01 1 1  ON 1
uu_2 2.3451e-02 1 1  ON 2
uu_3 -2.2805e-02 1 1  ON 3
uu_4 -5.6925e-02 1 1  ON 4
uu_5 -7.6419e-02 1 1  ON 5
uu_6 -8.0921e-02 1 1  ON 6
uu_7 -7.6685e-02 1 1  ON 7
uu_8 -5.6806e-02 1 1  ON 8
uu_9 -2.9465e-02 1 1  ON 9
ud_0 3.7852e-01 1 1  ON 10
ud_1 1.5643e-01 1 1  ON 11
ud_2 2.7144e-02 1 1  ON 12
ud_3 -4.3361e-02 1 1  ON 13
ud_4 -8.1455e-02 1 1  ON 14
ud_5 -9.9172e-02 1 1  ON 15
ud_6 -1.0555e-01 1 1  ON 16
ud_7 -1.0267e-01 1 1  ON 17
ud_8 -8.3517e-02 1 1  ON 18
ud_9 -5.3161e-02 1 1  ON 19
eF_0 -7.5672e-01 1 1  ON 20
eF_1 -6.3897e-01 1 1  ON 21
eF_2 -2.2178e-01 1 1  ON 22
eF_3 1.8610e-01 1 1  ON 23
eF_4 3.6815e-01 1 1  ON 24
eF_5 3.1987e-01 1 1  ON 25
eF_6 3.4707e-01 1 1  ON 26
eF_7 2.9465e-01 1 1  ON 27
eF_8 1.7683e-01 1 1  ON 28
eF_9 3.6042e-03 1 1  ON 29
uuF_0 4.2041e-04 1 1  ON 30
uuF_1 1.7038e-04 1 1  ON 31
uuF_2 -5.0798e-04 1 1  ON 32
uuF_3 -6.8659e-04 1 1  ON 33
uuF_4 -2.9041e-04 1 1  ON 34
uuF_5 3.3588e-05 1 1  ON 35
uuF_6 -4.1695e-04 1 1  ON 36
uuF_7 7.2963e-05 1 1  ON 37
uuF_8 3.4452e-04 1 1  ON 38
uuF_9 -2.1045e-05 1 1  ON 39
uuF_10 -7.4115e-04 1 1  ON 40
uuF_11 8.7486e-04 1 1  ON 41
uuF_12 -3.7534e-04 1 1  ON 42
uuF_13 1.0644e-03 1 1  ON 43
uuF_14 4.3645e-04 1 1  ON 44
uuF_15 -1.5650e-05 1 1  ON 45
uuF_16 -4.3268e-04 1 1  ON 46
uuF_17 2.6601e-03 1 1  ON 47
uuF_18 -2.4350e-03 1 1  ON 48
uuF_19 5.5400e-04 1 1  ON 49
uuF_20 -4.6955e-04 1 1  ON 50
uuF_21 4.1656e-04 1 1  ON 51
uuF_22 -1.1752e-04 1 1  ON 52
uuF_23 2.2702e-04 1 1  ON 53
uuF_24 -1.5514e-04 1 1  ON 54
uuF_25 4.0984e-05 1 1  ON 55
udF_0 -1.6435e-04 1 1  ON 56
udF_1 4.7216e-04 1 1  ON 57
udF_2 1.1517e-03 1 1  ON 58
udF_3 -3.4572e-04 1 1  ON 59
udF_4 -4.3577e-04 1 1  ON 60
udF_5 -5.3502e-06 1 1  ON 61
udF_6 1.3049e-03 1 1  ON 62
udF_7 -7.9230e-05 1 1  ON 63
udF_8 1.5592e-03 1 1  ON 64
udF_9 -6.9984e-04 1 1  ON 65
udF_10 -2.6564e-04 1 1  ON 66
udF_11 -5.0439e-04 1 1  ON 67
udF_12 -6.1410e-04 1 1  ON 68
udF_13 5.5314e-04 1 1  ON 69
udF_14 4.5068e-04 1 1  ON 70
udF_15 1.5756e-05 1 1  ON 71
udF_16 8.3842e-04 1 1  ON 72
udF_17 1.1383e-03 1 1  ON 73
udF_18 -9.7761e-04 1 1  ON 74
udF_19 4.9279e-04 1 1  ON 75
udF_20 -6.3058e-04 1 1  ON 76
udF_21 3.0668e-04 1 1  ON 77
udF_22 -1.1160e-04 1 1  ON 78
udF_23 4.2137e-04 1 1  ON 79
udF_24 -1.9999e-04 1 1  ON 80
udF_25 5.0954e-05 1 1  ON 81
  </optVariables>
   Restore the number of walkers to 1, removing 0 walkers.
</opt>
</optimization-report>
  QMC Execution time = 5.5674e+00 secs
  Reusing QMCFixedSampleLinearOptimize
 Using QMCCostFunction::QMCCostFunction

=========================================================
  Start QMCFixedSampleLinearOptimize
  File Root F.log.s002 append = no 
=========================================================
  Skip QMCDriver::putQMCInfo 
  Resetting Properties of the walkers 1 x 13

=========================================================
  Start VMC
  File Root F.log.s002 append = no 
=========================================================
Using existing walkers 
  Resetting Properties of the walkers 1 x 13

<vmc function="put">
  qmc_counter=1  my_counter=1
  time step      = 1.5000e-01
  blocks         = 300
  steps          = 2
  substeps       = 5
  current        = 0
  target samples = 5.1200e+05
  walkers/mpi    = 1

  stepsbetweensamples = 1
<parameter name="blocks" condition="int">300</parameter>
<parameter name="blocks_between_recompute" condition="int">0</parameter>
<parameter name="check_properties" condition="int">100</parameter>
<parameter name="checkproperties" condition="int">100</parameter>
<parameter name="current" condition="int">0</parameter>
<parameter name="dmcwalkersperthread" condition="real">5.0000e+02</parameter>
<parameter name="maxcpusecs" condition="real">3.6000e+05</parameter>
<parameter name="record_configs" condition="int">0</parameter>
<parameter name="record_walkers" condition="int">1</parameter>
<parameter name="recordconfigs" condition="int">0</parameter>
<parameter name="recordwalkers" condition="int">1</parameter>
<parameter name="rewind" condition="int">0</parameter>
<parameter name="samples" condition="real">5.1200e+05</parameter>
<parameter name="samplesperthread" condition="real">5.0000e+02</parameter>
<parameter name="steps" condition="int">2</parameter>
<parameter name="stepsbetweensamples" condition="int">1</parameter>
<parameter name="store_configs" condition="int">0</parameter>
<parameter name="storeconfigs" condition="int">0</parameter>
<parameter name="sub_steps" condition="int">5</parameter>
<parameter name="substeps" condition="int">5</parameter>
<parameter name="tau" condition="au">1.5000e-01</parameter>
<parameter name="time_step" condition="au">1.5000e-01</parameter>
<parameter name="timestep" condition="au">1.5000e-01</parameter>
<parameter name="use_drift" condition="string">no</parameter>
<parameter name="usedrift" condition="string">no</parameter>
<parameter name="walkers" condition="int">1</parameter>
<parameter name="warmup_steps" condition="int">0</parameter>
<parameter name="warmupsteps" condition="int">0</parameter>
  DumpConfig==false Nothing (configurations, state) will be saved.
  Walker Samples are dumped every 1 steps.
</vmc>
  EstimatorManagerBase::add replace LocalEnergy estimator.
  EstimatorManagerBase::add replace LocalEnergy estimator.
<optimization-report>
<vmc stage="main" blocks="300">
  Cannot make clones again. Use existing 1 clones
  Initial partition of walkers 0 1 
  Using Particle by Particle moves
  Walker moves without drift
  Total Sample Size   =512000
  Walker distribution on root = 0 1 
  Using Locality Approximation
===== Memory Usage after the buffer registration =====
Available memory on node 0, free + buffers : 82757 MB
Memory footprint by rank 0 on node 0       : 93 MB
==================================================
====================================================
  SimpleFixedNodeBranch::finalize after a VMC block
    QMC counter        = 2
    time step          = 0.15
    reference energy   = -24.1923
    reference variance = 0.260035
====================================================
  Execution time = 3.4232e+00
</vmc>
<opt stage="setup">
  <log>
   Reading configurations from h5FileRoot F.log.s002
  QMCCostFunction is created with 1 threads.
  Using Nonlocal PP in Opt: NonLocalECP
   Number of samples loaded to each thread : 500 
  VMC Eavg = -2.4167e+01
  VMC Evar = 3.1920e-01
  Total weights = 5.1200e+05
  Execution time = 1.2218e+00
  </log>
</opt>
<opt stage="main" walkers="512000">
  <log>

*****************************************
Building overlap and Hamiltonian matrices
*****************************************

Among totally 82 optimized parameters, largest LM parameter change : 1.0508e-01 at parameter 21

******************************************************************************
Init Cost =  -2.2943e+01    New Cost =  -2.2944e+01  Delta Cost =  -1.1842e-03
******************************************************************************

The new set of parameters is valid. Updating the trial wave function!

*****************************************************************************
Applying the update for shift_i =   1.0000e-02     and shift_s =   6.2500e-02
*****************************************************************************
  Execution time = 5.7475e+00
  </log>
  <optVariables href="F.log.s002.opt.xml">
uu_0 1.9914e-01 1 1  ON 0
uu_1 8.6331e-02 1 1  ON 1
uu_2 1.4343e-02 1 1  ON 2
uu_3 -2.3714e-02 1 1  ON 3
uu_4 -5.1516e-02 1 1  ON 4
uu_5 -6.8855e-02 1 1  ON 5
uu_6 -7.4014e-02 1 1  ON 6
uu_7 -7.2541e-02 1 1  ON 7
uu_8 -5.4123e-02 1 1  ON 8
uu_9 -2.2124e-02 1 1  ON 9
ud_0 3.8061e-01 1 1  ON 10
ud_1 1.5629e-01 1 1  ON 11
ud_2 2.6011e-02 1 1  ON 12
ud_3 -4.3092e-02 1 1  ON 13
ud_4 -7.8637e-02 1 1  ON 14
ud_5 -9.4258e-02 1 1  ON 15
ud_6 -9.9891e-02 1 1  ON 16
ud_7 -1.0240e-01 1 1  ON 17
ud_8 -8.5927e-02 1 1  ON 18
ud_9 -5.4212e-02 1 1  ON 19
eF_0 -8.2723e-01 1 1  ON 20
eF_1 -7.4405e-01 1 1  ON 21
eF_2 -2.6268e-01 1 1  ON 22
eF_3 2.4822e-01 1 1  ON 23
eF_4 4.5764e-01 1 1  ON 24
eF_5 3.2827e-01 1 1  ON 25
eF_6 3.6133e-01 1 1  ON 26
eF_7 3.1400e-01 1 1  ON 27
eF_8 1.9582e-01 1 1  ON 28
eF_9 1.1689e-02 1 1  ON 29
uuF_0 4.3918e-04 1 1  ON 30
uuF_1 2.2166e-04 1 1  ON 31
uuF_2 -6.6584e-04 1 1  ON 32
uuF_3 -6.9274e-04 1 1  ON 33
uuF_4 -2.9490e-04 1 1  ON 34
uuF_5 5.2643e-05 1 1  ON 35
uuF_6 -4.0934e-04 1 1  ON 36
uuF_7 1.1464e-04 1 1  ON 37
uuF_8 -5.5796e-05 1 1  ON 38
uuF_9 -3.4971e-06 1 1  ON 39
uuF_10 -7.8936e-04 1 1  ON 40
uuF_11 1.2030e-03 1 1  ON 41
uuF_12 -2.7845e-04 1 1  ON 42
uuF_13 8.9487e-04 1 1  ON 43
uuF_14 3.3033e-04 1 1  ON 44
uuF_15 -1.5944e-05 1 1  ON 45
uuF_16 -2.8553e-04 1 1  ON 46
uuF_17 2.4814e-03 1 1  ON 47
uuF_18 -2.7826e-03 1 1  ON 48
uuF_19 6.2163e-04 1 1  ON 49
uuF_20 -3.8957e-04 1 1  ON 50
uuF_21 4.8391e-04 1 1  ON 51
uuF_22 -1.4207e-04 1 1  ON 52
uuF_23 1.9297e-04 1 1  ON 53
uuF_24 -1.7100e-04 1 1  ON 54
uuF_25 4.6791e-05 1 1  ON 55
udF_0 -1.4752e-04 1 1  ON 56
udF_1 5.0381e-04 1 1  ON 57
udF_2 1.1217e-03 1 1  ON 58
udF_3 -3.5061e-04 1 1  ON 59
udF_4 -4.3556e-04 1 1  ON 60
udF_5 2.5693e-05 1 1  ON 61
udF_6 1.2505e-03 1 1  ON 62
udF_7 1.2791e-05 1 1  ON 63
udF_8 1.5364e-03 1 1  ON 64
udF_9 -6.3184e-04 1 1  ON 65
udF_10 -2.4936e-04 1 1  ON 66
udF_11 -5.3394e-04 1 1  ON 67
udF_12 -6.4227e-04 1 1  ON 68
udF_13 4.6641e-04 1 1  ON 69
udF_14 4.9547e-04 1 1  ON 70
udF_15 1.2881e-05 1 1  ON 71
udF_16 8.4700e-04 1 1  ON 72
udF_17 1.1170e-03 1 1  ON 73
udF_18 -9.6502e-04 1 1  ON 74
udF_19 5.5135e-04 1 1  ON 75
udF_20 -5.8141e-04 1 1  ON 76
udF_21 2.6383e-04 1 1  ON 77
udF_22 -1.1338e-04 1 1  ON 78
udF_23 3.8943e-04 1 1  ON 79
udF_24 -1.8302e-04 1 1  ON 80
udF_25 4.6418e-05 1 1  ON 81
  </optVariables>
   Restore the number of walkers to 1, removing 0 walkers.
</opt>
</optimization-report>
  QMC Execution time = 5.7619e+00 secs
  Reusing QMCFixedSampleLinearOptimize
 Using QMCCostFunction::QMCCostFunction

=========================================================
  Start QMCFixedSampleLinearOptimize
  File Root F.log.s003 append = no 
=========================================================
  Skip QMCDriver::putQMCInfo 
  Resetting Properties of the walkers 1 x 13

=========================================================
  Start VMC
  File Root F.log.s003 append = no 
=========================================================
Using existing walkers 
  Resetting Properties of the walkers 1 x 13

<vmc function="put">
  qmc_counter=2  my_counter=2
  time step      = 1.5000e-01
  blocks         = 300
  steps          = 2
  substeps       = 5
  current        = 0
  target samples = 5.1200e+05
  walkers/mpi    = 1

  stepsbetweensamples = 1
<parameter name="blocks" condition="int">300</parameter>
<parameter name="blocks_between_recompute" condition="int">0</parameter>
<parameter name="check_properties" condition="int">100</parameter>
<parameter name="checkproperties" condition="int">100</parameter>
<parameter name="current" condition="int">0</parameter>
<parameter name="dmcwalkersperthread" condition="real">5.0000e+02</parameter>
<parameter name="maxcpusecs" condition="real">3.6000e+05</parameter>
<parameter name="record_configs" condition="int">0</parameter>
<parameter name="record_walkers" condition="int">1</parameter>
<parameter name="recordconfigs" condition="int">0</parameter>
<parameter name="recordwalkers" condition="int">1</parameter>
<parameter name="rewind" condition="int">0</parameter>
<parameter name="samples" condition="real">5.1200e+05</parameter>
<parameter name="samplesperthread" condition="real">5.0000e+02</parameter>
<parameter name="steps" condition="int">2</parameter>
<parameter name="stepsbetweensamples" condition="int">1</parameter>
<parameter name="store_configs" condition="int">0</parameter>
<parameter name="storeconfigs" condition="int">0</parameter>
<parameter name="sub_steps" condition="int">5</parameter>
<parameter name="substeps" condition="int">5</parameter>
<parameter name="tau" condition="au">1.5000e-01</parameter>
<parameter name="time_step" condition="au">1.5000e-01</parameter>
<parameter name="timestep" condition="au">1.5000e-01</parameter>
<parameter name="use_drift" condition="string">no</parameter>
<parameter name="usedrift" condition="string">no</parameter>
<parameter name="walkers" condition="int">1</parameter>
<parameter name="warmup_steps" condition="int">0</parameter>
<parameter name="warmupsteps" condition="int">0</parameter>
  DumpConfig==false Nothing (configurations, state) will be saved.
  Walker Samples are dumped every 1 steps.
</vmc>
  EstimatorManagerBase::add replace LocalEnergy estimator.
  EstimatorManagerBase::add replace LocalEnergy estimator.
<optimization-report>
<vmc stage="main" blocks="300">
  Cannot make clones again. Use existing 1 clones
  Initial partition of walkers 0 1 
  Using Particle by Particle moves
  Walker moves without drift
  Total Sample Size   =512000
  Walker distribution on root = 0 1 
  Using Locality Approximation
===== Memory Usage after the buffer registration =====
Available memory on node 0, free + buffers : 82755 MB
Memory footprint by rank 0 on node 0       : 96 MB
==================================================
====================================================
  SimpleFixedNodeBranch::finalize after a VMC block
    QMC counter        = 3
    time step          = 0.15
    reference energy   = -24.1809
    reference variance = 0.262765
====================================================
  Execution time = 3.1118e+00
</vmc>
<opt stage="setup">
  <log>
   Reading configurations from h5FileRoot F.log.s003
  QMCCostFunction is created with 1 threads.
  Using Nonlocal PP in Opt: NonLocalECP
   Number of samples loaded to each thread : 500 
  VMC Eavg = -2.4169e+01
  VMC Evar = 3.2066e-01
  Total weights = 5.1200e+05
  Execution time = 1.1909e+00
  </log>
</opt>
<opt stage="main" walkers="512000">
  <log>

*****************************************
Building overlap and Hamiltonian matrices
*****************************************

Among totally 82 optimized parameters, largest LM parameter change : 6.7096e-02 at parameter 21

******************************************************************************
Init Cost =  -2.2944e+01    New Cost =  -2.2945e+01  Delta Cost =  -3.2534e-04
******************************************************************************

The new set of parameters is valid. Updating the trial wave function!

*****************************************************************************
Applying the update for shift_i =   1.0000e-02     and shift_s =   1.5625e-02
*****************************************************************************
  Execution time = 5.3290e+00
  </log>
  <optVariables href="F.log.s003.opt.xml">
uu_0 1.8521e-01 1 1  ON 0
uu_1 7.3582e-02 1 1  ON 1
uu_2 7.2989e-03 1 1  ON 2
uu_3 -2.3848e-02 1 1  ON 3
uu_4 -4.6582e-02 1 1  ON 4
uu_5 -6.2214e-02 1 1  ON 5
uu_6 -6.6786e-02 1 1  ON 6
uu_7 -6.8150e-02 1 1  ON 7
uu_8 -5.0485e-02 1 1  ON 8
uu_9 -2.1079e-02 1 1  ON 9
ud_0 3.7666e-01 1 1  ON 10
ud_1 1.5260e-01 1 1  ON 11
ud_2 2.4363e-02 1 1  ON 12
ud_3 -4.2437e-02 1 1  ON 13
ud_4 -7.4827e-02 1 1  ON 14
ud_5 -8.9091e-02 1 1  ON 15
ud_6 -9.4570e-02 1 1  ON 16
ud_7 -1.0026e-01 1 1  ON 17
ud_8 -8.5595e-02 1 1  ON 18
ud_9 -5.4009e-02 1 1  ON 19
eF_0 -8.8757e-01 1 1  ON 20
eF_1 -8.1115e-01 1 1  ON 21
eF_2 -2.9654e-01 1 1  ON 22
eF_3 2.7349e-01 1 1  ON 23
eF_4 5.0742e-01 1 1  ON 24
eF_5 3.4575e-01 1 1  ON 25
eF_6 3.8533e-01 1 1  ON 26
eF_7 3.3694e-01 1 1  ON 27
eF_8 2.1498e-01 1 1  ON 28
eF_9 2.0129e-02 1 1  ON 29
uuF_0 5.0878e-04 1 1  ON 30
uuF_1 2.6059e-04 1 1  ON 31
uuF_2 -8.1428e-04 1 1  ON 32
uuF_3 -7.7690e-04 1 1  ON 33
uuF_4 -3.3768e-04 1 1  ON 34
uuF_5 7.7871e-05 1 1  ON 35
uuF_6 -4.4906e-04 1 1  ON 36
uuF_7 -3.2564e-05 1 1  ON 37
uuF_8 -3.5785e-05 1 1  ON 38
uuF_9 -9.6131e-06 1 1  ON 39
uuF_10 -9.2441e-04 1 1  ON 40
uuF_11 1.4636e-03 1 1  ON 41
uuF_12 -4.0579e-04 1 1  ON 42
uuF_13 1.1379e-03 1 1  ON 43
uuF_14 4.5571e-04 1 1  ON 44
uuF_15 -1.6370e-05 1 1  ON 45
uuF_16 -2.8551e-04 1 1  ON 46
uuF_17 3.0285e-03 1 1  ON 47
uuF_18 -3.1988e-03 1 1  ON 48
uuF_19 8.1613e-04 1 1  ON 49
uuF_20 -5.8850e-04 1 1  ON 50
uuF_21 4.8521e-04 1 1  ON 51
uuF_22 -1.6510e-04 1 1  ON 52
uuF_23 3.2653e-04 1 1  ON 53
uuF_24 -1.8607e-04 1 1  ON 54
uuF_25 5.0580e-05 1 1  ON 55
udF_0 -1.5211e-04 1 1  ON 56
udF_1 5.4309e-04 1 1  ON 57
udF_2 1.0433e-03 1 1  ON 58
udF_3 -4.0095e-04 1 1  ON 59
udF_4 -4.7264e-04 1 1  ON 60
udF_5 4.4232e-05 1 1  ON 61
udF_6 1.2578e-03 1 1  ON 62
udF_7 -1.8028e-04 1 1  ON 63
udF_8 1.5119e-03 1 1  ON 64
udF_9 -5.6552e-04 1 1  ON 65
udF_10 -3.4365e-04 1 1  ON 66
udF_11 -2.1475e-04 1 1  ON 67
udF_12 -7.7586e-04 1 1  ON 68
udF_13 5.4764e-04 1 1  ON 69
udF_14 5.8308e-04 1 1  ON 70
udF_15 2.0597e-05 1 1  ON 71
udF_16 6.3426e-04 1 1  ON 72
udF_17 1.5051e-03 1 1  ON 73
udF_18 -1.4101e-03 1 1  ON 74
udF_19 7.8330e-04 1 1  ON 75
udF_20 -5.6303e-04 1 1  ON 76
udF_21 2.6698e-04 1 1  ON 77
udF_22 -1.4836e-04 1 1  ON 78
udF_23 3.8536e-04 1 1  ON 79
udF_24 -1.7943e-04 1 1  ON 80
udF_25 5.0972e-05 1 1  ON 81
  </optVariables>
   Restore the number of walkers to 1, removing 0 walkers.
</opt>
</optimization-report>
  QMC Execution time = 5.3629e+00 secs
  Reusing QMCFixedSampleLinearOptimize
 Using QMCCostFunction::QMCCostFunction

=========================================================
  Start QMCFixedSampleLinearOptimize
  File Root F.log.s004 append = no 
=========================================================
  Skip QMCDriver::putQMCInfo 
  Resetting Properties of the walkers 1 x 13

=========================================================
  Start VMC
  File Root F.log.s004 append = no 
=========================================================
Using existing walkers 
  Resetting Properties of the walkers 1 x 13

<vmc function="put">
  qmc_counter=3  my_counter=3
  time step      = 1.5000e-01
  blocks         = 300
  steps          = 2
  substeps       = 5
  current        = 0
  target samples = 5.1200e+05
  walkers/mpi    = 1

  stepsbetweensamples = 1
<parameter name="blocks" condition="int">300</parameter>
<parameter name="blocks_between_recompute" condition="int">0</parameter>
<parameter name="check_properties" condition="int">100</parameter>
<parameter name="checkproperties" condition="int">100</parameter>
<parameter name="current" condition="int">0</parameter>
<parameter name="dmcwalkersperthread" condition="real">5.0000e+02</parameter>
<parameter name="maxcpusecs" condition="real">3.6000e+05</parameter>
<parameter name="record_configs" condition="int">0</parameter>
<parameter name="record_walkers" condition="int">1</parameter>
<parameter name="recordconfigs" condition="int">0</parameter>
<parameter name="recordwalkers" condition="int">1</parameter>
<parameter name="rewind" condition="int">0</parameter>
<parameter name="samples" condition="real">5.1200e+05</parameter>
<parameter name="samplesperthread" condition="real">5.0000e+02</parameter>
<parameter name="steps" condition="int">2</parameter>
<parameter name="stepsbetweensamples" condition="int">1</parameter>
<parameter name="store_configs" condition="int">0</parameter>
<parameter name="storeconfigs" condition="int">0</parameter>
<parameter name="sub_steps" condition="int">5</parameter>
<parameter name="substeps" condition="int">5</parameter>
<parameter name="tau" condition="au">1.5000e-01</parameter>
<parameter name="time_step" condition="au">1.5000e-01</parameter>
<parameter name="timestep" condition="au">1.5000e-01</parameter>
<parameter name="use_drift" condition="string">no</parameter>
<parameter name="usedrift" condition="string">no</parameter>
<parameter name="walkers" condition="int">1</parameter>
<parameter name="warmup_steps" condition="int">0</parameter>
<parameter name="warmupsteps" condition="int">0</parameter>
  DumpConfig==false Nothing (configurations, state) will be saved.
  Walker Samples are dumped every 1 steps.
</vmc>
  EstimatorManagerBase::add replace LocalEnergy estimator.
  EstimatorManagerBase::add replace LocalEnergy estimator.
<optimization-report>
<vmc stage="main" blocks="300">
  Cannot make clones again. Use existing 1 clones
  Initial partition of walkers 0 1 
  Using Particle by Particle moves
  Walker moves without drift
  Total Sample Size   =512000
  Walker distribution on root = 0 1 
  Using Locality Approximation
===== Memory Usage after the buffer registration =====
Available memory on node 0, free + buffers : 82752 MB
Memory footprint by rank 0 on node 0       : 98 MB
==================================================
====================================================
  SimpleFixedNodeBranch::finalize after a VMC block
    QMC counter        = 4
    time step          = 0.15
    reference energy   = -24.1809
    reference variance = 0.220797
====================================================
  Execution time = 3.0610e+00
</vmc>
<opt stage="setup">
  <log>
   Reading configurations from h5FileRoot F.log.s004
  QMCCostFunction is created with 1 threads.
  Using Nonlocal PP in Opt: NonLocalECP
   Number of samples loaded to each thread : 500 
  VMC Eavg = -2.4170e+01
  VMC Evar = 3.2614e-01
  Total weights = 5.1200e+05
  Execution time = 1.2034e+00
  </log>
</opt>
<opt stage="main" walkers="512000">
  <log>

*****************************************
Building overlap and Hamiltonian matrices
*****************************************

Among totally 82 optimized parameters, largest LM parameter change : 5.0657e-02 at parameter 20

******************************************************************************
Init Cost =  -2.2945e+01    New Cost =  -2.2946e+01  Delta Cost =  -2.4773e-04
******************************************************************************

The new set of parameters is valid. Updating the trial wave function!

*****************************************************************************
Applying the update for shift_i =   1.0000e-02     and shift_s =   3.9062e-03
*****************************************************************************
  Execution time = 5.3197e+00
  </log>
  <optVariables href="F.log.s004.opt.xml">
uu_0 1.7223e-01 1 1  ON 0
uu_1 6.4003e-02 1 1  ON 1
uu_2 3.4763e-03 1 1  ON 2
uu_3 -2.3468e-02 1 1  ON 3
uu_4 -4.3600e-02 1 1  ON 4
uu_5 -5.8743e-02 1 1  ON 5
uu_6 -6.3756e-02 1 1  ON 6
uu_7 -6.6252e-02 1 1  ON 7
uu_8 -5.1262e-02 1 1  ON 8
uu_9 -1.8527e-02 1 1  ON 9
ud_0 3.7201e-01 1 1  ON 10
ud_1 1.4965e-01 1 1  ON 11
ud_2 2.4397e-02 1 1  ON 12
ud_3 -3.9721e-02 1 1  ON 13
ud_4 -7.0504e-02 1 1  ON 14
ud_5 -8.4443e-02 1 1  ON 15
ud_6 -8.9936e-02 1 1  ON 16
ud_7 -9.6152e-02 1 1  ON 17
ud_8 -8.6259e-02 1 1  ON 18
ud_9 -5.6387e-02 1 1  ON 19
eF_0 -9.3823e-01 1 1  ON 20
eF_1 -8.5661e-01 1 1  ON 21
eF_2 -3.2450e-01 1 1  ON 22
eF_3 2.7962e-01 1 1  ON 23
eF_4 5.3552e-01 1 1  ON 24
eF_5 3.6528e-01 1 1  ON 25
eF_6 4.0724e-01 1 1  ON 26
eF_7 3.5836e-01 1 1  ON 27
eF_8 2.3503e-01 1 1  ON 28
eF_9 2.9755e-02 1 1  ON 29
uuF_0 4.9011e-04 1 1  ON 30
uuF_1 2.1091e-04 1 1  ON 31
uuF_2 -9.4303e-04 1 1  ON 32
uuF_3 -7.2364e-04 1 1  ON 33
uuF_4 -3.0270e-04 1 1  ON 34
uuF_5 1.0055e-04 1 1  ON 35
uuF_6 -6.3496e-04 1 1  ON 36
uuF_7 1.3187e-05 1 1  ON 37
uuF_8 -2.2215e-04 1 1  ON 38
uuF_9 1.6642e-04 1 1  ON 39
uuF_10 -8.8421e-04 1 1  ON 40
uuF_11 1.5432e-03 1 1  ON 41
uuF_12 -3.8865e-04 1 1  ON 42
uuF_13 9.9489e-04 1 1  ON 43
uuF_14 4.4888e-04 1 1  ON 44
uuF_15 -1.6674e-05 1 1  ON 45
uuF_16 -5.3879e-04 1 1  ON 46
uuF_17 2.9045e-03 1 1  ON 47
uuF_18 -3.1131e-03 1 1  ON 48
uuF_19 8.5128e-04 1 1  ON 49
uuF_20 -4.3189e-04 1 1  ON 50
uuF_21 3.9606e-04 1 1  ON 51
uuF_22 -1.5883e-04 1 1  ON 52
uuF_23 2.6938e-04 1 1  ON 53
uuF_24 -1.4114e-04 1 1  ON 54
uuF_25 4.1592e-05 1 1  ON 55
udF_0 -1.2750e-04 1 1  ON 56
udF_1 5.8485e-04 1 1  ON 57
udF_2 1.0817e-03 1 1  ON 58
udF_3 -4.5112e-04 1 1  ON 59
udF_4 -5.2883e-04 1 1  ON 60
udF_5 6.1851e-05 1 1  ON 61
udF_6 1.3492e-03 1 1  ON 62
udF_7 -2.9151e-04 1 1  ON 63
udF_8 1.6986e-03 1 1  ON 64
udF_9 -6.5845e-04 1 1  ON 65
udF_10 -4.2137e-04 1 1  ON 66
udF_11 -2.1151e-04 1 1  ON 67
udF_12 -9.0407e-04 1 1  ON 68
udF_13 7.2662e-04 1 1  ON 69
udF_14 6.8000e-04 1 1  ON 70
udF_15 2.5805e-05 1 1  ON 71
udF_16 8.0785e-04 1 1  ON 72
udF_17 1.7538e-03 1 1  ON 73
udF_18 -1.4916e-03 1 1  ON 74
udF_19 9.0181e-04 1 1  ON 75
udF_20 -7.3866e-04 1 1  ON 76
udF_21 2.5304e-04 1 1  ON 77
udF_22 -1.6295e-04 1 1  ON 78
udF_23 4.7737e-04 1 1  ON 79
udF_24 -1.9006e-04 1 1  ON 80
udF_25 5.4251e-05 1 1  ON 81
  </optVariables>
   Restore the number of walkers to 1, removing 0 walkers.
</opt>
</optimization-report>
  QMC Execution time = 5.3458e+00 secs
  Reusing QMCFixedSampleLinearOptimize
 Using QMCCostFunction::QMCCostFunction

=========================================================
  Start QMCFixedSampleLinearOptimize
  File Root F.log.s005 append = no 
=========================================================
  Skip QMCDriver::putQMCInfo 
  Resetting Properties of the walkers 1 x 13

=========================================================
  Start VMC
  File Root F.log.s005 append = no 
=========================================================
Using existing walkers 
  Resetting Properties of the walkers 1 x 13

<vmc function="put">
  qmc_counter=4  my_counter=4
  time step      = 1.5000e-01
  blocks         = 300
  steps          = 2
  substeps       = 5
  current        = 0
  target samples = 5.1200e+05
  walkers/mpi    = 1

  stepsbetweensamples = 1
<parameter name="blocks" condition="int">300</parameter>
<parameter name="blocks_between_recompute" condition="int">0</parameter>
<parameter name="check_properties" condition="int">100</parameter>
<parameter name="checkproperties" condition="int">100</parameter>
<parameter name="current" condition="int">0</parameter>
<parameter name="dmcwalkersperthread" condition="real">5.0000e+02</parameter>
<parameter name="maxcpusecs" condition="real">3.6000e+05</parameter>
<parameter name="record_configs" condition="int">0</parameter>
<parameter name="record_walkers" condition="int">1</parameter>
<parameter name="recordconfigs" condition="int">0</parameter>
<parameter name="recordwalkers" condition="int">1</parameter>
<parameter name="rewind" condition="int">0</parameter>
<parameter name="samples" condition="real">5.1200e+05</parameter>
<parameter name="samplesperthread" condition="real">5.0000e+02</parameter>
<parameter name="steps" condition="int">2</parameter>
<parameter name="stepsbetweensamples" condition="int">1</parameter>
<parameter name="store_configs" condition="int">0</parameter>
<parameter name="storeconfigs" condition="int">0</parameter>
<parameter name="sub_steps" condition="int">5</parameter>
<parameter name="substeps" condition="int">5</parameter>
<parameter name="tau" condition="au">1.5000e-01</parameter>
<parameter name="time_step" condition="au">1.5000e-01</parameter>
<parameter name="timestep" condition="au">1.5000e-01</parameter>
<parameter name="use_drift" condition="string">no</parameter>
<parameter name="usedrift" condition="string">no</parameter>
<parameter name="walkers" condition="int">1</parameter>
<parameter name="warmup_steps" condition="int">0</parameter>
<parameter name="warmupsteps" condition="int">0</parameter>
  DumpConfig==false Nothing (configurations, state) will be saved.
  Walker Samples are dumped every 1 steps.
</vmc>
  EstimatorManagerBase::add replace LocalEnergy estimator.
  EstimatorManagerBase::add replace LocalEnergy estimator.
<optimization-report>
<vmc stage="main" blocks="300">
  Cannot make clones again. Use existing 1 clones
  Initial partition of walkers 0 1 
  Using Particle by Particle moves
  Walker moves without drift
  Total Sample Size   =512000
  Walker distribution on root = 0 1 
  Using Locality Approximation
===== Memory Usage after the buffer registration =====
Available memory on node 0, free + buffers : 82749 MB
Memory footprint by rank 0 on node 0       : 100 MB
==================================================
====================================================
  SimpleFixedNodeBranch::finalize after a VMC block
    QMC counter        = 5
    time step          = 0.15
    reference energy   = -24.1633
    reference variance = 0.260327
====================================================
  Execution time = 3.0340e+00
</vmc>
<opt stage="setup">
  <log>
   Reading configurations from h5FileRoot F.log.s005
  QMCCostFunction is created with 1 threads.
  Using Nonlocal PP in Opt: NonLocalECP
   Number of samples loaded to each thread : 500 
  VMC Eavg = -2.4171e+01
  VMC Evar = 3.1475e-01
  Total weights = 5.1200e+05
  Execution time = 1.1515e+00
  </log>
</opt>
<opt stage="main" walkers="512000">
  <log>

*****************************************
Building overlap and Hamiltonian matrices
*****************************************

Among totally 82 optimized parameters, largest LM parameter change : 4.1984e-02 at parameter 20

******************************************************************************
Init Cost =  -2.2947e+01    New Cost =  -2.2947e+01  Delta Cost =  -1.2788e-04
******************************************************************************

The new set of parameters is valid. Updating the trial wave function!

*****************************************************************************
Applying the update for shift_i =   1.0000e-02     and shift_s =   3.9062e-03
*****************************************************************************
  Execution time = 5.2289e+00
  </log>
  <optVariables href="F.log.s005.opt.xml">
uu_0 1.6293e-01 1 1  ON 0
uu_1 5.7200e-02 1 1  ON 1
uu_2 -5.8480e-06 1 1  ON 2
uu_3 -2.3208e-02 1 1  ON 3
uu_4 -4.1523e-02 1 1  ON 4
uu_5 -5.6958e-02 1 1  ON 5
uu_6 -6.3390e-02 1 1  ON 6
uu_7 -6.6858e-02 1 1  ON 7
uu_8 -5.3159e-02 1 1  ON 8
uu_9 -1.8016e-02 1 1  ON 9
ud_0 3.6867e-01 1 1  ON 10
ud_1 1.4761e-01 1 1  ON 11
ud_2 2.3579e-02 1 1  ON 12
ud_3 -3.9054e-02 1 1  ON 13
ud_4 -6.8749e-02 1 1  ON 14
ud_5 -8.1895e-02 1 1  ON 15
ud_6 -8.7072e-02 1 1  ON 16
ud_7 -9.4527e-02 1 1  ON 17
ud_8 -8.4695e-02 1 1  ON 18
ud_9 -5.2904e-02 1 1  ON 19
eF_0 -9.8021e-01 1 1  ON 20
eF_1 -8.9714e-01 1 1  ON 21
eF_2 -3.5216e-01 1 1  ON 22
eF_3 2.7594e-01 1 1  ON 23
eF_4 5.5251e-01 1 1  ON 24
eF_5 3.8207e-01 1 1  ON 25
eF_6 4.2730e-01 1 1  ON 26
eF_7 3.8081e-01 1 1  ON 27
eF_8 2.5818e-01 1 1  ON 28
eF_9 4.4956e-02 1 1  ON 29
uuF_0 4.8357e-04 1 1  ON 30
uuF_1 2.2723e-04 1 1  ON 31
uuF_2 -8.9744e-04 1 1  ON 32
uuF_3 -7.2134e-04 1 1  ON 33
uuF_4 -3.3011e-04 1 1  ON 34
uuF_5 1.1739e-04 1 1  ON 35
uuF_6 -6.0708e-04 1 1  ON 36
uuF_7 4.6071e-05 1 1  ON 37
uuF_8 -1.0787e-04 1 1  ON 38
uuF_9 1.5291e-04 1 1  ON 39
uuF_10 -8.9067e-04 1 1  ON 40
uuF_11 1.4040e-03 1 1  ON 41
uuF_12 -4.3921e-04 1 1  ON 42
uuF_13 1.0004e-03 1 1  ON 43
uuF_14 4.8988e-04 1 1  ON 44
uuF_15 -1.4833e-05 1 1  ON 45
uuF_16 -4.5249e-04 1 1  ON 46
uuF_17 2.8277e-03 1 1  ON 47
uuF_18 -2.8829e-03 1 1  ON 48
uuF_19 8.5487e-04 1 1  ON 49
uuF_20 -4.5129e-04 1 1  ON 50
uuF_21 3.2542e-04 1 1  ON 51
uuF_22 -1.4795e-04 1 1  ON 52
uuF_23 2.8160e-04 1 1  ON 53
uuF_24 -1.2167e-04 1 1  ON 54
uuF_25 3.5323e-05 1 1  ON 55
udF_0 -1.3078e-04 1 1  ON 56
udF_1 5.5403e-04 1 1  ON 57
udF_2 9.9938e-04 1 1  ON 58
udF_3 -4.1565e-04 1 1  ON 59
udF_4 -4.9548e-04 1 1  ON 60
udF_5 7.4378e-05 1 1  ON 61
udF_6 1.2127e-03 1 1  ON 62
udF_7 -1.6803e-04 1 1  ON 63
udF_8 1.5650e-03 1 1  ON 64
udF_9 -5.5004e-04 1 1  ON 65
udF_10 -3.8297e-04 1 1  ON 66
udF_11 -2.0992e-04 1 1  ON 67
udF_12 -8.5365e-04 1 1  ON 68
udF_13 6.1347e-04 1 1  ON 69
udF_14 6.6027e-04 1 1  ON 70
udF_15 2.1462e-05 1 1  ON 71
udF_16 6.2957e-04 1 1  ON 72
udF_17 1.6454e-03 1 1  ON 73
udF_18 -1.4418e-03 1 1  ON 74
udF_19 8.8502e-04 1 1  ON 75
udF_20 -5.9657e-04 1 1  ON 76
udF_21 2.1798e-04 1 1  ON 77
udF_22 -1.5711e-04 1 1  ON 78
udF_23 4.0624e-04 1 1  ON 79
udF_24 -1.6415e-04 1 1  ON 80
udF_25 4.9279e-05 1 1  ON 81
  </optVariables>
   Restore the number of walkers to 1, removing 0 walkers.
</opt>
</optimization-report>
  QMC Execution time = 5.2430e+00 secs
  Reusing QMCFixedSampleLinearOptimize
 Using QMCCostFunction::QMCCostFunction

=========================================================
  Start QMCFixedSampleLinearOptimize
  File Root F.log.s006 append = no 
=========================================================
  Skip QMCDriver::putQMCInfo 
  Resetting Properties of the walkers 1 x 13

=========================================================
  Start VMC
  File Root F.log.s006 append = no 
=========================================================
Using existing walkers 
  Resetting Properties of the walkers 1 x 13

<vmc function="put">
  qmc_counter=5  my_counter=5
  time step      = 1.5000e-01
  blocks         = 300
  steps          = 2
  substeps       = 5
  current        = 0
  target samples = 5.1200e+05
  walkers/mpi    = 1

  stepsbetweensamples = 1
<parameter name="blocks" condition="int">300</parameter>
<parameter name="blocks_between_recompute" condition="int">0</parameter>
<parameter name="check_properties" condition="int">100</parameter>
<parameter name="checkproperties" condition="int">100</parameter>
<parameter name="current" condition="int">0</parameter>
<parameter name="dmcwalkersperthread" condition="real">5.0000e+02</parameter>
<parameter name="maxcpusecs" condition="real">3.6000e+05</parameter>
<parameter name="record_configs" condition="int">0</parameter>
<parameter name="record_walkers" condition="int">1</parameter>
<parameter name="recordconfigs" condition="int">0</parameter>
<parameter name="recordwalkers" condition="int">1</parameter>
<parameter name="rewind" condition="int">0</parameter>
<parameter name="samples" condition="real">5.1200e+05</parameter>
<parameter name="samplesperthread" condition="real">5.0000e+02</parameter>
<parameter name="steps" condition="int">2</parameter>
<parameter name="stepsbetweensamples" condition="int">1</parameter>
<parameter name="store_configs" condition="int">0</parameter>
<parameter name="storeconfigs" condition="int">0</parameter>
<parameter name="sub_steps" condition="int">5</parameter>
<parameter name="substeps" condition="int">5</parameter>
<parameter name="tau" condition="au">1.5000e-01</parameter>
<parameter name="time_step" condition="au">1.5000e-01</parameter>
<parameter name="timestep" condition="au">1.5000e-01</parameter>
<parameter name="use_drift" condition="string">no</parameter>
<parameter name="usedrift" condition="string">no</parameter>
<parameter name="walkers" condition="int">1</parameter>
<parameter name="warmup_steps" condition="int">0</parameter>
<parameter name="warmupsteps" condition="int">0</parameter>
  DumpConfig==false Nothing (configurations, state) will be saved.
  Walker Samples are dumped every 1 steps.
</vmc>
  EstimatorManagerBase::add replace LocalEnergy estimator.
  EstimatorManagerBase::add replace LocalEnergy estimator.
<optimization-report>
<vmc stage="main" blocks="300">
  Cannot make clones again. Use existing 1 clones
  Initial partition of walkers 0 1 
  Using Particle by Particle moves
  Walker moves without drift
  Total Sample Size   =512000
  Walker distribution on root = 0 1 
  Using Locality Approximation
===== Memory Usage after the buffer registration =====
Available memory on node 0, free + buffers : 82746 MB
Memory footprint by rank 0 on node 0       : 102 MB
==================================================
====================================================
  SimpleFixedNodeBranch::finalize after a VMC block
    QMC counter        = 6
    time step          = 0.15
    reference energy   = -24.1692
    reference variance = 0.250876
====================================================
  Execution time = 3.1007e+00
</vmc>
<opt stage="setup">
  <log>
   Reading configurations from h5FileRoot F.log.s006
  QMCCostFunction is created with 1 threads.
  Using Nonlocal PP in Opt: NonLocalECP
   Number of samples loaded to each thread : 500 
  VMC Eavg = -2.4169e+01
  VMC Evar = 3.1529e-01
  Total weights = 5.1200e+05
  Execution time = 1.1598e+00
  </log>
</opt>
<opt stage="main" walkers="512000">
  <log>

*****************************************
Building overlap and Hamiltonian matrices
*****************************************

Among totally 82 optimized parameters, largest LM parameter change : 3.9757e-02 at parameter 20

******************************************************************************
Init Cost =  -2.2945e+01    New Cost =  -2.2945e+01  Delta Cost =  -2.8303e-04
******************************************************************************

The new set of parameters is valid. Updating the trial wave function!

*****************************************************************************
Applying the update for shift_i =   1.0000e-02     and shift_s =   3.9062e-03
*****************************************************************************
  Execution time = 5.2611e+00
  </log>
  <optVariables href="F.log.s006.opt.xml">
uu_0 1.5757e-01 1 1  ON 0
uu_1 5.3618e-02 1 1  ON 1
uu_2 -1.5314e-03 1 1  ON 2
uu_3 -2.3652e-02 1 1  ON 3
uu_4 -4.1713e-02 1 1  ON 4
uu_5 -5.8161e-02 1 1  ON 5
uu_6 -6.5390e-02 1 1  ON 6
uu_7 -6.8429e-02 1 1  ON 7
uu_8 -5.4534e-02 1 1  ON 8
uu_9 -1.8540e-02 1 1  ON 9
ud_0 3.6550e-01 1 1  ON 10
ud_1 1.4530e-01 1 1  ON 11
ud_2 2.3443e-02 1 1  ON 12
ud_3 -3.7660e-02 1 1  ON 13
ud_4 -6.6319e-02 1 1  ON 14
ud_5 -7.9126e-02 1 1  ON 15
ud_6 -8.5162e-02 1 1  ON 16
ud_7 -9.4194e-02 1 1  ON 17
ud_8 -8.4032e-02 1 1  ON 18
ud_9 -5.3255e-02 1 1  ON 19
eF_0 -1.0200e+00 1 1  ON 20
eF_1 -9.2800e-01 1 1  ON 21
eF_2 -3.7577e-01 1 1  ON 22
eF_3 2.6725e-01 1 1  ON 23
eF_4 5.6178e-01 1 1  ON 24
eF_5 4.0180e-01 1 1  ON 25
eF_6 4.4276e-01 1 1  ON 26
eF_7 4.0205e-01 1 1  ON 27
eF_8 2.8201e-01 1 1  ON 28
eF_9 5.9125e-02 1 1  ON 29
uuF_0 5.1873e-04 1 1  ON 30
uuF_1 2.4525e-04 1 1  ON 31
uuF_2 -9.7769e-04 1 1  ON 32
uuF_3 -7.3743e-04 1 1  ON 33
uuF_4 -3.2423e-04 1 1  ON 34
uuF_5 1.2792e-04 1 1  ON 35
uuF_6 -6.0784e-04 1 1  ON 36
uuF_7 3.1917e-05 1 1  ON 37
uuF_8 -1.5786e-04 1 1  ON 38
uuF_9 1.1804e-04 1 1  ON 39
uuF_10 -9.2666e-04 1 1  ON 40
uuF_11 1.4569e-03 1 1  ON 41
uuF_12 -4.3322e-04 1 1  ON 42
uuF_13 1.0462e-03 1 1  ON 43
uuF_14 4.9983e-04 1 1  ON 44
uuF_15 -1.7992e-05 1 1  ON 45
uuF_16 -3.8685e-04 1 1  ON 46
uuF_17 2.8818e-03 1 1  ON 47
uuF_18 -2.8955e-03 1 1  ON 48
uuF_19 8.4941e-04 1 1  ON 49
uuF_20 -4.8663e-04 1 1  ON 50
uuF_21 3.0615e-04 1 1  ON 51
uuF_22 -1.4004e-04 1 1  ON 52
uuF_23 2.9683e-04 1 1  ON 53
uuF_24 -1.1301e-04 1 1  ON 54
uuF_25 3.1238e-05 1 1  ON 55
udF_0 -1.3612e-04 1 1  ON 56
udF_1 5.6384e-04 1 1  ON 57
udF_2 1.0272e-03 1 1  ON 58
udF_3 -4.1740e-04 1 1  ON 59
udF_4 -5.0587e-04 1 1  ON 60
udF_5 8.6859e-05 1 1  ON 61
udF_6 1.2510e-03 1 1  ON 62
udF_7 -2.4953e-04 1 1  ON 63
udF_8 1.6531e-03 1 1  ON 64
udF_9 -5.6567e-04 1 1  ON 65
udF_10 -3.9035e-04 1 1  ON 66
udF_11 -2.4391e-04 1 1  ON 67
udF_12 -9.0432e-04 1 1  ON 68
udF_13 6.7491e-04 1 1  ON 69
udF_14 6.9908e-04 1 1  ON 70
udF_15 2.3137e-05 1 1  ON 71
udF_16 6.5615e-04 1 1  ON 72
udF_17 1.6932e-03 1 1  ON 73
udF_18 -1.3308e-03 1 1  ON 74
udF_19 9.0173e-04 1 1  ON 75
udF_20 -6.6178e-04 1 1  ON 76
udF_21 1.6571e-04 1 1  ON 77
udF_22 -1.4902e-04 1 1  ON 78
udF_23 4.5542e-04 1 1  ON 79
udF_24 -1.5285e-04 1 1  ON 80
udF_25 4.4883e-05 1 1  ON 81
  </optVariables>
   Restore the number of walkers to 1, removing 0 walkers.
</opt>
</optimization-report>
  QMC Execution time = 5.2804e+00 secs
  Reusing QMCFixedSampleLinearOptimize
 Using QMCCostFunction::QMCCostFunction

=========================================================
  Start QMCFixedSampleLinearOptimize
  File Root F.log.s007 append = no 
=========================================================
  Skip QMCDriver::putQMCInfo 
  Resetting Properties of the walkers 1 x 13

=========================================================
  Start VMC
  File Root F.log.s007 append = no 
=========================================================
Using existing walkers 
  Resetting Properties of the walkers 1 x 13

<vmc function="put">
  qmc_counter=6  my_counter=6
  time step      = 1.5000e-01
  blocks         = 300
  steps          = 2
  substeps       = 5
  current        = 0
  target samples = 5.1200e+05
  walkers/mpi    = 1

  stepsbetweensamples = 1
<parameter name="blocks" condition="int">300</parameter>
<parameter name="blocks_between_recompute" condition="int">0</parameter>
<parameter name="check_properties" condition="int">100</parameter>
<parameter name="checkproperties" condition="int">100</parameter>
<parameter name="current" condition="int">0</parameter>
<parameter name="dmcwalkersperthread" condition="real">5.0000e+02</parameter>
<parameter name="maxcpusecs" condition="real">3.6000e+05</parameter>
<parameter name="record_configs" condition="int">0</parameter>
<parameter name="record_walkers" condition="int">1</parameter>
<parameter name="recordconfigs" condition="int">0</parameter>
<parameter name="recordwalkers" condition="int">1</parameter>
<parameter name="rewind" condition="int">0</parameter>
<parameter name="samples" condition="real">5.1200e+05</parameter>
<parameter name="samplesperthread" condition="real">5.0000e+02</parameter>
<parameter name="steps" condition="int">2</parameter>
<parameter name="stepsbetweensamples" condition="int">1</parameter>
<parameter name="store_configs" condition="int">0</parameter>
<parameter name="storeconfigs" condition="int">0</parameter>
<parameter name="sub_steps" condition="int">5</parameter>
<parameter name="substeps" condition="int">5</parameter>
<parameter name="tau" condition="au">1.5000e-01</parameter>
<parameter name="time_step" condition="au">1.5000e-01</parameter>
<parameter name="timestep" condition="au">1.5000e-01</parameter>
<parameter name="use_drift" condition="string">no</parameter>
<parameter name="usedrift" condition="string">no</parameter>
<parameter name="walkers" condition="int">1</parameter>
<parameter name="warmup_steps" condition="int">0</parameter>
<parameter name="warmupsteps" condition="int">0</parameter>
  DumpConfig==false Nothing (configurations, state) will be saved.
  Walker Samples are dumped every 1 steps.
</vmc>
  EstimatorManagerBase::add replace LocalEnergy estimator.
  EstimatorManagerBase::add replace LocalEnergy estimator.
<optimization-report>
<vmc stage="main" blocks="300">
  Cannot make clones again. Use existing 1 clones
  Initial partition of walkers 0 1 
  Using Particle by Particle moves
  Walker moves without drift
  Total Sample Size   =512000
  Walker distribution on root = 0 1 
  Using Locality Approximation
===== Memory Usage after the buffer registration =====
Available memory on node 0, free + buffers : 82744 MB
Memory footprint by rank 0 on node 0       : 104 MB
==================================================
====================================================
  SimpleFixedNodeBranch::finalize after a VMC block
    QMC counter        = 7
    time step          = 0.15
    reference energy   = -24.1662
    reference variance = 0.29856
====================================================
  Execution time = 3.0412e+00
</vmc>
<opt stage="setup">
  <log>
   Reading configurations from h5FileRoot F.log.s007
  QMCCostFunction is created with 1 threads.
  Using Nonlocal PP in Opt: NonLocalECP
   Number of samples loaded to each thread : 500 
  VMC Eavg = -2.4169e+01
  VMC Evar = 3.2223e-01
  Total weights = 5.1200e+05
  Execution time = 1.1333e+00
  </log>
</opt>
<opt stage="main" walkers="512000">
  <log>

*****************************************
Building overlap and Hamiltonian matrices
*****************************************

Among totally 82 optimized parameters, largest LM parameter change : 3.2611e-02 at parameter 20

******************************************************************************
Init Cost =  -2.2945e+01    New Cost =  -2.2945e+01  Delta Cost =  -2.4544e-05
******************************************************************************

The new set of parameters is valid. Updating the trial wave function!

*****************************************************************************
Applying the update for shift_i =   1.0000e-02     and shift_s =   3.9062e-03
*****************************************************************************
  Execution time = 5.1568e+00
  </log>
  <optVariables href="F.log.s007.opt.xml">
uu_0 1.5204e-01 1 1  ON 0
uu_1 4.9847e-02 1 1  ON 1
uu_2 -3.2347e-03 1 1  ON 2
uu_3 -2.3775e-02 1 1  ON 3
uu_4 -4.0842e-02 1 1  ON 4
uu_5 -5.7006e-02 1 1  ON 5
uu_6 -6.3791e-02 1 1  ON 6
uu_7 -6.8129e-02 1 1  ON 7
uu_8 -5.6527e-02 1 1  ON 8
uu_9 -2.0408e-02 1 1  ON 9
ud_0 3.6827e-01 1 1  ON 10
ud_1 1.4782e-01 1 1  ON 11
ud_2 2.4823e-02 1 1  ON 12
ud_3 -3.7384e-02 1 1  ON 13
ud_4 -6.6689e-02 1 1  ON 14
ud_5 -7.9483e-02 1 1  ON 15
ud_6 -8.4486e-02 1 1  ON 16
ud_7 -9.3486e-02 1 1  ON 17
ud_8 -8.4343e-02 1 1  ON 18
ud_9 -5.5052e-02 1 1  ON 19
eF_0 -1.0526e+00 1 1  ON 20
eF_1 -9.5643e-01 1 1  ON 21
eF_2 -4.0022e-01 1 1  ON 22
eF_3 2.5488e-01 1 1  ON 23
eF_4 5.6515e-01 1 1  ON 24
eF_5 4.1771e-01 1 1  ON 25
eF_6 4.6085e-01 1 1  ON 26
eF_7 4.2320e-01 1 1  ON 27
eF_8 3.0750e-01 1 1  ON 28
eF_9 7.5373e-02 1 1  ON 29
uuF_0 4.7728e-04 1 1  ON 30
uuF_1 2.3151e-04 1 1  ON 31
uuF_2 -9.3215e-04 1 1  ON 32
uuF_3 -6.9417e-04 1 1  ON 33
uuF_4 -3.0228e-04 1 1  ON 34
uuF_5 1.3860e-04 1 1  ON 35
uuF_6 -6.1259e-04 1 1  ON 36
uuF_7 -1.1457e-05 1 1  ON 37
uuF_8 -2.0204e-04 1 1  ON 38
uuF_9 1.7058e-04 1 1  ON 39
uuF_10 -8.6523e-04 1 1  ON 40
uuF_11 1.4324e-03 1 1  ON 41
uuF_12 -4.0106e-04 1 1  ON 42
uuF_13 9.5926e-04 1 1  ON 43
uuF_14 4.4895e-04 1 1  ON 44
uuF_15 -1.4086e-05 1 1  ON 45
uuF_16 -4.5620e-04 1 1  ON 46
uuF_17 2.6810e-03 1 1  ON 47
uuF_18 -2.7514e-03 1 1  ON 48
uuF_19 8.1808e-04 1 1  ON 49
uuF_20 -4.1414e-04 1 1  ON 50
uuF_21 2.7789e-04 1 1  ON 51
uuF_22 -1.3414e-04 1 1  ON 52
uuF_23 2.7636e-04 1 1  ON 53
uuF_24 -9.6828e-05 1 1  ON 54
uuF_25 2.7305e-05 1 1  ON 55
udF_0 -1.3061e-04 1 1  ON 56
udF_1 5.9146e-04 1 1  ON 57
udF_2 1.0038e-03 1 1  ON 58
udF_3 -4.2521e-04 1 1  ON 59
udF_4 -4.9423e-04 1 1  ON 60
udF_5 8.9722e-05 1 1  ON 61
udF_6 1.3017e-03 1 1  ON 62
udF_7 -3.4506e-04 1 1  ON 63
udF_8 1.5341e-03 1 1  ON 64
udF_9 -5.9374e-04 1 1  ON 65
udF_10 -4.0641e-04 1 1  ON 66
udF_11 -6.6143e-05 1 1  ON 67
udF_12 -8.7013e-04 1 1  ON 68
udF_13 6.6110e-04 1 1  ON 69
udF_14 6.3701e-04 1 1  ON 70
udF_15 2.8833e-05 1 1  ON 71
udF_16 6.7622e-04 1 1  ON 72
udF_17 1.6958e-03 1 1  ON 73
udF_18 -1.5842e-03 1 1  ON 74
udF_19 9.4120e-04 1 1  ON 75
udF_20 -6.2452e-04 1 1  ON 76
udF_21 2.4465e-04 1 1  ON 77
udF_22 -1.7255e-04 1 1  ON 78
udF_23 4.2532e-04 1 1  ON 79
udF_24 -1.7332e-04 1 1  ON 80
udF_25 5.3650e-05 1 1  ON 81
  </optVariables>
   Restore the number of walkers to 1, removing 0 walkers.
</opt>
</optimization-report>
  QMC Execution time = 5.1734e+00 secs
  Reusing QMCFixedSampleLinearOptimize
 Using QMCCostFunction::QMCCostFunction

=========================================================
  Start QMCFixedSampleLinearOptimize
  File Root F.log.s008 append = no 
=========================================================
  Skip QMCDriver::putQMCInfo 
  Resetting Properties of the walkers 1 x 13

=========================================================
  Start VMC
  File Root F.log.s008 append = no 
=========================================================
Using existing walkers 
  Resetting Properties of the walkers 1 x 13

<vmc function="put">
  qmc_counter=7  my_counter=7
  time step      = 1.5000e-01
  blocks         = 300
  steps          = 2
  substeps       = 5
  current        = 0
  target samples = 5.1200e+05
  walkers/mpi    = 1

  stepsbetweensamples = 1
<parameter name="blocks" condition="int">300</parameter>
<parameter name="blocks_between_recompute" condition="int">0</parameter>
<parameter name="check_properties" condition="int">100</parameter>
<parameter name="checkproperties" condition="int">100</parameter>
<parameter name="current" condition="int">0</parameter>
<parameter name="dmcwalkersperthread" condition="real">5.0000e+02</parameter>
<parameter name="maxcpusecs" condition="real">3.6000e+05</parameter>
<parameter name="record_configs" condition="int">0</parameter>
<parameter name="record_walkers" condition="int">1</parameter>
<parameter name="recordconfigs" condition="int">0</parameter>
<parameter name="recordwalkers" condition="int">1</parameter>
<parameter name="rewind" condition="int">0</parameter>
<parameter name="samples" condition="real">5.1200e+05</parameter>
<parameter name="samplesperthread" condition="real">5.0000e+02</parameter>
<parameter name="steps" condition="int">2</parameter>
<parameter name="stepsbetweensamples" condition="int">1</parameter>
<parameter name="store_configs" condition="int">0</parameter>
<parameter name="storeconfigs" condition="int">0</parameter>
<parameter name="sub_steps" condition="int">5</parameter>
<parameter name="substeps" condition="int">5</parameter>
<parameter name="tau" condition="au">1.5000e-01</parameter>
<parameter name="time_step" condition="au">1.5000e-01</parameter>
<parameter name="timestep" condition="au">1.5000e-01</parameter>
<parameter name="use_drift" condition="string">no</parameter>
<parameter name="usedrift" condition="string">no</parameter>
<parameter name="walkers" condition="int">1</parameter>
<parameter name="warmup_steps" condition="int">0</parameter>
<parameter name="warmupsteps" condition="int">0</parameter>
  DumpConfig==false Nothing (configurations, state) will be saved.
  Walker Samples are dumped every 1 steps.
</vmc>
  EstimatorManagerBase::add replace LocalEnergy estimator.
  EstimatorManagerBase::add replace LocalEnergy estimator.
<optimization-report>
<vmc stage="main" blocks="300">
  Cannot make clones again. Use existing 1 clones
  Initial partition of walkers 0 1 
  Using Particle by Particle moves
  Walker moves without drift
  Total Sample Size   =512000
  Walker distribution on root = 0 1 
  Using Locality Approximation
===== Memory Usage after the buffer registration =====
Available memory on node 0, free + buffers : 82741 MB
Memory footprint by rank 0 on node 0       : 107 MB
==================================================
====================================================
  SimpleFixedNodeBranch::finalize after a VMC block
    QMC counter        = 8
    time step          = 0.15
    reference energy   = -24.1502
    reference variance = 0.249661
====================================================
  Execution time = 2.9914e+00
</vmc>
<opt stage="setup">
  <log>
   Reading configurations from h5FileRoot F.log.s008
  QMCCostFunction is created with 1 threads.
  Using Nonlocal PP in Opt: NonLocalECP
   Number of samples loaded to each thread : 500 
  VMC Eavg = -2.4171e+01
  VMC Evar = 3.1792e-01
  Total weights = 5.1200e+05
  Execution time = 1.1340e+00
  </log>
</opt>
<opt stage="main" walkers="512000">
  <log>

*****************************************
Building overlap and Hamiltonian matrices
*****************************************

Among totally 82 optimized parameters, largest LM parameter change : 2.8381e-02 at parameter 20

******************************************************************************
Init Cost =  -2.2946e+01    New Cost =  -2.2947e+01  Delta Cost =  -2.6497e-04
******************************************************************************

The new set of parameters is valid. Updating the trial wave function!

*****************************************************************************
Applying the update for shift_i =   1.0000e-02     and shift_s =   3.9062e-03
*****************************************************************************
  Execution time = 5.0817e+00
  </log>
  <optVariables href="F.log.s008.opt.xml">
uu_0 1.4924e-01 1 1  ON 0
uu_1 4.7302e-02 1 1  ON 1
uu_2 -2.8106e-03 1 1  ON 2
uu_3 -2.1701e-02 1 1  ON 3
uu_4 -3.7866e-02 1 1  ON 4
uu_5 -5.4144e-02 1 1  ON 5
uu_6 -6.2602e-02 1 1  ON 6
uu_7 -6.8328e-02 1 1  ON 7
uu_8 -5.9373e-02 1 1  ON 8
uu_9 -2.3233e-02 1 1  ON 9
ud_0 3.6842e-01 1 1  ON 10
ud_1 1.4818e-01 1 1  ON 11
ud_2 2.5826e-02 1 1  ON 12
ud_3 -3.5530e-02 1 1  ON 13
ud_4 -6.4521e-02 1 1  ON 14
ud_5 -7.8214e-02 1 1  ON 15
ud_6 -8.4564e-02 1 1  ON 16
ud_7 -9.3989e-02 1 1  ON 17
ud_8 -8.5178e-02 1 1  ON 18
ud_9 -5.3016e-02 1 1  ON 19
eF_0 -1.0810e+00 1 1  ON 20
eF_1 -9.8067e-01 1 1  ON 21
eF_2 -4.2296e-01 1 1  ON 22
eF_3 2.3961e-01 1 1  ON 23
eF_4 5.6811e-01 1 1  ON 24
eF_5 4.3226e-01 1 1  ON 25
eF_6 4.7927e-01 1 1  ON 26
eF_7 4.4472e-01 1 1  ON 27
eF_8 3.2779e-01 1 1  ON 28
eF_9 9.0074e-02 1 1  ON 29
uuF_0 5.0849e-04 1 1  ON 30
uuF_1 2.2071e-04 1 1  ON 31
uuF_2 -1.0749e-03 1 1  ON 32
uuF_3 -6.8922e-04 1 1  ON 33
uuF_4 -2.6750e-04 1 1  ON 34
uuF_5 1.4894e-04 1 1  ON 35
uuF_6 -6.6843e-04 1 1  ON 36
uuF_7 -1.3778e-04 1 1  ON 37
uuF_8 -4.1428e-04 1 1  ON 38
uuF_9 2.0279e-04 1 1  ON 39
uuF_10 -8.8740e-04 1 1  ON 40
uuF_11 1.6697e-03 1 1  ON 41
uuF_12 -3.3795e-04 1 1  ON 42
uuF_13 9.7568e-04 1 1  ON 43
uuF_14 3.8728e-04 1 1  ON 44
uuF_15 -1.4552e-05 1 1  ON 45
uuF_16 -4.3845e-04 1 1  ON 46
uuF_17 2.7229e-03 1 1  ON 47
uuF_18 -2.9571e-03 1 1  ON 48
uuF_19 8.1240e-04 1 1  ON 49
uuF_20 -4.5967e-04 1 1  ON 50
uuF_21 3.3002e-04 1 1  ON 51
uuF_22 -1.4049e-04 1 1  ON 52
uuF_23 3.1909e-04 1 1  ON 53
uuF_24 -1.1582e-04 1 1  ON 54
uuF_25 3.1482e-05 1 1  ON 55
udF_0 -1.4462e-04 1 1  ON 56
udF_1 5.6022e-04 1 1  ON 57
udF_2 9.7672e-04 1 1  ON 58
udF_3 -3.7929e-04 1 1  ON 59
udF_4 -4.7300e-04 1 1  ON 60
udF_5 9.4747e-05 1 1  ON 61
udF_6 1.2567e-03 1 1  ON 62
udF_7 -3.2546e-04 1 1  ON 63
udF_8 1.4466e-03 1 1  ON 64
udF_9 -5.4210e-04 1 1  ON 65
udF_10 -3.6500e-04 1 1  ON 66
udF_11 -9.6665e-05 1 1  ON 67
udF_12 -8.2981e-04 1 1  ON 68
udF_13 5.6315e-04 1 1  ON 69
udF_14 6.0134e-04 1 1  ON 70
udF_15 2.7855e-05 1 1  ON 71
udF_16 6.9258e-04 1 1  ON 72
udF_17 1.4837e-03 1 1  ON 73
udF_18 -1.4031e-03 1 1  ON 74
udF_19 8.8854e-04 1 1  ON 75
udF_20 -5.8522e-04 1 1  ON 76
udF_21 2.0470e-04 1 1  ON 77
udF_22 -1.5757e-04 1 1  ON 78
udF_23 4.1861e-04 1 1  ON 79
udF_24 -1.5702e-04 1 1  ON 80
udF_25 4.7381e-05 1 1  ON 81
  </optVariables>
   Restore the number of walkers to 1, removing 0 walkers.
</opt>
</optimization-report>
  QMC Execution time = 5.1157e+00 secs
  Reusing QMCFixedSampleLinearOptimize
 Using QMCCostFunction::QMCCostFunction

=========================================================
  Start QMCFixedSampleLinearOptimize
  File Root F.log.s009 append = no 
=========================================================
  Skip QMCDriver::putQMCInfo 
  Resetting Properties of the walkers 1 x 13

=========================================================
  Start VMC
  File Root F.log.s009 append = no 
=========================================================
Using existing walkers 
  Resetting Properties of the walkers 1 x 13

<vmc function="put">
  qmc_counter=8  my_counter=8
  time step      = 1.5000e-01
  blocks         = 300
  steps          = 2
  substeps       = 5
  current        = 0
  target samples = 5.1200e+05
  walkers/mpi    = 1

  stepsbetweensamples = 1
<parameter name="blocks" condition="int">300</parameter>
<parameter name="blocks_between_recompute" condition="int">0</parameter>
<parameter name="check_properties" condition="int">100</parameter>
<parameter name="checkproperties" condition="int">100</parameter>
<parameter name="current" condition="int">0</parameter>
<parameter name="dmcwalkersperthread" condition="real">5.0000e+02</parameter>
<parameter name="maxcpusecs" condition="real">3.6000e+05</parameter>
<parameter name="record_configs" condition="int">0</parameter>
<parameter name="record_walkers" condition="int">1</parameter>
<parameter name="recordconfigs" condition="int">0</parameter>
<parameter name="recordwalkers" condition="int">1</parameter>
<parameter name="rewind" condition="int">0</parameter>
<parameter name="samples" condition="real">5.1200e+05</parameter>
<parameter name="samplesperthread" condition="real">5.0000e+02</parameter>
<parameter name="steps" condition="int">2</parameter>
<parameter name="stepsbetweensamples" condition="int">1</parameter>
<parameter name="store_configs" condition="int">0</parameter>
<parameter name="storeconfigs" condition="int">0</parameter>
<parameter name="sub_steps" condition="int">5</parameter>
<parameter name="substeps" condition="int">5</parameter>
<parameter name="tau" condition="au">1.5000e-01</parameter>
<parameter name="time_step" condition="au">1.5000e-01</parameter>
<parameter name="timestep" condition="au">1.5000e-01</parameter>
<parameter name="use_drift" condition="string">no</parameter>
<parameter name="usedrift" condition="string">no</parameter>
<parameter name="walkers" condition="int">1</parameter>
<parameter name="warmup_steps" condition="int">0</parameter>
<parameter name="warmupsteps" condition="int">0</parameter>
  DumpConfig==false Nothing (configurations, state) will be saved.
  Walker Samples are dumped every 1 steps.
</vmc>
  EstimatorManagerBase::add replace LocalEnergy estimator.
  EstimatorManagerBase::add replace LocalEnergy estimator.
<optimization-report>
<vmc stage="main" blocks="300">
  Cannot make clones again. Use existing 1 clones
  Initial partition of walkers 0 1 
  Using Particle by Particle moves
  Walker moves without drift
  Total Sample Size   =512000
  Walker distribution on root = 0 1 
  Using Locality Approximation
===== Memory Usage after the buffer registration =====
Available memory on node 0, free + buffers : 82739 MB
Memory footprint by rank 0 on node 0       : 109 MB
==================================================
====================================================
  SimpleFixedNodeBranch::finalize after a VMC block
    QMC counter        = 9
    time step          = 0.15
    reference energy   = -24.1515
    reference variance = 0.228371
====================================================
  Execution time = 3.1758e+00
</vmc>
<opt stage="setup">
  <log>
   Reading configurations from h5FileRoot F.log.s009
  QMCCostFunction is created with 1 threads.
  Using Nonlocal PP in Opt: NonLocalECP
   Number of samples loaded to each thread : 500 
  VMC Eavg = -2.4170e+01
  VMC Evar = 3.0919e-01
  Total weights = 5.1200e+05
  Execution time = 1.0927e+00
  </log>
</opt>
<opt stage="main" walkers="512000">
  <log>

*****************************************
Building overlap and Hamiltonian matrices
*****************************************

Among totally 82 optimized parameters, largest LM parameter change : 2.9071e-02 at parameter 20

******************************************************************************
Init Cost =  -2.2946e+01    New Cost =  -2.2946e+01  Delta Cost =  -4.0410e-05
******************************************************************************

The new set of parameters is valid. Updating the trial wave function!

*****************************************************************************
Applying the update for shift_i =   1.0000e-02     and shift_s =   3.9062e-03
*****************************************************************************
  Execution time = 5.1872e+00
  </log>
  <optVariables href="F.log.s009.opt.xml">
uu_0 1.4794e-01 1 1  ON 0
uu_1 4.6597e-02 1 1  ON 1
uu_2 -3.9359e-03 1 1  ON 2
uu_3 -2.3776e-02 1 1  ON 3
uu_4 -4.0551e-02 1 1  ON 4
uu_5 -5.6459e-02 1 1  ON 5
uu_6 -6.4701e-02 1 1  ON 6
uu_7 -6.9941e-02 1 1  ON 7
uu_8 -5.9968e-02 1 1  ON 8
uu_9 -2.5015e-02 1 1  ON 9
ud_0 3.6836e-01 1 1  ON 10
ud_1 1.4881e-01 1 1  ON 11
ud_2 2.6888e-02 1 1  ON 12
ud_3 -3.4531e-02 1 1  ON 13
ud_4 -6.3171e-02 1 1  ON 14
ud_5 -7.6328e-02 1 1  ON 15
ud_6 -8.2742e-02 1 1  ON 16
ud_7 -9.3251e-02 1 1  ON 17
ud_8 -8.7486e-02 1 1  ON 18
ud_9 -5.6299e-02 1 1  ON 19
eF_0 -1.1100e+00 1 1  ON 20
eF_1 -1.0038e+00 1 1  ON 21
eF_2 -4.4329e-01 1 1  ON 22
eF_3 2.2573e-01 1 1  ON 23
eF_4 5.6812e-01 1 1  ON 24
eF_5 4.4997e-01 1 1  ON 25
eF_6 4.9282e-01 1 1  ON 26
eF_7 4.6366e-01 1 1  ON 27
eF_8 3.4757e-01 1 1  ON 28
eF_9 1.0596e-01 1 1  ON 29
uuF_0 4.5468e-04 1 1  ON 30
uuF_1 2.2043e-04 1 1  ON 31
uuF_2 -9.5311e-04 1 1  ON 32
uuF_3 -6.6844e-04 1 1  ON 33
uuF_4 -3.0029e-04 1 1  ON 34
uuF_5 1.4928e-04 1 1  ON 35
uuF_6 -6.2513e-04 1 1  ON 36
uuF_7 -5.3603e-07 1 1  ON 37
uuF_8 -2.2619e-04 1 1  ON 38
uuF_9 2.1019e-04 1 1  ON 39
uuF_10 -8.6620e-04 1 1  ON 40
uuF_11 1.4479e-03 1 1  ON 41
uuF_12 -4.1187e-04 1 1  ON 42
uuF_13 9.0452e-04 1 1  ON 43
uuF_14 4.5462e-04 1 1  ON 44
uuF_15 -1.3199e-05 1 1  ON 45
uuF_16 -4.5695e-04 1 1  ON 46
uuF_17 2.6352e-03 1 1  ON 47
uuF_18 -2.7586e-03 1 1  ON 48
uuF_19 8.4293e-04 1 1  ON 49
uuF_20 -3.8456e-04 1 1  ON 50
uuF_21 2.7319e-04 1 1  ON 51
uuF_22 -1.3873e-04 1 1  ON 52
uuF_23 2.6921e-04 1 1  ON 53
uuF_24 -9.5332e-05 1 1  ON 54
uuF_25 2.8521e-05 1 1  ON 55
udF_0 -1.7038e-04 1 1  ON 56
udF_1 5.5324e-04 1 1  ON 57
udF_2 1.0734e-03 1 1  ON 58
udF_3 -3.2701e-04 1 1  ON 59
udF_4 -4.5579e-04 1 1  ON 60
udF_5 1.0699e-04 1 1  ON 61
udF_6 1.2840e-03 1 1  ON 62
udF_7 -2.7473e-04 1 1  ON 63
udF_8 1.5355e-03 1 1  ON 64
udF_9 -5.5375e-04 1 1  ON 65
udF_10 -2.8440e-04 1 1  ON 66
udF_11 -3.5302e-04 1 1  ON 67
udF_12 -8.2721e-04 1 1  ON 68
udF_13 4.6769e-04 1 1  ON 69
udF_14 5.9377e-04 1 1  ON 70
udF_15 3.0005e-05 1 1  ON 71
udF_16 7.8776e-04 1 1  ON 72
udF_17 1.1493e-03 1 1  ON 73
udF_18 -9.2609e-04 1 1  ON 74
udF_19 8.2051e-04 1 1  ON 75
udF_20 -5.3983e-04 1 1  ON 76
udF_21 9.5964e-05 1 1  ON 77
udF_22 -1.3453e-04 1 1  ON 78
udF_23 3.9804e-04 1 1  ON 79
udF_24 -1.1670e-04 1 1  ON 80
udF_25 3.6942e-05 1 1  ON 81
  </optVariables>
   Restore the number of walkers to 1, removing 0 walkers.
</opt>
</optimization-report>
  QMC Execution time = 5.2107e+00 secs
  Reusing QMCFixedSampleLinearOptimize
 Using QMCCostFunction::QMCCostFunction

=========================================================
  Start QMCFixedSampleLinearOptimize
  File Root F.log.s010 append = no 
=========================================================
  Skip QMCDriver::putQMCInfo 
  Resetting Properties of the walkers 1 x 13

=========================================================
  Start VMC
  File Root F.log.s010 append = no 
=========================================================
Using existing walkers 
  Resetting Properties of the walkers 1 x 13

<vmc function="put">
  qmc_counter=9  my_counter=9
  time step      = 1.5000e-01
  blocks         = 300
  steps          = 2
[...]
    QMC counter        = 20
    time step          = 0.15
    reference energy   = -24.1788
    reference variance = 0.248928
====================================================
  Execution time = 2.5975e+00
</vmc>
<opt stage="setup">
  <log>
   Reading configurations from h5FileRoot F.log.s020
  QMCCostFunction is created with 1 threads.
  Using Nonlocal PP in Opt: NonLocalECP
   Number of samples loaded to each thread : 500 
  VMC Eavg = -2.4171e+01
  VMC Evar = 3.1133e-01
  Total weights = 5.1200e+05
  Execution time = 7.9189e-01
  </log>
</opt>
<opt stage="main" walkers="512000">
  <log>

*****************************************
Building overlap and Hamiltonian matrices
*****************************************

Among totally 82 optimized parameters, largest LM parameter change : 1.6040e+02 at parameter 20

******************************************************************************
Init Cost =  -2.2947e+01    New Cost =  -4.5295e+02  Delta Cost =  -4.3001e+02
******************************************************************************

The new set of parameters is not valid. Revert to the old set!

*****************************************************************************
Applying the update for shift_i =   1.0000e-02     and shift_s =   1.5625e-02
*****************************************************************************
  Execution time = 3.7300e+00
  </log>
  <optVariables href="F.log.s020.opt.xml">
uu_0 1.4915e-01 1 1  ON 0
uu_1 4.8745e-02 1 1  ON 1
uu_2 -4.6854e-03 1 1  ON 2
uu_3 -2.9954e-02 1 1  ON 3
uu_4 -5.0612e-02 1 1  ON 4
uu_5 -7.0120e-02 1 1  ON 5
uu_6 -8.1458e-02 1 1  ON 6
uu_7 -9.0171e-02 1 1  ON 7
uu_8 -8.4447e-02 1 1  ON 8
uu_9 -5.4947e-02 1 1  ON 9
ud_0 3.8407e-01 1 1  ON 10
ud_1 1.6331e-01 1 1  ON 11
ud_2 3.7601e-02 1 1  ON 12
ud_3 -2.9073e-02 1 1  ON 13
ud_4 -6.1602e-02 1 1  ON 14
ud_5 -7.8332e-02 1 1  ON 15
ud_6 -8.8122e-02 1 1  ON 16
ud_7 -1.0137e-01 1 1  ON 17
ud_8 -9.7561e-02 1 1  ON 18
ud_9 -7.3026e-02 1 1  ON 19
eF_0 -1.3113e+00 1 1  ON 20
eF_1 -1.1854e+00 1 1  ON 21
eF_2 -6.2350e-01 1 1  ON 22
eF_3 8.1211e-02 1 1  ON 23
eF_4 5.2947e-01 1 1  ON 24
eF_5 5.6404e-01 1 1  ON 25
eF_6 6.0766e-01 1 1  ON 26
eF_7 6.1266e-01 1 1  ON 27
eF_8 5.1639e-01 1 1  ON 28
eF_9 2.6450e-01 1 1  ON 29
uuF_0 3.9236e-04 1 1  ON 30
uuF_1 2.3528e-04 1 1  ON 31
uuF_2 -7.2994e-04 1 1  ON 32
uuF_3 -5.6747e-04 1 1  ON 33
uuF_4 -2.6237e-04 1 1  ON 34
uuF_5 1.8113e-04 1 1  ON 35
uuF_6 -4.3431e-04 1 1  ON 36
uuF_7 -1.4147e-04 1 1  ON 37
uuF_8 -9.9849e-05 1 1  ON 38
uuF_9 1.1978e-04 1 1  ON 39
uuF_10 -7.2611e-04 1 1  ON 40
uuF_11 1.1291e-03 1 1  ON 41
uuF_12 -3.9124e-04 1 1  ON 42
uuF_13 7.8691e-04 1 1  ON 43
uuF_14 3.7466e-04 1 1  ON 44
uuF_15 2.5758e-08 1 1  ON 45
uuF_16 -1.4276e-04 1 1  ON 46
uuF_17 2.0155e-03 1 1  ON 47
uuF_18 -2.0319e-03 1 1  ON 48
uuF_19 7.1039e-04 1 1  ON 49
uuF_20 -3.8155e-04 1 1  ON 50
uuF_21 1.6352e-04 1 1  ON 51
uuF_22 -1.1049e-04 1 1  ON 52
uuF_23 2.8023e-04 1 1  ON 53
uuF_24 -6.4941e-05 1 1  ON 54
uuF_25 1.9910e-05 1 1  ON 55
udF_0 -1.8268e-04 1 1  ON 56
udF_1 5.7497e-04 1 1  ON 57
udF_2 1.1487e-03 1 1  ON 58
udF_3 -3.0937e-04 1 1  ON 59
udF_4 -4.6075e-04 1 1  ON 60
udF_5 1.2903e-04 1 1  ON 61
udF_6 1.3970e-03 1 1  ON 62
udF_7 -3.5044e-04 1 1  ON 63
udF_8 1.5895e-03 1 1  ON 64
udF_9 -6.3002e-04 1 1  ON 65
udF_10 -2.8475e-04 1 1  ON 66
udF_11 -4.1355e-04 1 1  ON 67
udF_12 -8.2679e-04 1 1  ON 68
udF_13 4.9927e-04 1 1  ON 69
udF_14 5.6099e-04 1 1  ON 70
udF_15 3.6773e-05 1 1  ON 71
udF_16 1.0243e-03 1 1  ON 72
udF_17 9.9260e-04 1 1  ON 73
udF_18 -7.2693e-04 1 1  ON 74
udF_19 7.6282e-04 1 1  ON 75
udF_20 -6.3708e-04 1 1  ON 76
udF_21 9.1006e-05 1 1  ON 77
udF_22 -1.2540e-04 1 1  ON 78
udF_23 4.6582e-04 1 1  ON 79
udF_24 -1.2710e-04 1 1  ON 80
udF_25 3.6938e-05 1 1  ON 81
  </optVariables>
   Restore the number of walkers to 1, removing 0 walkers.
</opt>
</optimization-report>
  QMC Execution time = 3.7440e+00 secs

=========================================================
  Start VMC
  File Root F.log.s021 append = no 
=========================================================
  Using the current 1 walkers.
  Total number of walkers: 1.0240e+03
  Total weight: 1.0240e+03
  Resetting Properties of the walkers 1 x 13

<vmc function="put">
  qmc_counter=0  my_counter=0
  time step      = 1.5000e-01
  blocks         = 200
  steps          = 1
  substeps       = 30
  current        = 0
  target samples = 4.0960e+03
  walkers/mpi    = 1

  stepsbetweensamples = 50
<parameter name="blocks" condition="int">200</parameter>
<parameter name="blocks_between_recompute" condition="int">0</parameter>
<parameter name="check_properties" condition="int">100</parameter>
<parameter name="checkproperties" condition="int">100</parameter>
<parameter name="current" condition="int">0</parameter>
<parameter name="dmcwalkersperthread" condition="real">4.0000e+00</parameter>
<parameter name="maxcpusecs" condition="real">3.6000e+05</parameter>
<parameter name="record_configs" condition="int">0</parameter>
<parameter name="record_walkers" condition="int">50</parameter>
<parameter name="recordconfigs" condition="int">0</parameter>
<parameter name="recordwalkers" condition="int">50</parameter>
<parameter name="rewind" condition="int">0</parameter>
<parameter name="samples" condition="real">4.0960e+03</parameter>
<parameter name="samplesperthread" condition="real">4.0000e+00</parameter>
<parameter name="steps" condition="int">1</parameter>
<parameter name="stepsbetweensamples" condition="int">50</parameter>
<parameter name="store_configs" condition="int">0</parameter>
<parameter name="storeconfigs" condition="int">0</parameter>
<parameter name="sub_steps" condition="int">30</parameter>
<parameter name="substeps" condition="int">30</parameter>
<parameter name="tau" condition="au">1.5000e-01</parameter>
<parameter name="time_step" condition="au">1.5000e-01</parameter>
<parameter name="timestep" condition="au">1.5000e-01</parameter>
<parameter name="use_drift" condition="string">no</parameter>
<parameter name="usedrift" condition="string">no</parameter>
<parameter name="walkers" condition="int">1</parameter>
<parameter name="warmup_steps" condition="int">100</parameter>
<parameter name="warmupsteps" condition="int">100</parameter>
  DumpConfig==false Nothing (configurations, state) will be saved.
  Walker Samples are dumped every 50 steps.
</vmc>
  EstimatorManagerBase::add replace LocalEnergy estimator.
  Cannot make clones again. Use existing 1 clones
  Initial partition of walkers 0 1 

  Using Particle by Particle moves
  Walker moves without drift
  Total Sample Size   =4096
  Walker distribution on root = 0 1 
  Using Locality Approximation
===== Memory Usage after the buffer registration =====
Available memory on node 0, free + buffers : 82697 MB
Memory footprint by rank 0 on node 0       : 136 MB
==================================================
  Anonymous Buffer size per walker : 2688 Bytes.
MEMORY increase 0 MB VMC::resetRun
====================================================
  SimpleFixedNodeBranch::finalize after a VMC block
    QMC counter        = 21
    time step          = 0.15
    reference energy   = -24.1783
    reference variance = 0.216504
====================================================
  QMC Execution time = 2.7244e+00 secs

=========================================================
  Start DMC
  File Root F.log.s022 append = no 
=========================================================
Using existing walkers 
  Resetting Properties of the walkers 1 x 13
  EstimatorManagerBase::add replace LocalEnergy estimator.
  Cannot make clones again. Use existing 1 clones
  Total number of walkers: 4.0960e+03
  Total weight: 4.0960e+03
  Creating WalkerController: target  number of walkers = 4096
  Using WalkerControlMPI for dynamic population control.
  START ALL OVER 
  WalkerControlBase parameters 
    maxCopy = 2
    Max Walkers per MPI rank 9
    Min Walkers per MPI rank 1
    Using non-blocking send/recv
  QMC counter      = 22
  time step        = 2.0000e-02
  effective time step = 2.0000e-02
  trial energy     = -2.4178e+01
  reference energy = -2.4178e+01
  Feedback = 1.0000e+00
  reference variance = 2.1650e-01
  target walkers = 4096
  branching cutoff scheme classic
  branch cutoff = 5.0000e+01 7.5000e+01
  Max and minimum walkers per node= 9 1
  QMC Status (BranchMode) = 0000001101
  Initial partition of walkers on a node: 0 4 
  Updates by particle-by-particle moves
  DMC moves are rejected when a node crossing is detected
  Using Non-local T-moves v0, M. Casula, PRB 74, 161102(R) (2006)
===== Memory Usage after the buffer registration =====
Available memory on node 0, free + buffers : 82697 MB
Memory footprint by rank 0 on node 0       : 136 MB
==================================================
SimpleFixedNodeBranch::checkParameters 
  Average Energy of a population  = 1.98908e+300
  Energy Variance = inf

  Fluctuating population
  Persistent walkers are killed after 1 MC sweeps
  BranchInterval = 1
  Steps per block = 50
  Number of blocks = 70

  DMC Engine Initialization = 2.7209e-02 secs

 Warmup is completed after 100

  TauEff     = 1.9071e-02
 TauEff/Tau = 9.5354e-01
  Etrial     = -2.4186e+01
 Running average of energy = 1.9694e+298
                  Variance = inf
branch cutoff = 1.2500e+02 1.8750e+02
====================================================
  SimpleFixedNodeBranch::finalize after a DMC block
    QMC counter                   = 22
    time step                     = 0.02
    effective time step           = 0.0190787
    trial energy                  = -24.1775
    reference energy              = -24.1861
    reference variance            = inf
    target walkers                = 4096
    branch cutoff                 = 125 187.5
    Max and minimum walkers per node= 9 1
    Feedback                      = 1
    QMC Status (BranchMode)       = 0000001111
====================================================
  QMC Execution time = 3.7069e+01 secs
  Reusing DMC
BRANCH resetRun
 SimpleFixedNodeBranch::resetRun detected changes in <parameter>'s 
 BranchMode : 0000001111 0000001111
  WalkerControlBase parameters 
    maxCopy = 2
    Max Walkers per MPI rank 9
    Min Walkers per MPI rank 1
    Using non-blocking send/recv
 iParam (old):                  0                 1                22              4096                 9                 1                 1                 0
 iParam (new):                100                 1                22              4096                 9                 1                 1                 0
 vParam (old):   2.0000000000e-02  1.9078725072e-02 -2.4177483039e+01 -2.4186064678e+01 -2.4168071460e+01  1.8750000000e+02  1.2500000000e+02  1.6000000000e-02               inf -8.2256787977e+04  3.4010000000e+03  1.0000000000e+00  1.0000000000e+01  1.0000000000e+00  1.0000000000e+00  1.0000000000e+00  1.0000000000e+00
 vParam (new):   1.0000000000e-02  1.9078725072e-02 -2.4177483039e+01 -2.4186064678e+01 -2.4168071460e+01  3.7500000000e+02  2.5000000000e+02  8.0000000000e-03               inf -8.2256787977e+04  3.4010000000e+03  1.0000000000e+00  1.0000000000e+01  1.0000000000e+00  1.0000000000e+00  1.0000000000e+00  1.0000000000e+00

 Using branching cutoff scheme classic
SimpleFixedNodeBranch::checkParameters 
  Average Energy of a population  = -24.1659
  Energy Variance = 0.363891

  Using Non-local T-moves v0, M. Casula, PRB 74, 161102(R) (2006)
===== Memory Usage after the buffer registration =====
Available memory on node 0, free + buffers : 82688 MB
Memory footprint by rank 0 on node 0       : 138 MB
==================================================

=========================================================
  Start DMC
  File Root F.log.s023 append = no 
=========================================================
Using existing walkers 
  Resetting Properties of the walkers 1 x 13
  EstimatorManagerBase::add replace LocalEnergy estimator.
  Cannot make clones again. Use existing 1 clones
SimpleFixedNodeBranch::checkParameters 
  Average Energy of a population  = -24.0338
  Energy Variance = 6.00653

  Fluctuating population
  Persistent walkers are killed after 1 MC sweeps
  BranchInterval = 1
  Steps per block = 100
  Number of blocks = 90

  DMC Engine Initialization = 3.7503242493e-04 secs

 Warmup is completed after 100

  TauEff     = 9.8023198857e-03
 TauEff/Tau = 9.8023198857e-01
  Etrial     = -2.4203066976e+01
 Running average of energy = -2.4181926113e+01
                  Variance = 3.8498426083e-01
branch cutoff = 1.0000000000e+01 1.5000000000e+01
====================================================
  SimpleFixedNodeBranch::finalize after a DMC block
    QMC counter                   = 23
    time step                     = 0.01
    effective time step           = 0.00980367
    trial energy                  = -24.1846
    reference energy              = -24.1836
    reference variance            = 0.384984
    target walkers                = 4096
    branch cutoff                 = 10 15
    Max and minimum walkers per node= 9 1
    Feedback                      = 1
    QMC Status (BranchMode)       = 0000001111
====================================================
  QMC Execution time = 9.5230e+01 secs
  Reusing DMC
BRANCH resetRun
 SimpleFixedNodeBranch::resetRun detected changes in <parameter>'s 
 BranchMode : 0000001111 0000001111
  WalkerControlBase parameters 
    maxCopy = 2
    Max Walkers per MPI rank 9
    Min Walkers per MPI rank 1
    Using non-blocking send/recv
 iParam (old):                  0                 1                23              4096                 9                 1                 1                 0
 iParam (new):                200                 1                23              4096                 9                 1                 1                 0
 vParam (old):   1.0000000000e-02  9.8036738947e-03 -2.4184565798e+01 -2.4183589712e+01 -2.4184233780e+01  1.5000000000e+01  1.0000000000e+01  2.0000000000e-01  3.8498426083e-01 -2.1525813267e+05  8.9010000000e+03  1.0000000000e+00  1.0000000000e+01  1.0000000000e+00  1.0000000000e+00  1.0000000000e+00  1.0000000000e+00
 vParam (new):   5.0000000000e-03  9.8036738947e-03 -2.4184565798e+01 -2.4183589712e+01 -2.4184233780e+01  1.5000000000e+01  1.0000000000e+01  2.0000000000e-01  3.8498426083e-01 -2.1525813267e+05  8.9010000000e+03  1.0000000000e+00  1.0000000000e+01  1.0000000000e+00  1.0000000000e+00  1.0000000000e+00  1.0000000000e+00

 Using branching cutoff scheme classic
SimpleFixedNodeBranch::checkParameters 
  Average Energy of a population  = -24.1861
  Energy Variance = 0.285564

  Using Non-local T-moves v0, M. Casula, PRB 74, 161102(R) (2006)
===== Memory Usage after the buffer registration =====
Available memory on node 0, free + buffers : 82678 MB
Memory footprint by rank 0 on node 0       : 140 MB
==================================================

=========================================================
  Start DMC
  File Root F.log.s024 append = no 
=========================================================
Using existing walkers 
  Resetting Properties of the walkers 1 x 13
  EstimatorManagerBase::add replace LocalEnergy estimator.
  Cannot make clones again. Use existing 1 clones
SimpleFixedNodeBranch::checkParameters 
  Average Energy of a population  = -24.0965
  Energy Variance = 4.79641

  Fluctuating population
  Persistent walkers are killed after 1 MC sweeps
  BranchInterval = 1
  Steps per block = 200
  Number of blocks = 110

  DMC Engine Initialization = 3.4093856812e-04 secs

 Warmup is completed after 200

  TauEff     = 4.9597293665e-03
 TauEff/Tau = 9.9194587330e-01
  Etrial     = -2.4207627597e+01
 Running average of energy = -2.4184850847e+01
                  Variance = 3.3325245148e-01
branch cutoff = 1.0000000000e+01 1.5000000000e+01
====================================================
  SimpleFixedNodeBranch::finalize after a DMC block
    QMC counter                   = 24
    time step                     = 0.005
    effective time step           = 0.00495962
    trial energy                  = -24.1795
    reference energy              = -24.1827
    reference variance            = 0.333252
    target walkers                = 4096
    branch cutoff                 = 10 15
    Max and minimum walkers per node= 9 1
    Feedback                      = 1
    QMC Status (BranchMode)       = 0000001111
====================================================
  QMC Execution time = 2.3278e+02 secs
  Reusing DMC
BRANCH resetRun
 SimpleFixedNodeBranch::resetRun detected changes in <parameter>'s 
 BranchMode : 0000001111 0000001111
  WalkerControlBase parameters 
    maxCopy = 2
    Max Walkers per MPI rank 9
    Min Walkers per MPI rank 1
    Using non-blocking send/recv
 iParam (old):                  0                 1                24              4096                 9                 1                 1                 0
 iParam (new):                400                 1                24              4096                 9                 1                 1                 0
 vParam (old):   5.0000000000e-03  4.9596203886e-03 -2.4179518486e+01 -2.4182697361e+01 -2.4188206976e+01  1.5000000000e+01  1.0000000000e+01  2.0000000000e-01  3.3325245148e-01 -5.2720699068e+05  2.1801000000e+04  1.0000000000e+00  1.0000000000e+01  1.0000000000e+00  1.0000000000e+00  1.0000000000e+00  1.0000000000e+00
 vParam (new):   2.5000000000e-03  4.9596203886e-03 -2.4179518486e+01 -2.4182697361e+01 -2.4188206976e+01  1.5000000000e+01  1.0000000000e+01  2.0000000000e-01  3.3325245148e-01 -5.2720699068e+05  2.1801000000e+04  1.0000000000e+00  1.0000000000e+01  1.0000000000e+00  1.0000000000e+00  1.0000000000e+00  1.0000000000e+00

 Using branching cutoff scheme classic
SimpleFixedNodeBranch::checkParameters 
  Average Energy of a population  = -24.1871
  Energy Variance = 0.30436

  Using Non-local T-moves v0, M. Casula, PRB 74, 161102(R) (2006)
===== Memory Usage after the buffer registration =====
Available memory on node 0, free + buffers : 82668 MB
Memory footprint by rank 0 on node 0       : 142 MB
==================================================

=========================================================
  Start DMC
  File Root F.log.s025 append = no 
=========================================================
Using existing walkers 
  Resetting Properties of the walkers 1 x 13
  EstimatorManagerBase::add replace LocalEnergy estimator.
  Cannot make clones again. Use existing 1 clones
SimpleFixedNodeBranch::checkParameters 
  Average Energy of a population  = -24.0755
  Energy Variance = 4.06881

  Fluctuating population
  Persistent walkers are killed after 1 MC sweeps
  BranchInterval = 1
  Steps per block = 400
  Number of blocks = 130

  DMC Engine Initialization = 2.7120113373e-03 secs

 Warmup is completed after 400

  TauEff     = 2.4920561177e-03
 TauEff/Tau = 9.9682244710e-01
  Etrial     = -2.4564994973e+01
 Running average of energy = -2.4181070285e+01
                  Variance = 3.1652109386e-01
branch cutoff = 1.0000000000e+01 1.5000000000e+01
====================================================
  SimpleFixedNodeBranch::finalize after a DMC block
    QMC counter                   = 25
    time step                     = 0.0025
    effective time step           = 0.00249194
    trial energy                  = -24.1757
    reference energy              = -24.1824
    reference variance            = 0.316521
    target walkers                = 4096
    branch cutoff                 = 10 15
    Max and minimum walkers per node= 9 1
    Feedback                      = 1
    QMC Status (BranchMode)       = 0000001111
====================================================
  QMC Execution time = 5.4840e+02 secs
  Total Execution time = 1.0156e+03 secs

=========================================================
  A new xml input file : F.log.s025.cont.xml
TACC:  Shutdown complete. Exiting. 
