
 Primary working directories    : /global/cscratch1/sd/aannabe
 Secondary working directories  : /global/cscratch1/sd/aannabe
 Wavefunction directory         : /global/homes/a/aannabe/wfu/
 Main file repository           : /global/cscratch1/sd/aannabe/

 SHA1      : 2873118e99aab1bc19f5b6fc1784693c06d15c95
 NAME      : 2015.1.8
 ARCHNAME  : linux/x86_64
 FC        : /opt/cray/pe/craype/2.5.5/bin/ftn
 BLASLIB   : -Wl,-_start-group /opt/intel/compilers_and_libraries_2016.3.210/linux/mkl/lib/intel64/libmkl_intel_ilp64.a /opt/intel/compilers_and_libraries_2016.3.210/linux/mkl/lib/intel64/libmkl_intel_thread.a /opt/intel/compilers_and_libraries_2016.3.210/linux/mkl/lib/intel64/libmkl_core.a -Wl,-_end-group
 id        : lbl

 Nodes     nprocs
 nid00473     3
 Number of processes for MPI-2 version of Molpro:   nprocs(total)=    4   nprocs(compute)=    3   nprocs(helper)=    1

 Using customized tuning parameters: mindgm=8; mindgv=16; mindgc=4; mindgr=1; noblas=0; minvec=7
 default implementation of scratch files=sf  

 ***,O
 memory,256,m
                                                                                 !gthresh,twoint=1.e-12
 
 print,basis,orbitals
 
 angstrom
 geometry={
 1                                                                               ! Number of atoms
 O 0.0 0.0 0.0
 }
 
 basis={
 Including file /global/homes/a/aannabe/docs/totals/pps/O.pp
 Including file /global/homes/a/aannabe/docs/totals/basis/aug-cc-pVnZ/O_7z.basis
 }
 
 {hf
 wf,6,7,2
 occ,1,1,1,0,1,0,0,0
                                                                                 !open,1.3
 closed,1,1,0,0,0,0,0,0
                                                                                 !sym,
 }
 scf(i)=energy
 
                                                                                 !_CC_NORM_MAX=2.0
 {uccsd(t)
 maxit,100
 core
 }
 posthf(i)=energy
 
 table,scf,posthf
 save,7z.csv
 
 
 

 Variables initialized (889), CPU time= 0.01 sec
 Commands  initialized (702), CPU time= 0.01 sec, 572 directives.
 Default parameters read. Elapsed time= 0.99 sec

 Checking input...
 Passed
1


                                         ***  PROGRAM SYSTEM MOLPRO  ***
                                       Copyright, TTI GmbH Stuttgart, 2015
                                    Version 2015.1 linked Sep  7 2016 23:09:38


 **********************************************************************************************************************************
 LABEL *   O                                                                             
  64 bit mpp version                                                                     DATE: 25-May-18          TIME: 13:33:50  
 **********************************************************************************************************************************

 SHA1:             2873118e99aab1bc19f5b6fc1784693c06d15c95
 **********************************************************************************************************************************

 ZUNIT=ANG
 

Geometry recognized as XYZ


 Variable memory set to  256000000 words,  buffer space   230000 words

 SETTING BASIS          =    USERDEF


 Recomputing integrals since basis changed


 Using spherical harmonics



 PROGRAM * SEWARD (Integral evaluation for generally contracted gaussian basis sets)     Author: Roland Lindh, 1990

 Geometry written to block  1 of record 700

 Orientation using atomic masses  
 Molecule type: Atom
 Symmetry elements: X,Y,Z
 Rotational constants:       0.0000000      0.0000000      0.0000000 GHz  (calculated with average atomic masses)

 Point group  D2h 



 ATOMIC COORDINATES

 NR  ATOM    CHARGE       X              Y              Z

   1  O       6.00    0.000000000    0.000000000    0.000000000


          O   CORE POTENTIAL

          p POTENTIAL

 POWERS             1              3              2
 EXPONENTIALS   12.30997       14.76962       13.71419    
 COEFFICIENTS   6.000000       73.85984      -47.87600    

          s - p POTENTIAL

 POWERS             2
 EXPONENTIALS   13.65512    
 COEFFICIENTS   85.86406    


 BASIS DATA

   Nr Sym  Nuc  Type         Exponents   Contraction coefficients

    1.1 Ag    1  1s          54.775216    -0.001244
                             25.616801     0.010733
                             11.980245     0.001889
                              6.992317    -0.174254
                              2.620277     0.001762
                              1.225429     0.316185
                              0.577797     0.451202
                              0.268022     0.312153
                              0.125346     0.051117
    2.1 Ag    1  1s           0.070647     1.000000
    3.1 Ag    1  1s           0.158161     1.000000
    4.1 Ag    1  1s           0.354083     1.000000
    5.1 Ag    1  1s           0.792702     1.000000
    6.1 Ag    1  1s           1.774660     1.000000
    7.1 Ag    1  1s           3.973015     1.000000
    8.1 Ag    1  1s           8.894580     1.000000
    9.1 Ag    1  3d0          0.125060     1.000000
   10.1 Ag    1  3d2+         0.125060     1.000000
   11.1 Ag    1  3d0          0.267124     1.000000
   12.1 Ag    1  3d2+         0.267124     1.000000
   13.1 Ag    1  3d0          0.570568     1.000000
   14.1 Ag    1  3d2+         0.570568     1.000000
   15.1 Ag    1  3d0          1.218712     1.000000
   16.1 Ag    1  3d2+         1.218712     1.000000
   17.1 Ag    1  3d0          2.603127     1.000000
   18.1 Ag    1  3d2+         2.603127     1.000000
   19.1 Ag    1  3d0          5.560187     1.000000
   20.1 Ag    1  3d2+         5.560187     1.000000
   21.1 Ag    1  3d0         11.876366     1.000000
   22.1 Ag    1  3d2+        11.876366     1.000000
   23.1 Ag    1  5g0          0.376820     1.000000
   24.1 Ag    1  5g4+         0.376820     1.000000
   25.1 Ag    1  5g2+         0.376820     1.000000
   26.1 Ag    1  5g0          0.794132     1.000000
   27.1 Ag    1  5g4+         0.794132     1.000000
   28.1 Ag    1  5g2+         0.794132     1.000000
   29.1 Ag    1  5g0          1.673599     1.000000
   30.1 Ag    1  5g4+         1.673599     1.000000
   31.1 Ag    1  5g2+         1.673599     1.000000
   32.1 Ag    1  5g0          3.527038     1.000000
   33.1 Ag    1  5g4+         3.527038     1.000000
   34.1 Ag    1  5g2+         3.527038     1.000000
   35.1 Ag    1  5g0          7.433081     1.000000
   36.1 Ag    1  5g4+         7.433081     1.000000
   37.1 Ag    1  5g2+         7.433081     1.000000
   38.1 Ag    1  7i6+         0.780381     1.000000
   39.1 Ag    1  7i4+         0.780381     1.000000
   40.1 Ag    1  7i2+         0.780381     1.000000
   41.1 Ag    1  7i0          0.780381     1.000000
   42.1 Ag    1  7i6+         1.900105     1.000000
   43.1 Ag    1  7i4+         1.900105     1.000000
   44.1 Ag    1  7i2+         1.900105     1.000000
   45.1 Ag    1  7i0          1.900105     1.000000
   46.1 Ag    1  7i6+         4.626455     1.000000
   47.1 Ag    1  7i4+         4.626455     1.000000
   48.1 Ag    1  7i2+         4.626455     1.000000
   49.1 Ag    1  7i0          4.626455     1.000000
    1.2 B3u   1  2px         22.217266     0.010487
                             10.747550     0.036644
                              5.315785     0.080367
                              2.660761     0.162701
                              1.331816     0.237779
                              0.678626     0.281142
                              0.333673     0.264319
                              0.167017     0.146601
                              0.083598     0.045815
    2.2 B3u   1  2px          0.046094     1.000000
    3.2 B3u   1  2px          0.099749     1.000000
    4.2 B3u   1  2px          0.215862     1.000000
    5.2 B3u   1  2px          0.467137     1.000000
    6.2 B3u   1  2px          1.010908     1.000000
    7.2 B3u   1  2px          2.187657     1.000000
    8.2 B3u   1  2px          4.734204     1.000000
    9.2 B3u   1  4f1+         0.193255     1.000000
   10.2 B3u   1  4f3+         0.193255     1.000000
   11.2 B3u   1  4f1+         0.393863     1.000000
   12.2 B3u   1  4f3+         0.393863     1.000000
   13.2 B3u   1  4f1+         0.802710     1.000000
   14.2 B3u   1  4f3+         0.802710     1.000000
   15.2 B3u   1  4f1+         1.635959     1.000000
   16.2 B3u   1  4f3+         1.635959     1.000000
   17.2 B3u   1  4f1+         3.334156     1.000000
   18.2 B3u   1  4f3+         3.334156     1.000000
   19.2 B3u   1  4f1+         6.795156     1.000000
   20.2 B3u   1  4f3+         6.795156     1.000000
   21.2 B3u   1  6h1+         0.533942     1.000000
   22.2 B3u   1  6h3+         0.533942     1.000000
   23.2 B3u   1  6h5+         0.533942     1.000000
   24.2 B3u   1  6h1+         1.127425     1.000000
   25.2 B3u   1  6h3+         1.127425     1.000000
   26.2 B3u   1  6h5+         1.127425     1.000000
   27.2 B3u   1  6h1+         2.380569     1.000000
   28.2 B3u   1  6h3+         2.380569     1.000000
   29.2 B3u   1  6h5+         2.380569     1.000000
   30.2 B3u   1  6h1+         5.026596     1.000000
   31.2 B3u   1  6h3+         5.026596     1.000000
   32.2 B3u   1  6h5+         5.026596     1.000000
    1.3 B2u   1  2py         22.217266     0.010487
                             10.747550     0.036644
                              5.315785     0.080367
                              2.660761     0.162701
                              1.331816     0.237779
                              0.678626     0.281142
                              0.333673     0.264319
                              0.167017     0.146601
                              0.083598     0.045815
    2.3 B2u   1  2py          0.046094     1.000000
    3.3 B2u   1  2py          0.099749     1.000000
    4.3 B2u   1  2py          0.215862     1.000000
    5.3 B2u   1  2py          0.467137     1.000000
    6.3 B2u   1  2py          1.010908     1.000000
    7.3 B2u   1  2py          2.187657     1.000000
    8.3 B2u   1  2py          4.734204     1.000000
    9.3 B2u   1  4f1-         0.193255     1.000000
   10.3 B2u   1  4f3-         0.193255     1.000000
   11.3 B2u   1  4f1-         0.393863     1.000000
   12.3 B2u   1  4f3-         0.393863     1.000000
   13.3 B2u   1  4f1-         0.802710     1.000000
   14.3 B2u   1  4f3-         0.802710     1.000000
   15.3 B2u   1  4f1-         1.635959     1.000000
   16.3 B2u   1  4f3-         1.635959     1.000000
   17.3 B2u   1  4f1-         3.334156     1.000000
   18.3 B2u   1  4f3-         3.334156     1.000000
   19.3 B2u   1  4f1-         6.795156     1.000000
   20.3 B2u   1  4f3-         6.795156     1.000000
   21.3 B2u   1  6h1-         0.533942     1.000000
   22.3 B2u   1  6h3-         0.533942     1.000000
   23.3 B2u   1  6h5-         0.533942     1.000000
   24.3 B2u   1  6h1-         1.127425     1.000000
   25.3 B2u   1  6h3-         1.127425     1.000000
   26.3 B2u   1  6h5-         1.127425     1.000000
   27.3 B2u   1  6h1-         2.380569     1.000000
   28.3 B2u   1  6h3-         2.380569     1.000000
   29.3 B2u   1  6h5-         2.380569     1.000000
   30.3 B2u   1  6h1-         5.026596     1.000000
   31.3 B2u   1  6h3-         5.026596     1.000000
   32.3 B2u   1  6h5-         5.026596     1.000000
    1.4 B1g   1  3d2-         0.125060     1.000000
    2.4 B1g   1  3d2-         0.267124     1.000000
    3.4 B1g   1  3d2-         0.570568     1.000000
    4.4 B1g   1  3d2-         1.218712     1.000000
    5.4 B1g   1  3d2-         2.603127     1.000000
    6.4 B1g   1  3d2-         5.560187     1.000000
    7.4 B1g   1  3d2-        11.876366     1.000000
    8.4 B1g   1  5g2-         0.376820     1.000000
    9.4 B1g   1  5g4-         0.376820     1.000000
   10.4 B1g   1  5g2-         0.794132     1.000000
   11.4 B1g   1  5g4-         0.794132     1.000000
   12.4 B1g   1  5g2-         1.673599     1.000000
   13.4 B1g   1  5g4-         1.673599     1.000000
   14.4 B1g   1  5g2-         3.527038     1.000000
   15.4 B1g   1  5g4-         3.527038     1.000000
   16.4 B1g   1  5g2-         7.433081     1.000000
   17.4 B1g   1  5g4-         7.433081     1.000000
   18.4 B1g   1  7i2-         0.780381     1.000000
   19.4 B1g   1  7i6-         0.780381     1.000000
   20.4 B1g   1  7i4-         0.780381     1.000000
   21.4 B1g   1  7i2-         1.900105     1.000000
   22.4 B1g   1  7i6-         1.900105     1.000000
   23.4 B1g   1  7i4-         1.900105     1.000000
   24.4 B1g   1  7i2-         4.626455     1.000000
   25.4 B1g   1  7i6-         4.626455     1.000000
   26.4 B1g   1  7i4-         4.626455     1.000000
    1.5 B1u   1  2pz         22.217266     0.010487
                             10.747550     0.036644
                              5.315785     0.080367
                              2.660761     0.162701
                              1.331816     0.237779
                              0.678626     0.281142
                              0.333673     0.264319
                              0.167017     0.146601
                              0.083598     0.045815
    2.5 B1u   1  2pz          0.046094     1.000000
    3.5 B1u   1  2pz          0.099749     1.000000
    4.5 B1u   1  2pz          0.215862     1.000000
    5.5 B1u   1  2pz          0.467137     1.000000
    6.5 B1u   1  2pz          1.010908     1.000000
    7.5 B1u   1  2pz          2.187657     1.000000
    8.5 B1u   1  2pz          4.734204     1.000000
    9.5 B1u   1  4f0          0.193255     1.000000
   10.5 B1u   1  4f2+         0.193255     1.000000
   11.5 B1u   1  4f0          0.393863     1.000000
   12.5 B1u   1  4f2+         0.393863     1.000000
   13.5 B1u   1  4f0          0.802710     1.000000
   14.5 B1u   1  4f2+         0.802710     1.000000
   15.5 B1u   1  4f0          1.635959     1.000000
   16.5 B1u   1  4f2+         1.635959     1.000000
   17.5 B1u   1  4f0          3.334156     1.000000
   18.5 B1u   1  4f2+         3.334156     1.000000
   19.5 B1u   1  4f0          6.795156     1.000000
   20.5 B1u   1  4f2+         6.795156     1.000000
   21.5 B1u   1  6h2+         0.533942     1.000000
   22.5 B1u   1  6h4+         0.533942     1.000000
   23.5 B1u   1  6h0          0.533942     1.000000
   24.5 B1u   1  6h2+         1.127425     1.000000
   25.5 B1u   1  6h4+         1.127425     1.000000
   26.5 B1u   1  6h0          1.127425     1.000000
   27.5 B1u   1  6h2+         2.380569     1.000000
   28.5 B1u   1  6h4+         2.380569     1.000000
   29.5 B1u   1  6h0          2.380569     1.000000
   30.5 B1u   1  6h2+         5.026596     1.000000
   31.5 B1u   1  6h4+         5.026596     1.000000
   32.5 B1u   1  6h0          5.026596     1.000000
    1.6 B2g   1  3d1+         0.125060     1.000000
    2.6 B2g   1  3d1+         0.267124     1.000000
    3.6 B2g   1  3d1+         0.570568     1.000000
    4.6 B2g   1  3d1+         1.218712     1.000000
    5.6 B2g   1  3d1+         2.603127     1.000000
    6.6 B2g   1  3d1+         5.560187     1.000000
    7.6 B2g   1  3d1+        11.876366     1.000000
    8.6 B2g   1  5g1+         0.376820     1.000000
    9.6 B2g   1  5g3+         0.376820     1.000000
   10.6 B2g   1  5g1+         0.794132     1.000000
   11.6 B2g   1  5g3+         0.794132     1.000000
   12.6 B2g   1  5g1+         1.673599     1.000000
   13.6 B2g   1  5g3+         1.673599     1.000000
   14.6 B2g   1  5g1+         3.527038     1.000000
   15.6 B2g   1  5g3+         3.527038     1.000000
   16.6 B2g   1  5g1+         7.433081     1.000000
   17.6 B2g   1  5g3+         7.433081     1.000000
   18.6 B2g   1  7i5+         0.780381     1.000000
   19.6 B2g   1  7i3+         0.780381     1.000000
   20.6 B2g   1  7i1+         0.780381     1.000000
   21.6 B2g   1  7i5+         1.900105     1.000000
   22.6 B2g   1  7i3+         1.900105     1.000000
   23.6 B2g   1  7i1+         1.900105     1.000000
   24.6 B2g   1  7i5+         4.626455     1.000000
   25.6 B2g   1  7i3+         4.626455     1.000000
   26.6 B2g   1  7i1+         4.626455     1.000000
    1.7 B3g   1  3d1-         0.125060     1.000000
    2.7 B3g   1  3d1-         0.267124     1.000000
    3.7 B3g   1  3d1-         0.570568     1.000000
    4.7 B3g   1  3d1-         1.218712     1.000000
    5.7 B3g   1  3d1-         2.603127     1.000000
    6.7 B3g   1  3d1-         5.560187     1.000000
    7.7 B3g   1  3d1-        11.876366     1.000000
    8.7 B3g   1  5g1-         0.376820     1.000000
    9.7 B3g   1  5g3-         0.376820     1.000000
   10.7 B3g   1  5g1-         0.794132     1.000000
   11.7 B3g   1  5g3-         0.794132     1.000000
   12.7 B3g   1  5g1-         1.673599     1.000000
   13.7 B3g   1  5g3-         1.673599     1.000000
   14.7 B3g   1  5g1-         3.527038     1.000000
   15.7 B3g   1  5g3-         3.527038     1.000000
   16.7 B3g   1  5g1-         7.433081     1.000000
   17.7 B3g   1  5g3-         7.433081     1.000000
   18.7 B3g   1  7i5-         0.780381     1.000000
   19.7 B3g   1  7i3-         0.780381     1.000000
   20.7 B3g   1  7i1-         0.780381     1.000000
   21.7 B3g   1  7i5-         1.900105     1.000000
   22.7 B3g   1  7i3-         1.900105     1.000000
   23.7 B3g   1  7i1-         1.900105     1.000000
   24.7 B3g   1  7i5-         4.626455     1.000000
   25.7 B3g   1  7i3-         4.626455     1.000000
   26.7 B3g   1  7i1-         4.626455     1.000000
    1.8 Au    1  4f2-         0.193255     1.000000
    2.8 Au    1  4f2-         0.393863     1.000000
    3.8 Au    1  4f2-         0.802710     1.000000
    4.8 Au    1  4f2-         1.635959     1.000000
    5.8 Au    1  4f2-         3.334156     1.000000
    6.8 Au    1  4f2-         6.795156     1.000000
    7.8 Au    1  6h4-         0.533942     1.000000
    8.8 Au    1  6h2-         0.533942     1.000000
    9.8 Au    1  6h4-         1.127425     1.000000
   10.8 Au    1  6h2-         1.127425     1.000000
   11.8 Au    1  6h4-         2.380569     1.000000
   12.8 Au    1  6h2-         2.380569     1.000000
   13.8 Au    1  6h4-         5.026596     1.000000
   14.8 Au    1  6h2-         5.026596     1.000000

 NUCLEAR CHARGE:                    6
 NUMBER OF PRIMITIVE AOS:         409
 NUMBER OF SYMMETRY AOS:          269
 NUMBER OF CONTRACTIONS:          237   (  49Ag  +  32B3u +  32B2u +  26B1g +  32B1u +  26B2g +  26B3g +  14Au  )
 NUMBER OF CORE ORBITALS:           0   (   0Ag  +   0B3u +   0B2u +   0B1g +   0B1u +   0B2g +   0B3g +   0Au  )
 NUMBER OF VALENCE ORBITALS:        4   (   1Ag  +   1B3u +   1B2u +   0B1g +   1B1u +   0B2g +   0B3g +   0Au  )


 NUCLEAR REPULSION ENERGY    0.00000000

 EXTRA SYMMETRY OF AOS IN SYMMETRY 1:   1 1 1 1 1 1 1 1 2 3   2 3 2 3 2 3 2 3 2 3   2 3 4 5 6 4 5 6 4 5   6 4 5 6 4 5 6 7 8 9
                                       10 7 8 910 7 8 910
 EXTRA SYMMETRY OF AOS IN SYMMETRY 2:   1 1 1 1 1 1 1 1 2 3   2 3 2 3 2 3 2 3 2 3   4 5 6 4 5 6 4 5 6 4   5 6
 EXTRA SYMMETRY OF AOS IN SYMMETRY 3:   1 1 1 1 1 1 1 1 2 3   2 3 2 3 2 3 2 3 2 3   4 5 6 4 5 6 4 5 6 4   5 6
 EXTRA SYMMETRY OF AOS IN SYMMETRY 4:   1 1 1 1 1 1 1 2 3 2   3 2 3 2 3 2 3 4 5 6   4 5 6 4 5 6
 EXTRA SYMMETRY OF AOS IN SYMMETRY 5:   1 1 1 1 1 1 1 1 2 3   2 3 2 3 2 3 2 3 2 3   4 5 6 4 5 6 4 5 6 4   5 6
 EXTRA SYMMETRY OF AOS IN SYMMETRY 6:   1 1 1 1 1 1 1 2 3 2   3 2 3 2 3 2 3 4 5 6   4 5 6 4 5 6
 EXTRA SYMMETRY OF AOS IN SYMMETRY 7:   1 1 1 1 1 1 1 2 3 2   3 2 3 2 3 2 3 4 5 6   4 5 6 4 5 6
 EXTRA SYMMETRY OF AOS IN SYMMETRY 8:   1 1 1 1 1 1 2 3 2 3   2 3 2 3

 Eigenvalues of metric

         1 0.241E-04 0.184E-02 0.989E-02 0.119E-01 0.119E-01 0.449E-01 0.462E-01 0.462E-01
         2 0.397E-03 0.522E-02 0.204E-01 0.204E-01 0.239E-01 0.887E-01 0.887E-01 0.920E-01
         3 0.397E-03 0.522E-02 0.204E-01 0.204E-01 0.239E-01 0.887E-01 0.887E-01 0.920E-01
         4 0.119E-01 0.462E-01 0.589E-01 0.589E-01 0.153E+00 0.229E+00 0.229E+00 0.346E+00
         5 0.397E-03 0.522E-02 0.204E-01 0.204E-01 0.239E-01 0.887E-01 0.887E-01 0.920E-01
         6 0.119E-01 0.462E-01 0.589E-01 0.589E-01 0.153E+00 0.229E+00 0.229E+00 0.346E+00
         7 0.119E-01 0.462E-01 0.589E-01 0.589E-01 0.153E+00 0.229E+00 0.229E+00 0.346E+00
         8 0.204E-01 0.887E-01 0.117E+00 0.117E+00 0.303E+00 0.452E+00 0.452E+00 0.831E+00


 Contracted 2-electron integrals neglected if value below      1.0D-12
 AO integral compression algorithm  1   Integral accuracy      1.0D-12

     295.436 MB (compressed) written to integral file ( 45.3%)

     Node minimum: 77.857 MB, node maximum: 129.237 MB


 NUMBER OF SORTED TWO-ELECTRON INTEGRALS:   16928619.     BUFFER LENGTH:  32768
 NUMBER OF SEGMENTS:   2  SEGMENT LENGTH:   15999723      RECORD LENGTH: 524288

 Memory used in sort:      16.56 MW

 SORT1 READ    81475142. AND WROTE    10994868. INTEGRALS IN     33 RECORDS. CPU TIME:     4.54 SEC, REAL TIME:     4.79 SEC
 SORT2 READ    32894812. AND WROTE    50683540. INTEGRALS IN   1479 RECORDS. CPU TIME:     0.71 SEC, REAL TIME:     1.00 SEC

 Node minimum:    16877412.  Node maximum:    16928619. integrals

 OPERATOR DM      FOR CENTER  0  COORDINATES:    0.000000    0.000000    0.000000


 **********************************************************************************************************************************
 DATASETS  * FILE   NREC   LENGTH (MB)   RECORD NAMES
              1      19       19.48       500      610      700      900      950      970     1000      129      960     1100   
                                          VAR    BASINP    GEOM    SYMINP    ZMAT    AOBASIS   BASIS     P2S    ABASIS      S 
                                         1400     1410     1420     1200     1210     1080     1600     1650     1700   
                                           T        V       ECP      H0       H01     AOSYM     SMH    MOLCAS    OPER   

 PROGRAMS   *        TOTAL       INT
 CPU TIMES  *        13.85     13.65
 REAL TIME  *        18.43 SEC
 DISK USED  *       680.00 MB      
 GA USED    *         0.00 MB       (max)       0.00 MB       (current)
 **********************************************************************************************************************************


 PROGRAM * RHF-SCF (OPEN SHELL)       Authors: W. Meyer, H.-J. Werner


 NUMBER OF ELECTRONS:       4+    2-    SPACE SYMMETRY=7    SPIN SYMMETRY: Triplet 
 CONVERGENCE THRESHOLDS:    1.00E-05 (Density)    1.00E-07 (Energy)
 MAX. NUMBER OF ITERATIONS:       60
 INTERPOLATION TYPE:            DIIS
 INTERPOLATION STEPS:              2 (START)      1 (STEP)
 LEVEL SHIFTS:                 -0.60 (CLOSED) -0.30 (OPEN) 

 Number of closed-shell orbitals:    2 (   1   1   0   0   0   0   0   0 )
 Number of open-shell orbitals:      2 (   0   0   1   0   1   0   0   0 )



   Atom=O  basis=ECP2MWB_GUESS     lmin=0  lmax=1

 Orbital guess generated from atomic densities. Full valence occupancy:    1   1   1   0   1   0   0   0


 Molecular orbital dump at record        2100.2

 ITERATION    DDIFF          GRAD             ENERGY        2-EL.EN.            DIPOLE MOMENTS         DIIS   ORB.
    1      0.000D+00      0.000D+00       -15.66281696     20.335995    0.00000    0.00000    0.00000    0    start
    2      0.000D+00      0.120D-01       -15.68807548     21.190343    0.00000    0.00000    0.00000    1    diag,B
    3      0.551D-02      0.283D-02       -15.68937553     21.222992    0.00000    0.00000    0.00000    2    diag,B
    4      0.850D-03      0.109D-02       -15.68976240     21.254226    0.00000    0.00000    0.00000    3    diag,B
    5      0.548D-03      0.277D-03       -15.68979328     21.259336    0.00000    0.00000    0.00000    4    diag,B
    6      0.204D-03      0.554D-04       -15.68979432     21.258522    0.00000    0.00000    0.00000    5    diag,B
    7      0.504D-04      0.133D-04       -15.68979439     21.258343    0.00000    0.00000    0.00000    6    fixocc
    8      0.167D-04      0.338D-05       -15.68979440     21.258275    0.00000    0.00000    0.00000    7    diag,B
    9      0.606D-05      0.602D-06       -15.68979440     21.258273    0.00000    0.00000    0.00000    0    orth

 Final alpha occupancy:   1   1   1   0   1   0   0   0
 Final beta  occupancy:   1   1   0   0   0   0   0   0

 !RHF STATE 1.7 Energy                -15.689794396426
 Nuclear energy                         0.00000000
 One-electron energy                  -26.31893067
 Two-electron energy                   10.62913628
 Virial quotient                       -1.32456968
 !RHF STATE 1.7 Dipole moment           0.00000000     0.00000000     0.00000000
 Dipole moment /Debye                   0.00000000     0.00000000     0.00000000

 ELECTRON ORBITALS
 =================


   Orb  Occ    Energy  Couls-En    Coefficients

                                   1 1s      1 1s      1 1s      1 1s      1 1s      1 1s      1 1s      1 1s      1 3d0     1 3d2+ 
                                   1 3d0     1 3d2+    1 3d0     1 3d2+    1 3d0     1 3d2+    1 3d0     1 3d2+    1 3d0     1 3d2+ 
                                   1 3d0     1 3d2+    1 5g0     1 5g4+    1 5g2+    1 5g0     1 5g4+    1 5g2+    1 5g0     1 5g4+ 
                                   1 5g2+    1 5g0     1 5g4+    1 5g2+    1 5g0     1 5g4+    1 5g2+    1 7i6+    1 7i4+    1 7i2+ 
                                   1 7i0     1 7i6+    1 7i4+    1 7i2+    1 7i0     1 7i6+    1 7i4+    1 7i2+    1 7i0  

   1.1   2    -1.2598   -6.0752  0.990089  0.002395 -0.004148  0.010233 -0.000564  0.005217 -0.002929 -0.000380 -0.000443  0.000767
                                -0.001335  0.002312 -0.000752  0.001302 -0.000001  0.000002 -0.000201  0.000348 -0.000201  0.000347
                                -0.000062  0.000107 -0.000008 -0.000015  0.000012 -0.000003 -0.000005  0.000004 -0.000000 -0.000001
                                 0.000000 -0.000000 -0.000000  0.000000 -0.000000 -0.000000  0.000000 -0.000000  0.000000 -0.000000
                                 0.000000 -0.000000  0.000000 -0.000000  0.000000 -0.000000  0.000000 -0.000000  0.000000

                                   1 2px     1 2px     1 2px     1 2px     1 2px     1 2px     1 2px     1 2px     1 4f1+    1 4f3+ 
                                   1 4f1+    1 4f3+    1 4f1+    1 4f3+    1 4f1+    1 4f3+    1 4f1+    1 4f3+    1 4f1+    1 4f3+ 
                                   1 6h1+    1 6h3+    1 6h5+    1 6h1+    1 6h3+    1 6h5+    1 6h1+    1 6h3+    1 6h5+    1 6h1+ 
                                   1 6h3+    1 6h5+ 

   1.2   2    -0.5672   -4.6952  1.000078  0.000657 -0.001233  0.000439 -0.000043  0.000049  0.000037 -0.000032  0.000522 -0.000673
                                 0.001103 -0.001424  0.001423 -0.001837  0.000998 -0.001288  0.000360 -0.000465  0.000110 -0.000142
                                 0.000006 -0.000007  0.000009  0.000006 -0.000006  0.000008  0.000003 -0.000003  0.000004  0.000000
                                -0.000001  0.000001

                                   1 2py     1 2py     1 2py     1 2py     1 2py     1 2py     1 2py     1 2py     1 4f1-    1 4f3- 
                                   1 4f1-    1 4f3-    1 4f1-    1 4f3-    1 4f1-    1 4f3-    1 4f1-    1 4f3-    1 4f1-    1 4f3- 
                                   1 6h1-    1 6h3-    1 6h5-    1 6h1-    1 6h3-    1 6h5-    1 6h1-    1 6h3-    1 6h5-    1 6h1- 
                                   1 6h3-    1 6h5- 

   1.3   +    -0.7034   -4.9194  1.033570 -0.002598 -0.033022 -0.035033 -0.002067  0.009056  0.003437  0.000021  0.000219 -0.000847
                                 0.000668 -0.002585  0.000978 -0.003787  0.000755 -0.002925  0.000275 -0.001066  0.000084 -0.000325
                                 0.000004 -0.000013  0.000030  0.000005 -0.000016  0.000036  0.000003 -0.000009  0.000020  0.000001
                                -0.000002  0.000004

                                   1 2pz     1 2pz     1 2pz     1 2pz     1 2pz     1 2pz     1 2pz     1 2pz     1 4f0     1 4f2+ 
                                   1 4f0     1 4f2+    1 4f0     1 4f2+    1 4f0     1 4f2+    1 4f0     1 4f2+    1 4f0     1 4f2+ 
                                   1 6h2+    1 6h4+    1 6h0     1 6h2+    1 6h4+    1 6h0     1 6h2+    1 6h4+    1 6h0     1 6h2+ 
                                   1 6h4+    1 6h0  

   1.5   +    -0.7034   -4.9194  1.033570 -0.002598 -0.033022 -0.035033 -0.002067  0.009056  0.003437  0.000021  0.000536 -0.000691
                                 0.001635 -0.002111  0.002395 -0.003092  0.001850 -0.002388  0.000674 -0.000870  0.000205 -0.000265
                                -0.000022  0.000019  0.000016 -0.000026  0.000023  0.000019 -0.000015  0.000013  0.000011 -0.000003
                                 0.000003  0.000002

 HOMO      1.2    -0.567218 =     -15.4348eV
 LUMO      2.3     0.096470 =       2.6251eV
 LUMO-HOMO         0.663687 =      18.0598eV


 **********************************************************************************************************************************
 DATASETS  * FILE   NREC   LENGTH (MB)   RECORD NAMES
              1      19       19.49       500      610      700      900      950      970     1000      129      960     1100   
                                          VAR    BASINP    GEOM    SYMINP    ZMAT    AOBASIS   BASIS     P2S    ABASIS      S 
                                         1400     1410     1420     1200     1210     1080     1600     1650     1700   
                                           T        V       ECP      H0       H01     AOSYM     SMH    MOLCAS    OPER   

              2       4        3.01       700     1000      520     2100   
                                         GEOM     BASIS   MCVARS     RHF  

 PROGRAMS   *        TOTAL        HF       INT
 CPU TIMES  *        14.74      0.89     13.65
 REAL TIME  *        19.96 SEC
 DISK USED  *       750.80 MB      
 SF USED    *         0.03 MB      
 GA USED    *         0.00 MB       (max)       0.00 MB       (current)
 **********************************************************************************************************************************
 SETTING SCF(I)         =       -15.68979440  AU                              


 PROGRAM * CCSD (Unrestricted open-shell coupled cluster)     Authors: C. Hampel, H.-J. Werner, 1991, M. Deegan, P.J. Knowles, 1992


 Convergence thresholds:  THRVAR = 1.00D-08  THRDEN = 1.00D-06

 CCSD(T)     terms to be evaluated (factor= 1.000)


 Number of closed-shell orbitals:   2 (   1   1   0   0   0   0   0   0 )
 Number of active  orbitals:        2 (   0   0   1   0   1   0   0   0 )
 Number of external orbitals:     233 (  48  31  31  26  31  26  26  14 )

 Memory could be reduced to 17.25 Mwords without degradation in triples

 Number of N-1 electron functions:               6
 Number of N-2 electron functions:              15
 Number of singly external CSFs:               222
 Number of doubly external CSFs:             80964
 Total number of CSFs:                       81186

 Molecular orbitals read from record     2100.2  Type=RHF/CANONICAL (state 1.7)

 Integral transformation finished. Total CPU:   0.44 sec, npass=  1  Memory used:   2.61 MW

 Starting RMP2 calculation

 ITER.      SQ.NORM     CORR.ENERGY   TOTAL ENERGY   ENERGY CHANGE        DEN1      VAR(S)    VAR(P)  DIIS     TIME
   1      1.03270693    -0.17506848   -15.86486288    -0.17506848    -0.00027419  0.77D-05  0.71D-04  1  1     0.44
   2      1.03290130    -0.17535844   -15.86515283    -0.00028995    -0.00000058  0.45D-07  0.17D-06  2  2     0.45
   3      1.03290772    -0.17536424   -15.86515863    -0.00000580    -0.00000000  0.44D-09  0.63D-09  3  3     0.46
   4      1.03290790    -0.17536431   -15.86515871    -0.00000008    -0.00000000  0.55D-11  0.46D-11  4  4     0.46

 Norm of t1 vector:      0.04366644      S-energy:    -0.00488488      T1 diagnostic:  0.00070007
 Norm of t2 vector:      0.17607142      P-energy:    -0.17047943
                                         Alpha-Beta:  -0.13317029
                                         Alpha-Alpha: -0.03278484
                                         Beta-Beta:   -0.00452430

 Spin contamination <S**2-Sz**2-Sz>     0.01092537
  Reference energy                    -15.689794396426
  RHF-RMP2 correlation energy          -0.175364312161
 !RHF-RMP2 energy                     -15.865158708587

 Starting UCCSD calculation

 ITER.      SQ.NORM     CORR.ENERGY   TOTAL ENERGY   ENERGY CHANGE        DEN1      VAR(S)    VAR(P)  DIIS     TIME
   1      1.03820658    -0.18373461   -15.87352901    -0.18373461    -0.00335639  0.18D-03  0.64D-03  1  1     0.86
   2      1.04118911    -0.18729258   -15.87708697    -0.00355796    -0.00019886  0.36D-04  0.50D-04  2  2     1.26
   3      1.04227949    -0.18797446   -15.87776886    -0.00068189    -0.00002408  0.41D-05  0.78D-05  3  3     1.66
   4      1.04270480    -0.18811858   -15.87791298    -0.00014412    -0.00000344  0.27D-06  0.15D-05  4  4     2.04
   5      1.04286825    -0.18816103   -15.87795542    -0.00004245    -0.00000037  0.42D-07  0.15D-06  5  5     2.42
   6      1.04288378    -0.18816237   -15.87795676    -0.00000134    -0.00000005  0.15D-07  0.17D-07  6  6     2.82
   7      1.04288247    -0.18816226   -15.87795665     0.00000011    -0.00000001  0.19D-08  0.19D-08  6  1     3.19

 Norm of t1 vector:      0.05705344      S-energy:    -0.00538287      T1 diagnostic:  0.00536568
                                                                       D1 diagnostic:  0.00984551
 Norm of t2 vector:      0.19906626      P-energy:    -0.18277939
                                         Alpha-Beta:  -0.14533543
                                         Alpha-Alpha: -0.03309719
                                         Beta-Beta:   -0.00434677

 Spin contamination <S**2-Sz**2-Sz>     0.00306278

 Memory could be reduced to 17.39 Mwords without degradation in triples
 

 RESULTS
 =======

  Reference energy                    -15.689794396426
  UCCSD singles energy                 -0.005382869908
  UCCSD pair energy                    -0.182779387931
  UCCSD correlation energy             -0.188162257838
  Triples (T) contribution             -0.004228788531
  Total correlation energy             -0.192391046370
 
  RHF-UCCSD energy                    -15.877956654264
  RHF-UCCSD[T] energy                 -15.882194839218
  RHF-UCCSD-T energy                  -15.882166447076
 !RHF-UCCSD(T) energy                 -15.882185442796

 Program statistics:

 Available memory in ccsd:               255999732
 Min. memory needed in ccsd:                436861
 Max. memory used in ccsd:                  512253
 Max. memory used in cckext:                462603 ( 7 integral passes)
 Max. memory used in cckint:               2613212 ( 1 integral passes)



 **********************************************************************************************************************************
 DATASETS  * FILE   NREC   LENGTH (MB)   RECORD NAMES
              1      19       19.49       500      610      700      900      950      970     1000      129      960     1100   
                                          VAR    BASINP    GEOM    SYMINP    ZMAT    AOBASIS   BASIS     P2S    ABASIS      S 
                                         1400     1410     1420     1200     1210     1080     1600     1650     1700   
                                           T        V       ECP      H0       H01     AOSYM     SMH    MOLCAS    OPER   

              2       4        3.01       700     1000      520     2100   
                                         GEOM     BASIS   MCVARS     RHF  

 PROGRAMS   *        TOTAL  UCCSD(T)        HF       INT
 CPU TIMES  *        19.41      4.66      0.89     13.65
 REAL TIME  *        28.94 SEC
 DISK USED  *       778.13 MB      
 SF USED    *       169.72 MB      
 GA USED    *         0.00 MB       (max)       0.00 MB       (current)
 **********************************************************************************************************************************
 SETTING POSTHF(I)      =       -15.88218544  AU                              
                                                                                                                                                                                                                                                                

        SCF            POSTHF
    -15.68979440   -15.88218544
                                                  

 UCCSD(T)/USERDEF energy=    -15.882185442796

        UCCSD(T)        HF-SCF  
    -15.88218544    -15.68979440
 **********************************************************************************************************************************
 Variable memory released
