
 Primary working directories    : /global/cscratch1/sd/aannabe
 Secondary working directories  : /global/cscratch1/sd/aannabe
 Wavefunction directory         : /global/homes/a/aannabe/wfu/
 Main file repository           : /global/cscratch1/sd/aannabe/

 SHA1      : 2873118e99aab1bc19f5b6fc1784693c06d15c95
 NAME      : 2015.1.8
 ARCHNAME  : linux/x86_64
 FC        : /opt/cray/pe/craype/2.5.5/bin/ftn
 BLASLIB   : -Wl,-_start-group /opt/intel/compilers_and_libraries_2016.3.210/linux/mkl/lib/intel64/libmkl_intel_ilp64.a /opt/intel/compilers_and_libraries_2016.3.210/linux/mkl/lib/intel64/libmkl_intel_thread.a /opt/intel/compilers_and_libraries_2016.3.210/linux/mkl/lib/intel64/libmkl_core.a -Wl,-_end-group
 id        : lbl

 Nodes     nprocs
 nid00443     1

 Using customized tuning parameters: mindgm=8; mindgv=16; mindgc=4; mindgr=1; noblas=0; minvec=7
 default implementation of scratch files=df  

 ***,B
 memory,8,g
 gthresh,twoint=1.e-12
 
 gprint,basis,orbitals
 gexpec,ekin,pot
 
 angstrom
 geometry={
 1                                                                               ! Number of atoms
 B 0.0 0.0 0.0
 }
 
 basis={
 Including file /global/homes/a/aannabe/docs/totals/pps/B.pp
 Including file /global/homes/a/aannabe/docs/totals/basis/aug-cc-pVnZ/B_tz.basis
 }
 
 {hf
 wf,3,2,1
 occ,1,1,0,0,0,0,0,0
 open,1.2
                                                                                 !closed,1,0,0,0,0,0,0,0
                                                                                 !sym,
 }
 scf(i)=energy
 
 _CC_NORM_MAX=2.0
  !NOTE: Perturbative MRCC works only with UHF reference. So, here we will trick MRCC by doing zero UHF iteration right after ROHF.
 
 {uhf
 wf,3,2,1
 occ,1,1,0,0,0,0,0,0
 open,1.2
                                                                                 !closed,1,0,0,0,0,0,0,0
                                                                                 !sym,
 maxit,0
 }
 scf(i)=energy
 
 {mrcc,method=CCSDT(Q)
 orbital,ignore_error=1                                                          !Ignore the fact that UHF WF is not converged
 maxit,100
 core
 }
 posthf(i)=energy
 
 table,scf,posthf,ekin,pot
 save,3.csv
 
 

 Variables initialized (889), CPU time= 0.00 sec
 Commands  initialized (702), CPU time= 0.01 sec, 572 directives.
 Default parameters read. Elapsed time= 0.13 sec

 Checking input...
 Passed
1


                                         ***  PROGRAM SYSTEM MOLPRO  ***
                                       Copyright, TTI GmbH Stuttgart, 2015
                                    Version 2015.1 linked Sep  7 2016 23:09:38


 **********************************************************************************************************************************
 LABEL *   B                                                                             
  64 bit serial version                                                                  DATE: 15-Jun-18          TIME: 10:08:41  
 **********************************************************************************************************************************

 SHA1:             2873118e99aab1bc19f5b6fc1784693c06d15c95
 **********************************************************************************************************************************

 THRESHOLDS:

 ZERO    =  1.00D-12  ONEINT  =  1.00D-12  TWOINT  =  1.00D-12  PREFAC  =  1.00D-14  LOCALI  =  1.00D-09  EORDER  =  1.00D-04
 ENERGY  =  0.00D+00  ETEST   =  0.00D+00  EDENS   =  0.00D+00  THRDEDEF=  1.00D-06  GRADIENT=  1.00D-02  STEP    =  1.00D-03
 ORBITAL =  1.00D-05  CIVEC   =  1.00D-05  COEFF   =  1.00D-04  PRINTCI =  5.00D-02  PUNCHCI =  9.90D+01  OPTGRAD =  3.00D-04
 OPTENERG=  1.00D-06  OPTSTEP =  3.00D-04  THRGRAD =  1.00D-10  COMPRESS=  1.00D-11  VARMIN  =  1.00D-07  VARMAX  =  1.00D-03
 THRDOUB =  0.00D+00  THRDIV  =  1.00D-05  THRRED  =  1.00D-07  THRPSP  =  1.00D+00  THRDC   =  1.00D-10  THRCS   =  1.00D-10
 THRNRM  =  1.00D-08  THREQ   =  0.00D+00  THRDE   =  1.00D+00  THRREF  =  1.00D-05  SPARFAC =  1.00D+00  THRDLP  =  1.00D-07
 THRDIA  =  1.00D-10  THRDLS  =  1.00D-07  THRGPS  =  0.00D+00  THRKEX  =  0.00D+00  THRDIS  =  2.00D-01  THRVAR  =  1.00D-10
 THRLOC  =  1.00D-06  THRGAP  =  1.00D-06  THRLOCT = -1.00D+00  THRGAPT = -1.00D+00  THRORB  =  1.00D-06  THRMLTP =  0.00D+00
 THRCPQCI=  1.00D-10  KEXTA   =  0.00D+00  THRCOARS=  0.00D+00  SYMTOL  =  1.00D-06  GRADTOL =  1.00D-06  THROVL  =  1.00D-08
 THRORTH =  1.00D-08  GRID    =  1.00D-06  GRIDMAX =  1.00D-03  DTMAX   =  0.00D+00  THROCCDE=  1.00D-01  THROCCDE=  1.00D-01



 ZUNIT=ANG
 

Geometry recognized as XYZ


 Variable memory set to 8000000000 words,  buffer space   230000 words

 SETTING BASIS          =    USERDEF


 Recomputing integrals since basis changed


 Using spherical harmonics



 PROGRAM * SEWARD (Integral evaluation for generally contracted gaussian basis sets)     Author: Roland Lindh, 1990

 Geometry written to block  1 of record 700

 Orientation using atomic masses  
 Molecule type: Atom
 Symmetry elements: X,Y,Z
 Rotational constants:       0.0000000      0.0000000      0.0000000 GHz  (calculated with average atomic masses)

 Point group  D2h 



 ATOMIC COORDINATES

 NR  ATOM    CHARGE       X              Y              Z

   1  B       3.00    0.000000000    0.000000000    0.000000000


          B   CORE POTENTIAL

          p POTENTIAL

 POWERS             1              3              2
 EXPONENTIALS   31.49298       22.56509       8.646690    
 COEFFICIENTS   3.000000       94.47895      -9.748000    

          s - p POTENTIAL

 POWERS             2
 EXPONENTIALS   4.062460    
 COEFFICIENTS   20.74800    


 BASIS DATA

   Nr Sym  Nuc  Type         Exponents   Contraction coefficients

    1.1 Ag    1  1s          11.760500    -0.003676
                              5.150520     0.025052
                              2.578276    -0.124923
                              1.290648    -0.066287
                              0.646080     0.100734
                              0.323418     0.337549
                              0.161898     0.430843
                              0.081044     0.248656
                              0.040569     0.031730
    2.1 Ag    1  1s           0.626026     1.000000
    3.1 Ag    1  1s           0.092094     1.000000
    4.1 Ag    1  1s           0.036838     1.000000
    5.1 Ag    1  3d0          0.699153     1.000000
    6.1 Ag    1  3d2+         0.699153     1.000000
    7.1 Ag    1  3d0          0.207316     1.000000
    8.1 Ag    1  3d2+         0.207316     1.000000
    9.1 Ag    1  3d0          0.082926     1.000000
   10.1 Ag    1  3d2+         0.082926     1.000000
    1.2 B3u   1  2px          7.470701     0.004740
                              3.735743     0.037601
                              1.868068     0.051060
                              0.934132     0.145659
                              0.467115     0.223793
                              0.233582     0.319947
                              0.116803     0.285019
                              0.058408     0.144881
                              0.029207     0.017696
    2.2 B3u   1  2px          0.235016     1.000000
    3.2 B3u   1  2px          0.082056     1.000000
    4.2 B3u   1  2px          0.032822     1.000000
    5.2 B3u   1  4f1+         0.478872     1.000000
    6.2 B3u   1  4f3+         0.478872     1.000000
    7.2 B3u   1  4f1+         0.191549     1.000000
    8.2 B3u   1  4f3+         0.191549     1.000000
    1.3 B2u   1  2py          7.470701     0.004740
                              3.735743     0.037601
                              1.868068     0.051060
                              0.934132     0.145659
                              0.467115     0.223793
                              0.233582     0.319947
                              0.116803     0.285019
                              0.058408     0.144881
                              0.029207     0.017696
    2.3 B2u   1  2py          0.235016     1.000000
    3.3 B2u   1  2py          0.082056     1.000000
    4.3 B2u   1  2py          0.032822     1.000000
    5.3 B2u   1  4f1-         0.478872     1.000000
    6.3 B2u   1  4f3-         0.478872     1.000000
    7.3 B2u   1  4f1-         0.191549     1.000000
    8.3 B2u   1  4f3-         0.191549     1.000000
    1.4 B1g   1  3d2-         0.699153     1.000000
    2.4 B1g   1  3d2-         0.207316     1.000000
    3.4 B1g   1  3d2-         0.082926     1.000000
    1.5 B1u   1  2pz          7.470701     0.004740
                              3.735743     0.037601
                              1.868068     0.051060
                              0.934132     0.145659
                              0.467115     0.223793
                              0.233582     0.319947
                              0.116803     0.285019
                              0.058408     0.144881
                              0.029207     0.017696
    2.5 B1u   1  2pz          0.235016     1.000000
    3.5 B1u   1  2pz          0.082056     1.000000
    4.5 B1u   1  2pz          0.032822     1.000000
    5.5 B1u   1  4f0          0.478872     1.000000
    6.5 B1u   1  4f2+         0.478872     1.000000
    7.5 B1u   1  4f0          0.191549     1.000000
    8.5 B1u   1  4f2+         0.191549     1.000000
    1.6 B2g   1  3d1+         0.699153     1.000000
    2.6 B2g   1  3d1+         0.207316     1.000000
    3.6 B2g   1  3d1+         0.082926     1.000000
    1.7 B3g   1  3d1-         0.699153     1.000000
    2.7 B3g   1  3d1-         0.207316     1.000000
    3.7 B3g   1  3d1-         0.082926     1.000000
    1.8 Au    1  4f2-         0.478872     1.000000
    2.8 Au    1  4f2-         0.191549     1.000000

 NUCLEAR CHARGE:                    3
 NUMBER OF PRIMITIVE AOS:          86
 NUMBER OF SYMMETRY AOS:           77
 NUMBER OF CONTRACTIONS:           45   (  10Ag  +   8B3u +   8B2u +   3B1g +   8B1u +   3B2g +   3B3g +   2Au  )
 NUMBER OF CORE ORBITALS:           0   (   0Ag  +   0B3u +   0B2u +   0B1g +   0B1u +   0B2g +   0B3g +   0Au  )
 NUMBER OF VALENCE ORBITALS:        4   (   1Ag  +   1B3u +   1B2u +   0B1g +   1B1u +   0B2g +   0B3g +   0Au  )


 NUCLEAR REPULSION ENERGY    0.00000000

 EXTRA SYMMETRY OF AOS IN SYMMETRY 1:   1 1 1 1 2 3 2 3 2 3
 EXTRA SYMMETRY OF AOS IN SYMMETRY 2:   1 1 1 1 2 3 2 3
 EXTRA SYMMETRY OF AOS IN SYMMETRY 3:   1 1 1 1 2 3 2 3
 EXTRA SYMMETRY OF AOS IN SYMMETRY 5:   1 1 1 1 2 3 2 3

 Eigenvalues of metric

         1 0.159E-01 0.155E+00 0.196E+00 0.196E+00 0.739E+00 0.823E+00 0.823E+00 0.198E+01
         2 0.339E-01 0.113E+00 0.367E+00 0.367E+00 0.787E+00 0.163E+01 0.163E+01 0.307E+01
         3 0.339E-01 0.113E+00 0.367E+00 0.367E+00 0.787E+00 0.163E+01 0.163E+01 0.307E+01
         4 0.196E+00 0.823E+00 0.198E+01
         5 0.339E-01 0.113E+00 0.367E+00 0.367E+00 0.787E+00 0.163E+01 0.163E+01 0.307E+01
         6 0.196E+00 0.823E+00 0.198E+01
         7 0.196E+00 0.823E+00 0.198E+01
         8 0.367E+00 0.163E+01


 Contracted 2-electron integrals neglected if value below      1.0D-12
