
 Primary working directories    : /global/cscratch1/sd/aannabe
 Secondary working directories  : /global/cscratch1/sd/aannabe
 Wavefunction directory         : /global/homes/a/aannabe/wfu/
 Main file repository           : /global/cscratch1/sd/aannabe/

 SHA1      : 2873118e99aab1bc19f5b6fc1784693c06d15c95
 NAME      : 2015.1.8
 ARCHNAME  : linux/x86_64
 FC        : /opt/cray/pe/craype/2.5.5/bin/ftn
 BLASLIB   : -Wl,-_start-group /opt/intel/compilers_and_libraries_2016.3.210/linux/mkl/lib/intel64/libmkl_intel_ilp64.a /opt/intel/compilers_and_libraries_2016.3.210/linux/mkl/lib/intel64/libmkl_intel_thread.a /opt/intel/compilers_and_libraries_2016.3.210/linux/mkl/lib/intel64/libmkl_core.a -Wl,-_end-group
 id        : lbl

 Nodes     nprocs
 nid00443     1

 Using customized tuning parameters: mindgm=8; mindgv=16; mindgc=4; mindgr=1; noblas=0; minvec=7
 default implementation of scratch files=df  

 ***,B
 memory,8,g
 gthresh,twoint=1.e-12
 
 gprint,basis,orbitals
 gexpec,ekin,pot
 
 angstrom
 geometry={
 1                                                                               ! Number of atoms
 B 0.0 0.0 0.0
 }
 
 basis={
 Including file /global/homes/a/aannabe/docs/totals/pps/B.pp
 Including file /global/homes/a/aannabe/docs/totals/basis/aug-cc-pVnZ/B_6z.basis
 }
 
 {hf
 wf,3,2,1
 occ,1,1,0,0,0,0,0,0
 open,1.2
                                                                                 !closed,1,0,0,0,0,0,0,0
                                                                                 !sym,
 }
 scf(i)=energy
 
 _CC_NORM_MAX=2.0
  !NOTE: Perturbative MRCC works only with UHF reference. So, here we will trick MRCC by doing zero UHF iteration right after ROHF.
 
 {uhf
 wf,3,2,1
 occ,1,1,0,0,0,0,0,0
 open,1.2
                                                                                 !closed,1,0,0,0,0,0,0,0
                                                                                 !sym,
 maxit,0
 }
 scf(i)=energy
 
 {mrcc,method=CCSDT(Q)
 orbital,ignore_error=1                                                          !Ignore the fact that UHF WF is not converged
 maxit,100
 core
 }
 posthf(i)=energy
 
 table,scf,posthf,ekin,pot
 save,6.csv
 
 

 Variables initialized (889), CPU time= 0.00 sec
 Commands  initialized (702), CPU time= 0.02 sec, 572 directives.
 Default parameters read. Elapsed time= 0.12 sec

 Checking input...
 Passed
1


                                         ***  PROGRAM SYSTEM MOLPRO  ***
                                       Copyright, TTI GmbH Stuttgart, 2015
                                    Version 2015.1 linked Sep  7 2016 23:09:38


 **********************************************************************************************************************************
 LABEL *   B                                                                             
  64 bit serial version                                                                  DATE: 15-Jun-18          TIME: 10:09:11  
 **********************************************************************************************************************************

 SHA1:             2873118e99aab1bc19f5b6fc1784693c06d15c95
 **********************************************************************************************************************************

 THRESHOLDS:

 ZERO    =  1.00D-12  ONEINT  =  1.00D-12  TWOINT  =  1.00D-12  PREFAC  =  1.00D-14  LOCALI  =  1.00D-09  EORDER  =  1.00D-04
 ENERGY  =  0.00D+00  ETEST   =  0.00D+00  EDENS   =  0.00D+00  THRDEDEF=  1.00D-06  GRADIENT=  1.00D-02  STEP    =  1.00D-03
 ORBITAL =  1.00D-05  CIVEC   =  1.00D-05  COEFF   =  1.00D-04  PRINTCI =  5.00D-02  PUNCHCI =  9.90D+01  OPTGRAD =  3.00D-04
 OPTENERG=  1.00D-06  OPTSTEP =  3.00D-04  THRGRAD =  1.00D-10  COMPRESS=  1.00D-11  VARMIN  =  1.00D-07  VARMAX  =  1.00D-03
 THRDOUB =  0.00D+00  THRDIV  =  1.00D-05  THRRED  =  1.00D-07  THRPSP  =  1.00D+00  THRDC   =  1.00D-10  THRCS   =  1.00D-10
 THRNRM  =  1.00D-08  THREQ   =  0.00D+00  THRDE   =  1.00D+00  THRREF  =  1.00D-05  SPARFAC =  1.00D+00  THRDLP  =  1.00D-07
 THRDIA  =  1.00D-10  THRDLS  =  1.00D-07  THRGPS  =  0.00D+00  THRKEX  =  0.00D+00  THRDIS  =  2.00D-01  THRVAR  =  1.00D-10
 THRLOC  =  1.00D-06  THRGAP  =  1.00D-06  THRLOCT = -1.00D+00  THRGAPT = -1.00D+00  THRORB  =  1.00D-06  THRMLTP =  0.00D+00
 THRCPQCI=  1.00D-10  KEXTA   =  0.00D+00  THRCOARS=  0.00D+00  SYMTOL  =  1.00D-06  GRADTOL =  1.00D-06  THROVL  =  1.00D-08
 THRORTH =  1.00D-08  GRID    =  1.00D-06  GRIDMAX =  1.00D-03  DTMAX   =  0.00D+00  THROCCDE=  1.00D-01  THROCCDE=  1.00D-01



 ZUNIT=ANG
 

Geometry recognized as XYZ


 Variable memory set to 8000000000 words,  buffer space   230000 words

 SETTING BASIS          =    USERDEF


 Recomputing integrals since basis changed


 Using spherical harmonics



 PROGRAM * SEWARD (Integral evaluation for generally contracted gaussian basis sets)     Author: Roland Lindh, 1990

 Geometry written to block  1 of record 700

 Orientation using atomic masses  
 Molecule type: Atom
 Symmetry elements: X,Y,Z
 Rotational constants:       0.0000000      0.0000000      0.0000000 GHz  (calculated with average atomic masses)

 Point group  D2h 



 ATOMIC COORDINATES

 NR  ATOM    CHARGE       X              Y              Z

   1  B       3.00    0.000000000    0.000000000    0.000000000


          B   CORE POTENTIAL

          p POTENTIAL

 POWERS             1              3              2
 EXPONENTIALS   31.49298       22.56509       8.646690    
 COEFFICIENTS   3.000000       94.47895      -9.748000    

          s - p POTENTIAL

 POWERS             2
 EXPONENTIALS   4.062460    
 COEFFICIENTS   20.74800    


 BASIS DATA

   Nr Sym  Nuc  Type         Exponents   Contraction coefficients

    1.1 Ag    1  1s          11.760500    -0.003676
                              5.150520     0.025052
                              2.578276    -0.124923
                              1.290648    -0.066287
                              0.646080     0.100734
                              0.323418     0.337549
                              0.161898     0.430843
                              0.081044     0.248656
                              0.040569     0.031730
    2.1 Ag    1  1s           0.026766     1.000000
    3.1 Ag    1  1s           0.066915     1.000000
    4.1 Ag    1  1s           0.165446     1.000000
    5.1 Ag    1  1s           0.338547     1.000000
    6.1 Ag    1  1s           0.820708     1.000000
    7.1 Ag    1  1s           2.519425     1.000000
    8.1 Ag    1  3d0          0.046256     1.000000
    9.1 Ag    1  3d2+         0.046256     1.000000
   10.1 Ag    1  3d0          0.115640     1.000000
   11.1 Ag    1  3d2+         0.115640     1.000000
   12.1 Ag    1  3d0          0.293309     1.000000
   13.1 Ag    1  3d2+         0.293309     1.000000
   14.1 Ag    1  3d0          0.666330     1.000000
   15.1 Ag    1  3d2+         0.666330     1.000000
   16.1 Ag    1  3d0          1.152640     1.000000
   17.1 Ag    1  3d2+         1.152640     1.000000
   18.1 Ag    1  3d0          2.880570     1.000000
   19.1 Ag    1  3d2+         2.880570     1.000000
   20.1 Ag    1  5g0          0.149115     1.000000
   21.1 Ag    1  5g4+         0.149115     1.000000
   22.1 Ag    1  5g2+         0.149115     1.000000
   23.1 Ag    1  5g0          0.372788     1.000000
   24.1 Ag    1  5g4+         0.372788     1.000000
   25.1 Ag    1  5g2+         0.372788     1.000000
   26.1 Ag    1  5g0          0.859573     1.000000
   27.1 Ag    1  5g4+         0.859573     1.000000
   28.1 Ag    1  5g2+         0.859573     1.000000
   29.1 Ag    1  5g0          1.473809     1.000000
   30.1 Ag    1  5g4+         1.473809     1.000000
   31.1 Ag    1  5g2+         1.473809     1.000000
   32.1 Ag    1  7i6+         0.387968     1.000000
   33.1 Ag    1  7i4+         0.387968     1.000000
   34.1 Ag    1  7i2+         0.387968     1.000000
   35.1 Ag    1  7i0          0.387968     1.000000
   36.1 Ag    1  7i6+         0.969919     1.000000
   37.1 Ag    1  7i4+         0.969919     1.000000
   38.1 Ag    1  7i2+         0.969919     1.000000
   39.1 Ag    1  7i0          0.969919     1.000000
    1.2 B3u   1  2px          7.470701     0.004740
                              3.735743     0.037601
                              1.868068     0.051060
                              0.934132     0.145659
                              0.467115     0.223793
                              0.233582     0.319947
                              0.116803     0.285019
                              0.058408     0.144881
                              0.029207     0.017696
    2.2 B3u   1  2px          0.021594     1.000000
    3.2 B3u   1  2px          0.053986     1.000000
    4.2 B3u   1  2px          0.133676     1.000000
    5.2 B3u   1  2px          0.282933     1.000000
    6.2 B3u   1  2px          0.728159     1.000000
    7.2 B3u   1  2px          0.913979     1.000000
    8.2 B3u   1  4f1+         0.077013     1.000000
    9.2 B3u   1  4f3+         0.077013     1.000000
   10.2 B3u   1  4f1+         0.192532     1.000000
   11.2 B3u   1  4f3+         0.192532     1.000000
   12.2 B3u   1  4f1+         0.448415     1.000000
   13.2 B3u   1  4f3+         0.448415     1.000000
   14.2 B3u   1  4f1+         0.915789     1.000000
   15.2 B3u   1  4f3+         0.915789     1.000000
   16.2 B3u   1  4f1+         1.499448     1.000000
   17.2 B3u   1  4f3+         1.499448     1.000000
   18.2 B3u   1  6h1+         0.233289     1.000000
   19.2 B3u   1  6h3+         0.233289     1.000000
   20.2 B3u   1  6h5+         0.233289     1.000000
   21.2 B3u   1  6h1+         0.583223     1.000000
   22.2 B3u   1  6h3+         0.583223     1.000000
   23.2 B3u   1  6h5+         0.583223     1.000000
   24.2 B3u   1  6h1+         1.271399     1.000000
   25.2 B3u   1  6h3+         1.271399     1.000000
   26.2 B3u   1  6h5+         1.271399     1.000000
    1.3 B2u   1  2py          7.470701     0.004740
                              3.735743     0.037601
                              1.868068     0.051060
                              0.934132     0.145659
                              0.467115     0.223793
                              0.233582     0.319947
                              0.116803     0.285019
                              0.058408     0.144881
                              0.029207     0.017696
    2.3 B2u   1  2py          0.021594     1.000000
    3.3 B2u   1  2py          0.053986     1.000000
    4.3 B2u   1  2py          0.133676     1.000000
    5.3 B2u   1  2py          0.282933     1.000000
    6.3 B2u   1  2py          0.728159     1.000000
    7.3 B2u   1  2py          0.913979     1.000000
    8.3 B2u   1  4f1-         0.077013     1.000000
    9.3 B2u   1  4f3-         0.077013     1.000000
   10.3 B2u   1  4f1-         0.192532     1.000000
   11.3 B2u   1  4f3-         0.192532     1.000000
   12.3 B2u   1  4f1-         0.448415     1.000000
   13.3 B2u   1  4f3-         0.448415     1.000000
   14.3 B2u   1  4f1-         0.915789     1.000000
   15.3 B2u   1  4f3-         0.915789     1.000000
   16.3 B2u   1  4f1-         1.499448     1.000000
   17.3 B2u   1  4f3-         1.499448     1.000000
   18.3 B2u   1  6h1-         0.233289     1.000000
   19.3 B2u   1  6h3-         0.233289     1.000000
   20.3 B2u   1  6h5-         0.233289     1.000000
   21.3 B2u   1  6h1-         0.583223     1.000000
   22.3 B2u   1  6h3-         0.583223     1.000000
   23.3 B2u   1  6h5-         0.583223     1.000000
   24.3 B2u   1  6h1-         1.271399     1.000000
   25.3 B2u   1  6h3-         1.271399     1.000000
   26.3 B2u   1  6h5-         1.271399     1.000000
    1.4 B1g   1  3d2-         0.046256     1.000000
    2.4 B1g   1  3d2-         0.115640     1.000000
    3.4 B1g   1  3d2-         0.293309     1.000000
    4.4 B1g   1  3d2-         0.666330     1.000000
    5.4 B1g   1  3d2-         1.152640     1.000000
    6.4 B1g   1  3d2-         2.880570     1.000000
    7.4 B1g   1  5g2-         0.149115     1.000000
    8.4 B1g   1  5g4-         0.149115     1.000000
    9.4 B1g   1  5g2-         0.372788     1.000000
   10.4 B1g   1  5g4-         0.372788     1.000000
   11.4 B1g   1  5g2-         0.859573     1.000000
   12.4 B1g   1  5g4-         0.859573     1.000000
   13.4 B1g   1  5g2-         1.473809     1.000000
   14.4 B1g   1  5g4-         1.473809     1.000000
   15.4 B1g   1  7i2-         0.387968     1.000000
   16.4 B1g   1  7i6-         0.387968     1.000000
   17.4 B1g   1  7i4-         0.387968     1.000000
   18.4 B1g   1  7i2-         0.969919     1.000000
   19.4 B1g   1  7i6-         0.969919     1.000000
   20.4 B1g   1  7i4-         0.969919     1.000000
    1.5 B1u   1  2pz          7.470701     0.004740
                              3.735743     0.037601
                              1.868068     0.051060
                              0.934132     0.145659
                              0.467115     0.223793
                              0.233582     0.319947
                              0.116803     0.285019
                              0.058408     0.144881
                              0.029207     0.017696
    2.5 B1u   1  2pz          0.021594     1.000000
    3.5 B1u   1  2pz          0.053986     1.000000
    4.5 B1u   1  2pz          0.133676     1.000000
    5.5 B1u   1  2pz          0.282933     1.000000
    6.5 B1u   1  2pz          0.728159     1.000000
    7.5 B1u   1  2pz          0.913979     1.000000
    8.5 B1u   1  4f0          0.077013     1.000000
    9.5 B1u   1  4f2+         0.077013     1.000000
   10.5 B1u   1  4f0          0.192532     1.000000
   11.5 B1u   1  4f2+         0.192532     1.000000
   12.5 B1u   1  4f0          0.448415     1.000000
   13.5 B1u   1  4f2+         0.448415     1.000000
   14.5 B1u   1  4f0          0.915789     1.000000
   15.5 B1u   1  4f2+         0.915789     1.000000
   16.5 B1u   1  4f0          1.499448     1.000000
   17.5 B1u   1  4f2+         1.499448     1.000000
   18.5 B1u   1  6h2+         0.233289     1.000000
   19.5 B1u   1  6h4+         0.233289     1.000000
   20.5 B1u   1  6h0          0.233289     1.000000
   21.5 B1u   1  6h2+         0.583223     1.000000
   22.5 B1u   1  6h4+         0.583223     1.000000
   23.5 B1u   1  6h0          0.583223     1.000000
   24.5 B1u   1  6h2+         1.271399     1.000000
   25.5 B1u   1  6h4+         1.271399     1.000000
   26.5 B1u   1  6h0          1.271399     1.000000
    1.6 B2g   1  3d1+         0.046256     1.000000
    2.6 B2g   1  3d1+         0.115640     1.000000
    3.6 B2g   1  3d1+         0.293309     1.000000
    4.6 B2g   1  3d1+         0.666330     1.000000
    5.6 B2g   1  3d1+         1.152640     1.000000
    6.6 B2g   1  3d1+         2.880570     1.000000
    7.6 B2g   1  5g1+         0.149115     1.000000
    8.6 B2g   1  5g3+         0.149115     1.000000
    9.6 B2g   1  5g1+         0.372788     1.000000
   10.6 B2g   1  5g3+         0.372788     1.000000
   11.6 B2g   1  5g1+         0.859573     1.000000
   12.6 B2g   1  5g3+         0.859573     1.000000
   13.6 B2g   1  5g1+         1.473809     1.000000
   14.6 B2g   1  5g3+         1.473809     1.000000
   15.6 B2g   1  7i5+         0.387968     1.000000
   16.6 B2g   1  7i3+         0.387968     1.000000
   17.6 B2g   1  7i1+         0.387968     1.000000
   18.6 B2g   1  7i5+         0.969919     1.000000
   19.6 B2g   1  7i3+         0.969919     1.000000
   20.6 B2g   1  7i1+         0.969919     1.000000
    1.7 B3g   1  3d1-         0.046256     1.000000
    2.7 B3g   1  3d1-         0.115640     1.000000
    3.7 B3g   1  3d1-         0.293309     1.000000
    4.7 B3g   1  3d1-         0.666330     1.000000
    5.7 B3g   1  3d1-         1.152640     1.000000
    6.7 B3g   1  3d1-         2.880570     1.000000
    7.7 B3g   1  5g1-         0.149115     1.000000
    8.7 B3g   1  5g3-         0.149115     1.000000
    9.7 B3g   1  5g1-         0.372788     1.000000
   10.7 B3g   1  5g3-         0.372788     1.000000
   11.7 B3g   1  5g1-         0.859573     1.000000
   12.7 B3g   1  5g3-         0.859573     1.000000
   13.7 B3g   1  5g1-         1.473809     1.000000
   14.7 B3g   1  5g3-         1.473809     1.000000
   15.7 B3g   1  7i5-         0.387968     1.000000
   16.7 B3g   1  7i3-         0.387968     1.000000
   17.7 B3g   1  7i1-         0.387968     1.000000
   18.7 B3g   1  7i5-         0.969919     1.000000
   19.7 B3g   1  7i3-         0.969919     1.000000
   20.7 B3g   1  7i1-         0.969919     1.000000
    1.8 Au    1  4f2-         0.077013     1.000000
    2.8 Au    1  4f2-         0.192532     1.000000
    3.8 Au    1  4f2-         0.448415     1.000000
    4.8 Au    1  4f2-         0.915789     1.000000
    5.8 Au    1  4f2-         1.499448     1.000000
    6.8 Au    1  6h4-         0.233289     1.000000
    7.8 Au    1  6h2-         0.233289     1.000000
    8.8 Au    1  6h4-         0.583223     1.000000
    9.8 Au    1  6h2-         0.583223     1.000000
   10.8 Au    1  6h4-         1.271399     1.000000
   11.8 Au    1  6h2-         1.271399     1.000000

 NUCLEAR CHARGE:                    3
 NUMBER OF PRIMITIVE AOS:         325
 NUMBER OF SYMMETRY AOS:          220
 NUMBER OF CONTRACTIONS:          188   (  39Ag  +  26B3u +  26B2u +  20B1g +  26B1u +  20B2g +  20B3g +  11Au  )
 NUMBER OF CORE ORBITALS:           0   (   0Ag  +   0B3u +   0B2u +   0B1g +   0B1u +   0B2g +   0B3g +   0Au  )
 NUMBER OF VALENCE ORBITALS:        4   (   1Ag  +   1B3u +   1B2u +   0B1g +   1B1u +   0B2g +   0B3g +   0Au  )


 NUCLEAR REPULSION ENERGY    0.00000000

 EXTRA SYMMETRY OF AOS IN SYMMETRY 1:   1 1 1 1 1 1 1 2 3 2   3 2 3 2 3 2 3 2 3 4   5 6 4 5 6 4 5 6 4 5   6 7 8 910 7 8 910
 EXTRA SYMMETRY OF AOS IN SYMMETRY 2:   1 1 1 1 1 1 1 2 3 2   3 2 3 2 3 2 3 4 5 6   4 5 6 4 5 6
 EXTRA SYMMETRY OF AOS IN SYMMETRY 3:   1 1 1 1 1 1 1 2 3 2   3 2 3 2 3 2 3 4 5 6   4 5 6 4 5 6
 EXTRA SYMMETRY OF AOS IN SYMMETRY 4:   1 1 1 1 1 1 2 3 2 3   2 3 2 3 4 5 6 4 5 6
 EXTRA SYMMETRY OF AOS IN SYMMETRY 5:   1 1 1 1 1 1 1 2 3 2   3 2 3 2 3 2 3 4 5 6   4 5 6 4 5 6
 EXTRA SYMMETRY OF AOS IN SYMMETRY 6:   1 1 1 1 1 1 2 3 2 3   2 3 2 3 4 5 6 4 5 6
 EXTRA SYMMETRY OF AOS IN SYMMETRY 7:   1 1 1 1 1 1 2 3 2 3   2 3 2 3 4 5 6 4 5 6
 EXTRA SYMMETRY OF AOS IN SYMMETRY 8:   1 1 1 1 1 2 3 2 3 2   3

 Eigenvalues of metric

         1 0.546E-04 0.377E-02 0.160E-01 0.160E-01 0.315E-01 0.778E-01 0.778E-01 0.778E-01
         2 0.813E-03 0.396E-02 0.249E-01 0.275E-01 0.275E-01 0.145E+00 0.165E+00 0.165E+00
         3 0.813E-03 0.396E-02 0.249E-01 0.275E-01 0.275E-01 0.145E+00 0.165E+00 0.165E+00
         4 0.160E-01 0.778E-01 0.778E-01 0.102E+00 0.341E+00 0.394E+00 0.394E+00 0.533E+00
         5 0.813E-03 0.396E-02 0.249E-01 0.275E-01 0.275E-01 0.145E+00 0.165E+00 0.165E+00
         6 0.160E-01 0.778E-01 0.778E-01 0.102E+00 0.341E+00 0.394E+00 0.394E+00 0.533E+00
         7 0.160E-01 0.778E-01 0.778E-01 0.102E+00 0.341E+00 0.394E+00 0.394E+00 0.533E+00
         8 0.275E-01 0.165E+00 0.252E+00 0.252E+00 0.574E+00 0.880E+00 0.880E+00 0.149E+01


 Contracted 2-electron integrals neglected if value below      1.0D-12
