----- GAMESS execution script 'rungms' -----
This job is running on host login3.stampede2.tacc.utexas.edu
under operating system Linux at Wed Jan 16 15:57:01 CST 2019
Available scratch disk space (Kbyte units) at beginning of the job is
Filesystem     1K-blocks    Used Available Use% Mounted on
/dev/md2        73411824 1802076  67873892   3% /tmp
GAMESS temporary binary files will be written to /tmp
GAMESS supplementary output files will be written to /work/04843/aannabe/stampede2/docs/accurate/sref_qmcpack/He_core/Cl/TZ
Copying input file Cl.inp to your run's scratch directory...

 Distributed Data Interface kickoff program.
 Initiating 1 compute processes on 1 nodes to run the following command:
 /work/04843/aannabe/stampede2/codes/gamess-mcb/gamess/gamess.00.x Cl 

          ******************************************************
          *         GAMESS VERSION =  1 MAY 2013 (R1)          *
          *             FROM IOWA STATE UNIVERSITY             *
          * M.W.SCHMIDT, K.K.BALDRIDGE, J.A.BOATZ, S.T.ELBERT, *
          *   M.S.GORDON, J.H.JENSEN, S.KOSEKI, N.MATSUNAGA,   *
          *          K.A.NGUYEN, S.J.SU, T.L.WINDUS,           *
          *       TOGETHER WITH M.DUPUIS, J.A.MONTGOMERY       *
          *         J.COMPUT.CHEM.  14, 1347-1363(1993)        *
          **************** 64 BIT INTEL VERSION ****************

  SINCE 1993, STUDENTS AND POSTDOCS WORKING AT IOWA STATE UNIVERSITY
  AND ALSO IN THEIR VARIOUS JOBS AFTER LEAVING ISU HAVE MADE IMPORTANT
  CONTRIBUTIONS TO THE CODE:
     IVANA ADAMOVIC, CHRISTINE AIKENS, YURI ALEXEEV, POOJA ARORA,
     ANDREY ASADCHEV, ROB BELL, PRADIPTA BANDYOPADHYAY, JONATHAN BENTZ,
     BRETT BODE, GALINA CHABAN, WEI CHEN, CHEOL HO CHOI, PAUL DAY,
     ALBERT DEFUSCO, TIM DUDLEY, DMITRI FEDOROV, GRAHAM FLETCHER,
     MARK FREITAG, KURT GLAESEMANN, DAN KEMP, GRANT MERRILL,
     NORIYUKI MINEZAWA, JONATHAN MULLIN, TAKESHI NAGATA,
     SEAN NEDD, HEATHER NETZLOFF, BOSILJKA NJEGIC, RYAN OLSON, MIKE PAK,
     JIM SHOEMAKER, LYUDMILA SLIPCHENKO, SAROM SOK, JIE SONG,
     TETSUYA TAKETSUGU, SIMON WEBB, SOOHAENG YOO, FEDERICO ZAHARIEV

  ADDITIONAL CODE HAS BEEN PROVIDED BY COLLABORATORS IN OTHER GROUPS:
     IOWA STATE UNIVERSITY:
          JOE IVANIC, LAIMUTIS BYTAUTAS, KLAUS RUEDENBERG
     UNIVERSITY OF TOKYO: KIMIHIKO HIRAO, TAKAHITO NAKAJIMA,
          TAKAO TSUNEDA, MUNEAKI KAMIYA, SUSUMU YANAGISAWA,
          KIYOSHI YAGI, MAHITO CHIBA, SEIKEN TOKURA, NAOAKI KAWAKAMI
     UNIVERSITY OF AARHUS: FRANK JENSEN
     UNIVERSITY OF IOWA: VISVALDAS KAIRYS, HUI LI
     NATIONAL INST. OF STANDARDS AND TECHNOLOGY: WALT STEVENS, DAVID GARMER
     UNIVERSITY OF PISA: BENEDETTA MENNUCCI, JACOPO TOMASI
     UNIVERSITY OF MEMPHIS: HENRY KURTZ, PRAKASHAN KORAMBATH
     UNIVERSITY OF ALBERTA: TOBY ZENG, MARIUSZ KLOBUKOWSKI
     UNIVERSITY OF NEW ENGLAND: MARK SPACKMAN
     MIE UNIVERSITY: HIROAKI UMEDA
     MICHIGAN STATE UNIVERSITY:
          KAROL KOWALSKI, MARTA WLOCH, JEFFREY GOUR, JESSE LUTZ,
          WEI LI, PIOTR PIECUCH
     UNIVERSITY OF SILESIA: MONIKA MUSIAL, STANISLAW KUCHARSKI
     FACULTES UNIVERSITAIRES NOTRE-DAME DE LA PAIX:
          OLIVIER QUINET, BENOIT CHAMPAGNE
     UNIVERSITY OF CALIFORNIA - SANTA BARBARA: BERNARD KIRTMAN
     INSTITUTE FOR MOLECULAR SCIENCE:
          KAZUYA ISHIMURA, MICHIO KATOUDA, AND SHIGERU NAGASE
     UNIVERSITY OF NOTRE DAME: DAN CHIPMAN
     KYUSHU UNIVERSITY:
          HARUYUKI NAKANO,
          FENG LONG GU, JACEK KORCHOWIEC, MARCIN MAKOWSKI, AND YURIKO AOKI,
          HIROTOSHI MORI AND EISAKU MIYOSHI
     PENNSYLVANIA STATE UNIVERSITY:
          TZVETELIN IORDANOV, CHET SWALINA, JONATHAN SKONE,
          SHARON HAMMES-SCHIFFER
     WASEDA UNIVERSITY:
          MASATO KOBAYASHI, TOMOKO AKAMA, TSUGUKI TOUMA,
          TAKESHI YOSHIKAWA, YASUHIRO IKABATA, HIROMI NAKAI
     NANJING UNIVERSITY: SHUHUA LI
     UNIVERSITY OF NEBRASKA:
          PEIFENG SU, DEJUN SI, NANDUN THELLAMUREGE, YALI WANG, HUI LI
     UNIVERSITY OF ZURICH:
          ROBERTO PEVERATI, KIM BALDRIDGE
     N. COPERNICUS UNIVERSITY AND JACKSON STATE UNIVERSITY:
          MARIA BARYSZ

 EXECUTION OF GAMESS BEGUN Wed Jan 16 15:57:01 2019

            ECHO OF THE FIRST FEW INPUT CARDS -
 INPUT CARD> $CONTRL                                                                        
 INPUT CARD>     SCFTYP=ROHF                                                                
 INPUT CARD>     MULT=2                                                                     
 INPUT CARD>     ICHARG=0                                                                   
 INPUT CARD>     RUNTYP=ENERGY                                                              
 INPUT CARD>     MAXIT=150                                                                  
 INPUT CARD>     ECP=READ                                                                   
 INPUT CARD>     ISPHER=1                                                                   
 INPUT CARD> $END                                                                           
 INPUT CARD>                                                                                
 INPUT CARD> $SYSTEM                                                                        
 INPUT CARD>     KDIAG=3                                                                    
 INPUT CARD> $END                                                                           
 INPUT CARD>                                                                                
 INPUT CARD> $GUESS                                                                         
 INPUT CARD>    GUESS=HUCKEL                                                                
 INPUT CARD> $END                                                                           
 INPUT CARD>                                                                                
 INPUT CARD>                                                                                
 INPUT CARD> $DATA                                                                          
 INPUT CARD>                                                                                
 INPUT CARD>C1                                                                              
 INPUT CARD>Cl 17    0. 0. 0.                                                               
 INPUT CARD>S   12                                                                          
 INPUT CARD>  1     352.930099    0.00004300                                                
 INPUT CARD>  2     170.036562   -0.00070500                                                
 INPUT CARD>  3      81.921130    0.02320900                                                
 INPUT CARD>  4      39.468403   -0.16508500                                                
 INPUT CARD>  5      19.015299   -0.07748000                                                
 INPUT CARD>  6       9.161293    0.22554400                                                
 INPUT CARD>  7       4.413777    0.55280100                                                
 INPUT CARD>  8       2.126493    0.34903400                                                
 INPUT CARD>  9       1.024513    0.03580300                                                
 INPUT CARD> 10       0.493596    0.00503900                                                
 INPUT CARD> 11       0.237807   -0.00097200                                                
 INPUT CARD> 12       0.114572    0.00056000                                                
 INPUT CARD>S   12                                                                          
 INPUT CARD>  1     352.930099    0.00002300                                                
 INPUT CARD>  2     170.036562   -0.00000300                                                
 INPUT CARD>  3      81.921130   -0.00674800                                                
 INPUT CARD>  4      39.468403    0.05565800                                                
 INPUT CARD>  5      19.015299    0.02530900                                                
 INPUT CARD>  6       9.161293   -0.08184000                                                
 INPUT CARD>  7       4.413777   -0.27845300                                                
 INPUT CARD>  8       2.126493   -0.30879400                                                
 INPUT CARD>  9       1.024513    0.12058100                                                
 INPUT CARD> 10       0.493596    0.53571000                                                
 INPUT CARD> 11       0.237807    0.45994000                                                
 INPUT CARD> 12       0.114572    0.12829700                                                
 INPUT CARD>S   1                                                                           
    1000000 WORDS OF MEMORY AVAILABLE


     RUN TITLE
     ---------
                                                                                 

 THE POINT GROUP OF THE MOLECULE IS C1      
 THE ORDER OF THE PRINCIPAL AXIS IS     0
 *** WARNING! ATOM   1 SHELL    7 TYPE P HAS NORMALIZATION   1.00000106

 ATOM      ATOMIC                      COORDINATES (BOHR)
           CHARGE         X                   Y                   Z
 CL         17.0     0.0000000000        0.0000000000        0.0000000000

          INTERNUCLEAR DISTANCES (ANGS.)
          ------------------------------

                1 CL    

   1 CL      0.0000000  

  * ... LESS THAN  3.000


     ATOMIC BASIS SET
     ----------------
 THE CONTRACTED PRIMITIVE FUNCTIONS HAVE BEEN UNNORMALIZED
 THE CONTRACTED BASIS FUNCTIONS ARE NOW NORMALIZED TO UNITY

  SHELL TYPE  PRIMITIVE        EXPONENT          CONTRACTION COEFFICIENT(S)

 CL        

      1   S       1           352.9300990    0.000043000009
      1   S       2           170.0365620   -0.000705000154
      1   S       3            81.9211300    0.023209005081
      1   S       4            39.4684030   -0.165085036143
      1   S       5            19.0152990   -0.077480016963
      1   S       6             9.1612930    0.225544049379
      1   S       7             4.4137770    0.552801121027
      1   S       8             2.1264930    0.349034076415
      1   S       9             1.0245130    0.035803007838
      1   S      10             0.4935960    0.005039001103
      1   S      11             0.2378070   -0.000972000213
      1   S      12             0.1145720    0.000560000123

      2   S      13           352.9300990    0.000022999988
      2   S      14           170.0365620   -0.000002999998
      2   S      15            81.9211300   -0.006747996343
      2   S      16            39.4684030    0.055657969834
      2   S      17            19.0152990    0.025308986283
      2   S      18             9.1612930   -0.081839955643
      2   S      19             4.4137770   -0.278452849080
      2   S      20             2.1264930   -0.308793832636
      2   S      21             1.0245130    0.120580934646
      2   S      22             0.4935960    0.535709709649
      2   S      23             0.2378070    0.459939750716
      2   S      24             0.1145720    0.128296930464

      3   S      25            16.7471150    1.000000000000

      4   S      26             3.1929220    1.000000000000

      5   S      27             1.1009880    1.000000000000

      6   S      28             0.1821060    1.000000000000

      7   P      29            68.6256100    0.012029012798
      7   P      30            36.2092840    0.091549097402
      7   P      31            19.1052910    0.173813184925
      7   P      32            10.0806230    0.269317286535
      7   P      33             5.3188910    0.321612342174
      7   P      34             2.8064340    0.230908245671
      7   P      35             1.4807730    0.073834078554
      7   P      36             0.7813080    0.008057008572
      7   P      37             0.4122460    0.001346001432
      7   P      38             0.2175150    0.000475000505
      7   P      39             0.1147690    0.000280000298
      7   P      40             0.0605560    0.000042000045

      8   P      41            68.6256100    0.003356998645
      8   P      42            36.2092840    0.024631990061
      8   P      43            19.1052910    0.047225980943
      8   P      44            10.0806230    0.078161968460
      8   P      45             5.3188910    0.098931960079
      8   P      46             2.8064340    0.069536971940
      8   P      47             1.4807730   -0.071606971105
      8   P      48             0.7813080   -0.254487897309
      8   P      49             0.4122460   -0.345484860590
      8   P      50             0.2175150   -0.308019875708
      8   P      51             0.1147690   -0.158908935877
      8   P      52             0.0605560   -0.036180985400

      9   P      53             8.5621920    1.000000000000

     10   P      54             3.4509300    1.000000000000

     11   P      55             1.0267170    1.000000000000

     12   P      56             0.1387380    1.000000000000

     13   D      57            18.4125640    1.000000000000

     14   D      58             5.7688370    1.000000000000

     15   D      59             1.0147240    1.000000000000

     16   D      60             0.3326480    1.000000000000

     17   F      61            12.1646860    1.000000000000

     18   F      62             0.7022360    1.000000000000

 TOTAL NUMBER OF BASIS SET SHELLS             =   18
 NUMBER OF CARTESIAN GAUSSIAN BASIS FUNCTIONS =   68
 NOTE: THIS RUN WILL RESTRICT THE MO VARIATION SPACE TO SPHERICAL HARMONICS.
 THE NUMBER OF ORBITALS KEPT IN THE VARIATIONAL SPACE WILL BE PRINTED LATER.
 NUMBER OF ELECTRONS                          =   17
 CHARGE OF MOLECULE                           =    0
 SPIN MULTIPLICITY                            =    2
 NUMBER OF OCCUPIED ORBITALS (ALPHA)          =    9
 NUMBER OF OCCUPIED ORBITALS (BETA )          =    8
 TOTAL NUMBER OF ATOMS                        =    1
 THE NUCLEAR REPULSION ENERGY IS        0.0000000000
 NOTE THIS RUN IS USING CORE POTENTIALS, AND THE NUMBER OF ELECTRONS,
 OCCUPIED ORBITALS, AND NUCLEAR REPULSION ENERGY WILL BE ADJUSTED BELOW
 AFTER REMOVAL OF THE CORE CHARGES.

 THIS MOLECULE IS RECOGNIZED AS BEING LINEAR,
 ORBITAL LZ DEGENERACY TOLERANCE ETOLLZ= 1.00E-06

     $CONTRL OPTIONS
     ---------------
 SCFTYP=ROHF         RUNTYP=ENERGY       EXETYP=RUN     
 MPLEVL=       0     CITYP =NONE         CCTYP =NONE         VBTYP =NONE    
 DFTTYP=NONE         TDDFT =NONE    
 MULT  =       2     ICHARG=       0     NZVAR =       0     COORD =UNIQUE  
 PP    =READ         RELWFN=NONE         LOCAL =NONE         NUMGRD=       F
 ISPHER=       1     NOSYM =       0     MAXIT =     150     UNITS =ANGS    
 PLTORB=       F     MOLPLT=       F     AIMPAC=       F     FRIEND=        
 NPRINT=       7     IREST =       0     GEOM  =INPUT   
 NORMF =       0     NORMP =       0     ITOL  =      20     ICUT  =       9
 INTTYP=BEST         GRDTYP=BEST         QMTTOL= 1.0E-06

     $SYSTEM OPTIONS
     ---------------
  REPLICATED MEMORY=     1000000 WORDS (ON EVERY NODE).
 DISTRIBUTED MEMDDI=           0 MILLION WORDS IN AGGREGATE,
 MEMDDI DISTRIBUTED OVER   1 PROCESSORS IS           0 WORDS/PROCESSOR.
 TOTAL MEMORY REQUESTED ON EACH PROCESSOR=     1000000 WORDS.
 TIMLIM=      525600.00 MINUTES, OR     365.0 DAYS.
 PARALL= F  BALTYP=  DLB     KDIAG=    3  COREFL= F
 MXSEQ2=     300 MXSEQ3=     150

          --------------
          ECP POTENTIALS
          --------------

 PARAMETERS FOR "CL-CCECP" ON ATOM    1 WITH ZCORE   2 AND LMAX  1 ARE
 FOR L= 1      COEFF    N           ZETA
    1       15.00000    1       22.19627
    2      332.94399    3       26.14512
    3     -161.99998    2       25.01512
 FOR L= 0      COEFF    N           ZETA
    1       26.83736    2      124.64043
    2      277.29670    2       52.20543

 THE ECP RUN REMOVES    2 CORE ELECTRONS, AND THE SAME NUMBER OF PROTONS.
 NUMBER OF ELECTRONS KEPT IN THE CALCULATION IS =   15
 NUMBER OF OCCUPIED ORBITALS (ALPHA) KEPT IS    =    8
 NUMBER OF OCCUPIED ORBITALS (BETA ) KEPT IS    =    7
 THE ADJUSTED NUCLEAR REPULSION ENERGY=        0.0000000000
          ECP ANGULAR INTS.........     0.00 SECONDS

          ----------------
          PROPERTIES INPUT
          ----------------

     MOMENTS            FIELD           POTENTIAL          DENSITY
 IEMOM =       1   IEFLD =       0   IEPOT =       0   IEDEN =       0
 WHERE =COMASS     WHERE =NUCLEI     WHERE =NUCLEI     WHERE =NUCLEI  
 OUTPUT=BOTH       OUTPUT=BOTH       OUTPUT=BOTH       OUTPUT=BOTH    
 IEMINT=       0   IEFINT=       0                     IEDINT=       0
                                                       MORB  =       0
          EXTRAPOLATION IN EFFECT
          SOSCF IN EFFECT
 ORBITAL PRINTING OPTION: NPREO=     1    68     2     1

     -------------------------------
     INTEGRAL TRANSFORMATION OPTIONS
     -------------------------------
     NWORD  =            0
     CUTOFF = 1.0E-09     MPTRAN =       0
     DIRTRF =       F     AOINTS =DUP     

          ----------------------
          INTEGRAL INPUT OPTIONS
          ----------------------
 NOPK  =       1 NORDER=       0 SCHWRZ=       F

     ------------------------------------------
     THE POINT GROUP IS C1 , NAXIS= 0, ORDER= 1
     ------------------------------------------

 -- VARIATIONAL SPACE WILL BE RESTRICTED TO PURE SPHERICAL HARMONICS ONLY --
 AFTER EXCLUDING CONTAMINANT COMBINATIONS FROM THE CARTESIAN GAUSSIAN BASIS
 SET, THE NUMBER OF SPHERICAL HARMONICS KEPT IN THE VARIATION SPACE IS   58

     DIMENSIONS OF THE SYMMETRY SUBSPACES ARE
 A   =   58

 ..... DONE SETTING UP THE RUN .....
 STEP CPU TIME =     0.00 TOTAL CPU TIME =        0.0 (    0.0 MIN)
 TOTAL WALL CLOCK TIME=        0.0 SECONDS, CPU UTILIZATION IS   0.00%

          ********************
          1 ELECTRON INTEGRALS
          ********************
 TIME TO DO ORDINARY INTEGRALS=      0.01
 TIME TO DO      ECP INTEGRALS=      0.01
 ...... END OF ONE-ELECTRON INTEGRALS ......
 STEP CPU TIME =     0.02 TOTAL CPU TIME =        0.0 (    0.0 MIN)
 TOTAL WALL CLOCK TIME=        0.2 SECONDS, CPU UTILIZATION IS  10.00%

          -------------
          GUESS OPTIONS
          -------------
          GUESS =HUCKEL            NORB  =       0          NORDER=       0
          MIX   =       F          PRTMO =       F          PUNMO =       F
          TOLZ  = 1.0E-08          TOLE  = 1.0E-05
          SYMDEN=       F          PURIFY=       F

 INITIAL GUESS ORBITALS GENERATED BY HUCKEL   ROUTINE.
 HUCKEL GUESS REQUIRES     34899 WORDS.

 STATISTICS FOR GENERATION OF SYMMETRY ORBITAL -Q- MATRIX
 NUMBER OF CARTESIAN ATOMIC ORBITALS=         68
 NUMBER OF SPHERICAL CONTAMINANTS DROPPED=    10
 NUMBER OF LINEARLY DEPENDENT MOS DROPPED=     0
 TOTAL NUMBER OF MOS IN VARIATION SPACE=      58

 SYMMETRIES FOR INITIAL GUESS ORBITALS FOLLOW.  ALPHA SET(S).
     8 ORBITALS ARE OCCUPIED (    4 CORE ORBITALS).
     5=A        6=A        7=A        8=A        9=A       10=A       11=A   
    12=A       13=A       14=A       15=A       16=A       17=A       18=A   

 SYMMETRIES FOR INITIAL GUESS ORBITALS FOLLOW.   BETA SET(S).
     7 ORBITALS ARE OCCUPIED (    4 CORE ORBITALS).
     5=A        6=A        7=A        8=A        9=A       10=A       11=A   
    12=A       13=A       14=A       15=A       16=A       17=A   
 ...... END OF INITIAL ORBITAL SELECTION ......
 STEP CPU TIME =     0.00 TOTAL CPU TIME =        0.0 (    0.0 MIN)
 TOTAL WALL CLOCK TIME=        0.2 SECONDS, CPU UTILIZATION IS   8.70%

                    ----------------------
                    AO INTEGRAL TECHNOLOGY
                    ----------------------
     S,P,L SHELL ROTATED AXIS INTEGRALS, REPROGRAMMED BY
        KAZUYA ISHIMURA (IMS) AND JOSE SIERRA (SYNSTAR).
     S,P,D,L SHELL ROTATED AXIS INTEGRALS PROGRAMMED BY
        KAZUYA ISHIMURA (INSTITUTE FOR MOLECULAR SCIENCE).
     S,P,D,F,G SHELL TO TOTAL QUARTET ANGULAR MOMENTUM SUM 5,
        ERIC PROGRAM BY GRAHAM FLETCHER (ELORET AND NASA ADVANCED
        SUPERCOMPUTING DIVISION, AMES RESEARCH CENTER).
     S,P,D,F,G,L SHELL GENERAL RYS QUADRATURE PROGRAMMED BY
        MICHEL DUPUIS (PACIFIC NORTHWEST NATIONAL LABORATORY).

          --------------------
          2 ELECTRON INTEGRALS
          --------------------

 THE -PK- OPTION IS OFF, THE INTEGRALS ARE NOT IN SUPERMATRIX FORM.
 STORING   15000 INTEGRALS/RECORD ON DISK, USING 12 BYTES/INTEGRAL.
 TWO ELECTRON INTEGRAL EVALUATION REQUIRES   99271 WORDS OF MEMORY.
 II,JST,KST,LST =  1  1  1  1 NREC =         1 INTLOC =    1
 II,JST,KST,LST =  2  1  1  1 NREC =         1 INTLOC =    2
 II,JST,KST,LST =  3  1  1  1 NREC =         1 INTLOC =    7
 II,JST,KST,LST =  4  1  1  1 NREC =         1 INTLOC =   22
 II,JST,KST,LST =  5  1  1  1 NREC =         1 INTLOC =   56
 II,JST,KST,LST =  6  1  1  1 NREC =         1 INTLOC =  121
 II,JST,KST,LST =  7  1  1  1 NREC =         1 INTLOC =  232
 II,JST,KST,LST =  8  1  1  1 NREC =         1 INTLOC =  367
 II,JST,KST,LST =  9  1  1  1 NREC =         1 INTLOC =  730
 II,JST,KST,LST = 10  1  1  1 NREC =         1 INTLOC = 1429
 II,JST,KST,LST = 11  1  1  1 NREC =         1 INTLOC = 2635
 II,JST,KST,LST = 12  1  1  1 NREC =         1 INTLOC = 4582
 II,JST,KST,LST = 13  1  1  1 NREC =         1 INTLOC = 7567
 II,JST,KST,LST = 14  1  1  1 NREC =         2 INTLOC = 1264
 II,JST,KST,LST = 15  1  1  1 NREC =         3 INTLOC = 2200
 II,JST,KST,LST = 16  1  1  1 NREC =         4 INTLOC =13075
 II,JST,KST,LST = 17  1  1  1 NREC =         7 INTLOC = 7597
 II,JST,KST,LST = 18  1  1  1 NREC =        14 INTLOC = 3071
 TOTAL NUMBER OF NONZERO TWO-ELECTRON INTEGRALS =              365199
         25 INTEGRAL RECORDS WERE STORED ON DISK FILE  8.
  ...... END OF TWO-ELECTRON INTEGRALS .....
 STEP CPU TIME =     0.29 TOTAL CPU TIME =        0.3 (    0.0 MIN)
 TOTAL WALL CLOCK TIME=        0.5 SECONDS, CPU UTILIZATION IS  57.41%

          ---------------------------
                 ROHF SCF CALCULATION
          ---------------------------

     NUCLEAR ENERGY =         0.0000000000
     MAXIT =150     NPUNCH=  2     MULT=  2
     EXTRAP=T  DAMP=F  SHIFT=F  RSTRCT=F  DIIS=F  SOSCF=T
     DENSITY MATRIX CONV=  1.00E-05
     ROHF CANONICALIZATION PARAMETERS
             C-C     O-O     V-V
     ALPHA -0.5000  0.5000  1.5000
     BETA   1.5000  0.5000 -0.5000
     SOSCF WILL OPTIMIZE     407 ORBITAL ROTATION ANGLES. SOGTOL= 2.500E-01
     MEMORY REQUIRED FOR UHF/ROHF ITERS=     75021 WORDS.

 ITER EX      TOTAL ENERGY        E CHANGE  DENSITY CHANGE    ORB. GRAD 
   1  0     -180.8945717674  -180.8945717674   0.653161956   0.000000000
          ---------------START SECOND ORDER SCF---------------
   2  1     -181.6122216598    -0.7176498924   0.030905331   0.081231291
   3  2     -181.6145256332    -0.0023039733   0.015783941   0.008818175
   4  3     -181.6146389637    -0.0001133305   0.002572628   0.000889283
   5  4     -181.6146397363    -0.0000007726   0.000231908   0.000154598
   6  5     -181.6146397530    -0.0000000166   0.000034996   0.000005567
   7  6     -181.6146397531    -0.0000000001   0.000006036   0.000001116
   8  7     -181.6146397531    -0.0000000000   0.000000584   0.000000072

          -----------------
          DENSITY CONVERGED
          -----------------
     TIME TO FORM FOCK OPERATORS=       0.0 SECONDS (       0.0 SEC/ITER)
     TIME TO SOLVE SCF EQUATIONS=       0.0 SECONDS (       0.0 SEC/ITER)

 FINAL ROHF ENERGY IS     -181.6146397531 AFTER   8 ITERATIONS

          --------------------
          SPIN SZ   =    0.500
          S-SQUARED =    0.750
          --------------------

 LZ VALUE ANALYSIS FOR THE MOS
 ----------------------------------------
 MO     1 (    1) HAS LZ(WEIGHT)= 0.00(100.0%) 
 MO     2 (    2) HAS LZ(WEIGHT)=-1.00( 50.0%)  1.00( 50.0%) 
 MO     3 (    2) HAS LZ(WEIGHT)=-1.00( 50.0%)  1.00( 50.0%) 
 MO     4 (    3) HAS LZ(WEIGHT)= 0.00(100.0%) 
 MO     5 (    4) HAS LZ(WEIGHT)= 0.00(100.0%) 
 MO     6 (    5) HAS LZ(WEIGHT)=-1.00( 50.0%)  1.00( 50.0%) 
 MO     7 (    5) HAS LZ(WEIGHT)=-1.00( 50.0%)  1.00( 50.0%) 
 MO     8 (    6) HAS LZ(WEIGHT)= 0.00(100.0%) 
 MO     9 (    7) HAS LZ(WEIGHT)= 0.00(100.0%) 
 MO    10 (    8) HAS LZ(WEIGHT)= 0.00(100.0%) 
 MO    11 (    9) HAS LZ(WEIGHT)=-1.00( 50.0%)  1.00( 50.0%) 
 MO    12 (    9) HAS LZ(WEIGHT)=-1.00( 50.0%)  1.00( 50.0%) 
 MO    13 (   10) HAS LZ(WEIGHT)=-1.00( 50.0%)  1.00( 50.0%) 
 MO    14 (   10) HAS LZ(WEIGHT)=-1.00( 50.0%)  1.00( 50.0%) 
 MO    15 (   11) HAS LZ(WEIGHT)=-2.00( 50.0%)  2.00( 50.0%) 
 MO    16 (   11) HAS LZ(WEIGHT)=-2.00( 50.0%)  2.00( 50.0%) 
 MO    17 (   12) HAS LZ(WEIGHT)= 0.00(100.0%) 
 MO    18 (   13) HAS LZ(WEIGHT)= 0.00(100.0%) 
 MO    19 (   14) HAS LZ(WEIGHT)=-1.00( 50.0%)  1.00( 50.0%) 
 MO    20 (   14) HAS LZ(WEIGHT)=-1.00( 50.0%)  1.00( 50.0%) 
 MO    21 (   15) HAS LZ(WEIGHT)=-2.00( 50.0%)  2.00( 50.0%) 
 MO    22 (   15) HAS LZ(WEIGHT)=-2.00( 50.0%)  2.00( 50.0%) 
 MO    23 (   16) HAS LZ(WEIGHT)= 0.00(100.0%) 
 MO    24 (   17) HAS LZ(WEIGHT)=-1.00( 50.0%)  1.00( 50.0%) 
 MO    25 (   17) HAS LZ(WEIGHT)=-1.00( 50.0%)  1.00( 50.0%) 
 MO    26 (   18) HAS LZ(WEIGHT)=-2.00( 50.0%)  2.00( 50.0%) 
 MO    27 (   18) HAS LZ(WEIGHT)=-2.00( 50.0%)  2.00( 50.0%) 
 MO    28 (   19) HAS LZ(WEIGHT)=-3.00( 50.0%)  3.00( 50.0%) 
 MO    29 (   19) HAS LZ(WEIGHT)=-3.00( 50.0%)  3.00( 50.0%) 
 MO    30 (   20) HAS LZ(WEIGHT)= 0.00(100.0%) 
 MO    31 (   21) HAS LZ(WEIGHT)=-1.00( 50.0%)  1.00( 50.0%) 
 MO    32 (   21) HAS LZ(WEIGHT)=-1.00( 50.0%)  1.00( 50.0%) 
 MO    33 (   22) HAS LZ(WEIGHT)= 0.00(100.0%) 
 MO    34 (   23) HAS LZ(WEIGHT)= 0.00(100.0%) 
 MO    35 (   24) HAS LZ(WEIGHT)=-1.00( 50.0%)  1.00( 50.0%) 
 MO    36 (   24) HAS LZ(WEIGHT)=-1.00( 50.0%)  1.00( 50.0%) 
 MO    37 (   25) HAS LZ(WEIGHT)=-2.00( 50.0%)  2.00( 50.0%) 
 MO    38 (   25) HAS LZ(WEIGHT)=-2.00( 50.0%)  2.00( 50.0%) 
 MO    39 (   26) HAS LZ(WEIGHT)= 0.00(100.0%) 
 MO    40 (   27) HAS LZ(WEIGHT)=-1.00( 50.0%)  1.00( 50.0%) 
 MO    41 (   27) HAS LZ(WEIGHT)=-1.00( 50.0%)  1.00( 50.0%) 
 MO    42 (   28) HAS LZ(WEIGHT)= 0.00(100.0%) 
 MO    43 (   29) HAS LZ(WEIGHT)= 0.00(100.0%) 
 MO    44 (   30) HAS LZ(WEIGHT)=-1.00( 50.0%)  1.00( 50.0%) 
 MO    45 (   30) HAS LZ(WEIGHT)=-1.00( 50.0%)  1.00( 50.0%) 
 MO    46 (   31) HAS LZ(WEIGHT)=-2.00( 50.0%)  2.00( 50.0%) 
 MO    47 (   31) HAS LZ(WEIGHT)=-2.00( 50.0%)  2.00( 50.0%) 
 MO    48 (   32) HAS LZ(WEIGHT)=-3.00( 50.0%)  3.00( 50.0%) 
 MO    49 (   32) HAS LZ(WEIGHT)=-3.00( 50.0%)  3.00( 50.0%) 
 MO    50 (   33) HAS LZ(WEIGHT)= 0.00(100.0%) 
 MO    51 (   34) HAS LZ(WEIGHT)=-1.00( 50.0%)  1.00( 50.0%) 
 MO    52 (   34) HAS LZ(WEIGHT)=-1.00( 50.0%)  1.00( 50.0%) 
 MO    53 (   35) HAS LZ(WEIGHT)=-2.00( 50.0%)  2.00( 50.0%) 
 MO    54 (   35) HAS LZ(WEIGHT)=-2.00( 50.0%)  2.00( 50.0%) 
 MO    55 (   36) HAS LZ(WEIGHT)= 0.00(100.0%) 
 MO    56 (   37) HAS LZ(WEIGHT)=-1.00( 50.0%)  1.00( 50.0%) 
 MO    57 (   37) HAS LZ(WEIGHT)=-1.00( 50.0%)  1.00( 50.0%) 
 MO    58 (   38) HAS LZ(WEIGHT)= 0.00(100.0%) 

          ------------
          EIGENVECTORS
          ------------

                      1          2          3          4          5
                  -10.6820    -8.2138    -8.2138    -8.1783    -0.9631
                     A          A          A          A          A   
    1  CL 1  S    0.999968   0.000000   0.000000   0.000000   0.001043
    2  CL 1  S   -0.000970   0.000000   0.000000   0.000000   1.000133
    3  CL 1  S   -0.000007   0.000000   0.000000   0.000000   0.000005
    4  CL 1  S    0.000044   0.000000   0.000000   0.000000   0.000009
    5  CL 1  S   -0.000011   0.000000   0.000000   0.000000  -0.000049
    6  CL 1  S    0.000003   0.000000   0.000000   0.000000  -0.000135
    7  CL 1  X    0.000000   0.000000   1.001001   0.000000   0.000000
    8  CL 1  Y    0.000000   1.001001   0.000000   0.000000   0.000000
    9  CL 1  Z    0.000000   0.000000   0.000000   0.997989   0.000000
   10  CL 1  X    0.000000   0.000000   0.001461   0.000000   0.000000
   11  CL 1  Y    0.000000   0.001461   0.000000   0.000000   0.000000
   12  CL 1  Z    0.000000   0.000000   0.000000   0.001602   0.000000
   13  CL 1  X    0.000000   0.000000   0.000123   0.000000   0.000000
   14  CL 1  Y    0.000000   0.000123   0.000000   0.000000   0.000000
   15  CL 1  Z    0.000000   0.000000   0.000000  -0.000239   0.000000
   16  CL 1  X    0.000000   0.000000  -0.000776   0.000000   0.000000
   17  CL 1  Y    0.000000  -0.000776   0.000000   0.000000   0.000000
   18  CL 1  Z    0.000000   0.000000   0.000000   0.001550   0.000000
   19  CL 1  X    0.000000   0.000000  -0.000843   0.000000   0.000000
   20  CL 1  Y    0.000000  -0.000843   0.000000   0.000000   0.000000
   21  CL 1  Z    0.000000   0.000000   0.000000   0.001687   0.000000
   22  CL 1  X    0.000000   0.000000  -0.000187   0.000000   0.000000
   23  CL 1  Y    0.000000  -0.000187   0.000000   0.000000   0.000000
   24  CL 1  Z    0.000000   0.000000   0.000000   0.000343   0.000000
   25  CL 1 XX    0.000021   0.000000   0.000000   0.000000  -0.000039
   26  CL 1 YY    0.000021   0.000000   0.000000   0.000000  -0.000039
   27  CL 1 ZZ   -0.000042   0.000000   0.000000   0.000000   0.000078
   28  CL 1 XY    0.000000   0.000000   0.000000   0.000000   0.000000
   29  CL 1 XZ    0.000000   0.000000   0.000000   0.000000   0.000000
   30  CL 1 YZ    0.000000   0.000000   0.000000   0.000000   0.000000
   31  CL 1 XX   -0.000410   0.000000   0.000000   0.000000   0.000120
   32  CL 1 YY   -0.000410   0.000000   0.000000   0.000000   0.000120
   33  CL 1 ZZ    0.000819   0.000000   0.000000   0.000000  -0.000241
   34  CL 1 XY    0.000000   0.000000   0.000000   0.000000   0.000000
   35  CL 1 XZ    0.000000   0.000000   0.000000   0.000000   0.000000
   36  CL 1 YZ    0.000000   0.000000   0.000000   0.000000   0.000000
   37  CL 1 XX   -0.000230   0.000000   0.000000   0.000000   0.000036
   38  CL 1 YY   -0.000230   0.000000   0.000000   0.000000   0.000036
   39  CL 1 ZZ    0.000459   0.000000   0.000000   0.000000  -0.000072
   40  CL 1 XY    0.000000   0.000000   0.000000   0.000000   0.000000
   41  CL 1 XZ    0.000000   0.000000   0.000000   0.000000   0.000000
   42  CL 1 YZ    0.000000   0.000000   0.000000   0.000000   0.000000
   43  CL 1 XX    0.000167   0.000000   0.000000   0.000000   0.002351
   44  CL 1 YY    0.000167   0.000000   0.000000   0.000000   0.002351
   45  CL 1 ZZ   -0.000335   0.000000   0.000000   0.000000  -0.004702
   46  CL 1 XY    0.000000   0.000000   0.000000   0.000000   0.000000
   47  CL 1 XZ    0.000000   0.000000   0.000000   0.000000   0.000000
   48  CL 1 YZ    0.000000   0.000000   0.000000   0.000000   0.000000
   49  CL 1 XXX   0.000000   0.000000  -0.000121   0.000000   0.000000
   50  CL 1 YYY   0.000000  -0.000121   0.000000   0.000000   0.000000
   51  CL 1 ZZZ   0.000000   0.000000   0.000000   0.000241   0.000000
   52  CL 1 XXY   0.000000  -0.000054   0.000000   0.000000   0.000000
   53  CL 1 XXZ   0.000000   0.000000   0.000000  -0.000162   0.000000
   54  CL 1 YYX   0.000000   0.000000  -0.000054   0.000000   0.000000
   55  CL 1 YYZ   0.000000   0.000000   0.000000  -0.000162   0.000000
   56  CL 1 ZZX   0.000000   0.000000   0.000216   0.000000   0.000000
   57  CL 1 ZZY   0.000000   0.000216   0.000000   0.000000   0.000000
   58  CL 1 XYZ   0.000000   0.000000   0.000000   0.000000   0.000000
   59  CL 1 XXX   0.000000   0.000000  -0.000089   0.000000   0.000000
   60  CL 1 YYY   0.000000  -0.000089   0.000000   0.000000   0.000000
   61  CL 1 ZZZ   0.000000   0.000000   0.000000   0.000190   0.000000
   62  CL 1 XXY   0.000000  -0.000040   0.000000   0.000000   0.000000
   63  CL 1 XXZ   0.000000   0.000000   0.000000  -0.000127   0.000000
   64  CL 1 YYX   0.000000   0.000000  -0.000040   0.000000   0.000000
   65  CL 1 YYZ   0.000000   0.000000   0.000000  -0.000127   0.000000
   66  CL 1 ZZX   0.000000   0.000000   0.000159   0.000000   0.000000
   67  CL 1 ZZY   0.000000   0.000159   0.000000   0.000000   0.000000
   68  CL 1 XYZ   0.000000   0.000000   0.000000   0.000000   0.000000

                      6          7          8          9         10
                   -0.4615    -0.4615    -0.2963     0.4623     0.4961
                     A          A          A          A          A   
    1  CL 1  S    0.000000   0.000000   0.000000   0.000000  -0.035712
    2  CL 1  S    0.000000   0.000000   0.000000   0.000000  -0.144613
    3  CL 1  S    0.000000   0.000000   0.000000   0.000000  -0.000258
    4  CL 1  S    0.000000   0.000000   0.000000   0.000000  -0.021241
    5  CL 1  S    0.000000   0.000000   0.000000   0.000000   0.006699
    6  CL 1  S    0.000000   0.000000   0.000000   0.000000   0.162022
    7  CL 1  X    0.000165   0.000000   0.000000   0.000000   0.000000
    8  CL 1  Y    0.000000   0.000165   0.000000   0.000000   0.000000
    9  CL 1  Z    0.000000   0.000000  -0.010011  -0.409982   0.000000
   10  CL 1  X    0.987718   0.000000   0.000000   0.000000   0.000000
   11  CL 1  Y    0.000000   0.987718   0.000000   0.000000   0.000000
   12  CL 1  Z    0.000000   0.000000   1.050514   2.192440   0.000000
   13  CL 1  X    0.000181   0.000000   0.000000   0.000000   0.000000
   14  CL 1  Y    0.000000   0.000181   0.000000   0.000000   0.000000
   15  CL 1  Z    0.000000   0.000000  -0.000846   0.002609   0.000000
   16  CL 1  X   -0.000140   0.000000   0.000000   0.000000   0.000000
   17  CL 1  Y    0.000000  -0.000140   0.000000   0.000000   0.000000
   18  CL 1  Z    0.000000   0.000000   0.000736  -0.046997   0.000000
   19  CL 1  X   -0.003117   0.000000   0.000000   0.000000   0.000000
   20  CL 1  Y    0.000000  -0.003117   0.000000   0.000000   0.000000
   21  CL 1  Z    0.000000   0.000000   0.012602   0.559788   0.000000
   22  CL 1  X   -0.012224   0.000000   0.000000   0.000000   0.000000
   23  CL 1  Y    0.000000  -0.012224   0.000000   0.000000   0.000000
   24  CL 1  Z    0.000000   0.000000   0.051055   2.229347   0.000000
   25  CL 1 XX    0.000000   0.000000   0.000000   0.000000  -0.001329
   26  CL 1 YY    0.000000   0.000000   0.000000   0.000000  -0.001329
   27  CL 1 ZZ    0.000000   0.000000   0.000000   0.000000   0.002658
   28  CL 1 XY    0.000000   0.000000   0.000000   0.000000   0.000000
   29  CL 1 XZ    0.000000   0.000000   0.000000   0.000000   0.000000
   30  CL 1 YZ    0.000000   0.000000   0.000000   0.000000   0.000000
   31  CL 1 XX    0.000000   0.000000   0.000000   0.000000  -0.026197
   32  CL 1 YY    0.000000   0.000000   0.000000   0.000000  -0.026197
   33  CL 1 ZZ    0.000000   0.000000   0.000000   0.000000   0.052395
   34  CL 1 XY    0.000000   0.000000   0.000000   0.000000   0.000000
   35  CL 1 XZ    0.000000   0.000000   0.000000   0.000000   0.000000
   36  CL 1 YZ    0.000000   0.000000   0.000000   0.000000   0.000000
   37  CL 1 XX    0.000000   0.000000   0.000000   0.000000  -0.105157
   38  CL 1 YY    0.000000   0.000000   0.000000   0.000000  -0.105157
   39  CL 1 ZZ    0.000000   0.000000   0.000000   0.000000   0.210314
   40  CL 1 XY    0.000000   0.000000   0.000000   0.000000   0.000000
   41  CL 1 XZ    0.000000   0.000000   0.000000   0.000000   0.000000
   42  CL 1 YZ    0.000000   0.000000   0.000000   0.000000   0.000000
   43  CL 1 XX    0.000000   0.000000   0.000000   0.000000  -0.425705
   44  CL 1 YY    0.000000   0.000000   0.000000   0.000000  -0.425705
   45  CL 1 ZZ    0.000000   0.000000   0.000000   0.000000   0.851410
   46  CL 1 XY    0.000000   0.000000   0.000000   0.000000   0.000000
   47  CL 1 XZ    0.000000   0.000000   0.000000   0.000000   0.000000
   48  CL 1 YZ    0.000000   0.000000   0.000000   0.000000   0.000000
   49  CL 1 XXX   0.000006   0.000000   0.000000   0.000000   0.000000
   50  CL 1 YYY   0.000000   0.000006   0.000000   0.000000   0.000000
   51  CL 1 ZZZ   0.000000   0.000000  -0.000023  -0.000016   0.000000
   52  CL 1 XXY   0.000000   0.000003   0.000000   0.000000   0.000000
   53  CL 1 XXZ   0.000000   0.000000   0.000016   0.000010   0.000000
   54  CL 1 YYX   0.000003   0.000000   0.000000   0.000000   0.000000
   55  CL 1 YYZ   0.000000   0.000000   0.000016   0.000010   0.000000
   56  CL 1 ZZX  -0.000010   0.000000   0.000000   0.000000   0.000000
   57  CL 1 ZZY   0.000000  -0.000010   0.000000   0.000000   0.000000
   58  CL 1 XYZ   0.000000   0.000000   0.000000   0.000000   0.000000
   59  CL 1 XXX   0.003676   0.000000   0.000000   0.000000   0.000000
   60  CL 1 YYY   0.000000   0.003676   0.000000   0.000000   0.000000
   61  CL 1 ZZZ   0.000000   0.000000  -0.016085  -0.010719   0.000000
   62  CL 1 XXY   0.000000   0.001644   0.000000   0.000000   0.000000
   63  CL 1 XXZ   0.000000   0.000000   0.010790   0.007190   0.000000
   64  CL 1 YYX   0.001644   0.000000   0.000000   0.000000   0.000000
   65  CL 1 YYZ   0.000000   0.000000   0.010790   0.007190   0.000000
   66  CL 1 ZZX  -0.006575   0.000000   0.000000   0.000000   0.000000
   67  CL 1 ZZY   0.000000  -0.006575   0.000000   0.000000   0.000000
   68  CL 1 XYZ   0.000000   0.000000   0.000000   0.000000   0.000000

                     11         12         13         14         15
                    0.5181     0.5181     0.5262     0.5262     0.5985
                     A          A          A          A          A   
    1  CL 1  S    0.000000   0.000000   0.000000   0.000000   0.000000
    2  CL 1  S    0.000000   0.000000   0.000000   0.000000   0.000000
    3  CL 1  S    0.000000   0.000000   0.000000   0.000000   0.000000
    4  CL 1  S    0.000000   0.000000   0.000000   0.000000   0.000000
    5  CL 1  S    0.000000   0.000000   0.000000   0.000000   0.000000
    6  CL 1  S    0.000000   0.000000   0.000000   0.000000   0.000000
    7  CL 1  X   -0.432370   0.000000   0.000000   0.000000   0.000000
    8  CL 1  Y    0.000000  -0.432370   0.000000   0.000000   0.000000
    9  CL 1  Z    0.000000   0.000000   0.000000   0.000000   0.000000
   10  CL 1  X    2.275858   0.000000   0.000000   0.000000   0.000000
   11  CL 1  Y    0.000000   2.275858   0.000000   0.000000   0.000000
   12  CL 1  Z    0.000000   0.000000   0.000000   0.000000   0.000000
   13  CL 1  X    0.003989   0.000000   0.000000   0.000000   0.000000
   14  CL 1  Y    0.000000   0.003989   0.000000   0.000000   0.000000
   15  CL 1  Z    0.000000   0.000000   0.000000   0.000000   0.000000
   16  CL 1  X   -0.052049   0.000000   0.000000   0.000000   0.000000
   17  CL 1  Y    0.000000  -0.052049   0.000000   0.000000   0.000000
   18  CL 1  Z    0.000000   0.000000   0.000000   0.000000   0.000000
   19  CL 1  X    0.604346   0.000000   0.000000   0.000000   0.000000
   20  CL 1  Y    0.000000   0.604346   0.000000   0.000000   0.000000
   21  CL 1  Z    0.000000   0.000000   0.000000   0.000000   0.000000
   22  CL 1  X    2.260972   0.000000   0.000000   0.000000   0.000000
   23  CL 1  Y    0.000000   2.260972   0.000000   0.000000   0.000000
   24  CL 1  Z    0.000000   0.000000   0.000000   0.000000   0.000000
   25  CL 1 XX    0.000000   0.000000   0.000000   0.000000   0.000000
   26  CL 1 YY    0.000000   0.000000   0.000000   0.000000   0.000000
   27  CL 1 ZZ    0.000000   0.000000   0.000000   0.000000   0.000000
   28  CL 1 XY    0.000000   0.000000   0.000000   0.000000   0.002415
   29  CL 1 XZ    0.000000   0.000000   0.000000   0.002599   0.000000
   30  CL 1 YZ    0.000000   0.000000   0.002599   0.000000   0.000000
   31  CL 1 XX    0.000000   0.000000   0.000000   0.000000   0.000000
   32  CL 1 YY    0.000000   0.000000   0.000000   0.000000   0.000000
   33  CL 1 ZZ    0.000000   0.000000   0.000000   0.000000   0.000000
   34  CL 1 XY    0.000000   0.000000   0.000000   0.000000   0.052603
   35  CL 1 XZ    0.000000   0.000000   0.000000   0.052593   0.000000
   36  CL 1 YZ    0.000000   0.000000   0.052593   0.000000   0.000000
   37  CL 1 XX    0.000000   0.000000   0.000000   0.000000   0.000000
   38  CL 1 YY    0.000000   0.000000   0.000000   0.000000   0.000000
   39  CL 1 ZZ    0.000000   0.000000   0.000000   0.000000   0.000000
   40  CL 1 XY    0.000000   0.000000   0.000000   0.000000   0.190374
   41  CL 1 XZ    0.000000   0.000000   0.000000   0.205844   0.000000
   42  CL 1 YZ    0.000000   0.000000   0.205844   0.000000   0.000000
   43  CL 1 XX    0.000000   0.000000   0.000000   0.000000   0.000000
   44  CL 1 YY    0.000000   0.000000   0.000000   0.000000   0.000000
   45  CL 1 ZZ    0.000000   0.000000   0.000000   0.000000   0.000000
   46  CL 1 XY    0.000000   0.000000   0.000000   0.000000   0.867273
   47  CL 1 XZ    0.000000   0.000000   0.000000   0.855814   0.000000
   48  CL 1 YZ    0.000000   0.000000   0.855814   0.000000   0.000000
   49  CL 1 XXX   0.000008   0.000000   0.000000   0.000000   0.000000
   50  CL 1 YYY   0.000000   0.000008   0.000000   0.000000   0.000000
   51  CL 1 ZZZ   0.000000   0.000000   0.000000   0.000000   0.000000
   52  CL 1 XXY   0.000000   0.000004   0.000000   0.000000   0.000000
   53  CL 1 XXZ   0.000000   0.000000   0.000000   0.000000   0.000000
   54  CL 1 YYX   0.000004   0.000000   0.000000   0.000000   0.000000
   55  CL 1 YYZ   0.000000   0.000000   0.000000   0.000000   0.000000
   56  CL 1 ZZX  -0.000014   0.000000   0.000000   0.000000   0.000000
   57  CL 1 ZZY   0.000000  -0.000014   0.000000   0.000000   0.000000
   58  CL 1 XYZ   0.000000   0.000000   0.000000   0.000000   0.000000
   59  CL 1 XXX   0.005654   0.000000   0.000000   0.000000   0.000000
   60  CL 1 YYY   0.000000   0.005654   0.000000   0.000000   0.000000
   61  CL 1 ZZZ   0.000000   0.000000   0.000000   0.000000   0.000000
   62  CL 1 XXY   0.000000   0.002528   0.000000   0.000000   0.000000
   63  CL 1 XXZ   0.000000   0.000000   0.000000   0.000000   0.000000
   64  CL 1 YYX   0.002528   0.000000   0.000000   0.000000   0.000000
   65  CL 1 YYZ   0.000000   0.000000   0.000000   0.000000   0.000000
   66  CL 1 ZZX  -0.010114   0.000000   0.000000   0.000000   0.000000
   67  CL 1 ZZY   0.000000  -0.010114   0.000000   0.000000   0.000000
   68  CL 1 XYZ   0.000000   0.000000   0.000000   0.000000   0.000000

                     16         17         18         19         20
                    0.5985     0.6011     1.9404     1.9575     1.9575
                     A          A          A          A          A   
    1  CL 1  S    0.000000  -1.141988  -0.051001   0.000000   0.000000
    2  CL 1  S    0.000000  -4.112076  -0.173975   0.000000   0.000000
    3  CL 1  S    0.000000  -0.006248   0.001017   0.000000   0.000000
    4  CL 1  S    0.000000  -0.845691  -0.052840   0.000000   0.000000
    5  CL 1  S    0.000000   0.828670   0.063168   0.000000   0.000000
    6  CL 1  S    0.000000   4.133015   0.159809   0.000000   0.000000
    7  CL 1  X    0.000000   0.000000   0.000000   0.000000   0.000000
    8  CL 1  Y    0.000000   0.000000   0.000000   0.000000   0.000000
    9  CL 1  Z    0.000000   0.000000   0.000000   0.000000   0.000000
   10  CL 1  X    0.000000   0.000000   0.000000   0.000000   0.000000
   11  CL 1  Y    0.000000   0.000000   0.000000   0.000000   0.000000
   12  CL 1  Z    0.000000   0.000000   0.000000   0.000000   0.000000
   13  CL 1  X    0.000000   0.000000   0.000000   0.000000   0.000000
   14  CL 1  Y    0.000000   0.000000   0.000000   0.000000   0.000000
   15  CL 1  Z    0.000000   0.000000   0.000000   0.000000   0.000000
   16  CL 1  X    0.000000   0.000000   0.000000   0.000000   0.000000
   17  CL 1  Y    0.000000   0.000000   0.000000   0.000000   0.000000
   18  CL 1  Z    0.000000   0.000000   0.000000   0.000000   0.000000
   19  CL 1  X    0.000000   0.000000   0.000000   0.000000   0.000000
   20  CL 1  Y    0.000000   0.000000   0.000000   0.000000   0.000000
   21  CL 1  Z    0.000000   0.000000   0.000000   0.000000   0.000000
   22  CL 1  X    0.000000   0.000000   0.000000   0.000000   0.000000
   23  CL 1  Y    0.000000   0.000000   0.000000   0.000000   0.000000
   24  CL 1  Z    0.000000   0.000000   0.000000   0.000000   0.000000
   25  CL 1 XX    0.002091   0.000234  -0.007108   0.000000   0.000000
   26  CL 1 YY   -0.002091   0.000234  -0.007108   0.000000   0.000000
   27  CL 1 ZZ    0.000000  -0.000468   0.014216   0.000000   0.000000
   28  CL 1 XY    0.000000   0.000000   0.000000   0.000000   0.000000
   29  CL 1 XZ    0.000000   0.000000   0.000000   0.000000   0.014247
   30  CL 1 YZ    0.000000   0.000000   0.000000   0.014247   0.000000
   31  CL 1 XX    0.045556   0.002329  -0.063102   0.000000   0.000000
   32  CL 1 YY   -0.045556   0.002329  -0.063102   0.000000   0.000000
   33  CL 1 ZZ    0.000000  -0.004658   0.126204   0.000000   0.000000
   34  CL 1 XY    0.000000   0.000000   0.000000   0.000000   0.000000
   35  CL 1 XZ    0.000000   0.000000   0.000000   0.000000   0.127119
   36  CL 1 YZ    0.000000   0.000000   0.000000   0.127119   0.000000
   37  CL 1 XX    0.164869   0.023121  -0.578355   0.000000   0.000000
   38  CL 1 YY   -0.164869   0.023121  -0.578355   0.000000   0.000000
   39  CL 1 ZZ    0.000000  -0.046242   1.156709   0.000000   0.000000
   40  CL 1 XY    0.000000   0.000000   0.000000   0.000000   0.000000
   41  CL 1 XZ    0.000000   0.000000   0.000000   0.000000   1.158016
   42  CL 1 YZ    0.000000   0.000000   0.000000   1.158016   0.000000
   43  CL 1 XX    0.751081   0.005572   0.445134   0.000000   0.000000
   44  CL 1 YY   -0.751081   0.005572   0.445134   0.000000   0.000000
   45  CL 1 ZZ    0.000000  -0.011145  -0.890269   0.000000   0.000000
   46  CL 1 XY    0.000000   0.000000   0.000000   0.000000   0.000000
   47  CL 1 XZ    0.000000   0.000000   0.000000   0.000000  -0.886194
   48  CL 1 YZ    0.000000   0.000000   0.000000  -0.886194   0.000000
   49  CL 1 XXX   0.000000   0.000000   0.000000   0.000000   0.000000
   50  CL 1 YYY   0.000000   0.000000   0.000000   0.000000   0.000000
   51  CL 1 ZZZ   0.000000   0.000000   0.000000   0.000000   0.000000
   52  CL 1 XXY   0.000000   0.000000   0.000000   0.000000   0.000000
   53  CL 1 XXZ   0.000000   0.000000   0.000000   0.000000   0.000000
   54  CL 1 YYX   0.000000   0.000000   0.000000   0.000000   0.000000
   55  CL 1 YYZ   0.000000   0.000000   0.000000   0.000000   0.000000
   56  CL 1 ZZX   0.000000   0.000000   0.000000   0.000000   0.000000
   57  CL 1 ZZY   0.000000   0.000000   0.000000   0.000000   0.000000
   58  CL 1 XYZ   0.000000   0.000000   0.000000   0.000000   0.000000
   59  CL 1 XXX   0.000000   0.000000   0.000000   0.000000   0.000000
   60  CL 1 YYY   0.000000   0.000000   0.000000   0.000000   0.000000
   61  CL 1 ZZZ   0.000000   0.000000   0.000000   0.000000   0.000000
   62  CL 1 XXY   0.000000   0.000000   0.000000   0.000000   0.000000
   63  CL 1 XXZ   0.000000   0.000000   0.000000   0.000000   0.000000
   64  CL 1 YYX   0.000000   0.000000   0.000000   0.000000   0.000000
   65  CL 1 YYZ   0.000000   0.000000   0.000000   0.000000   0.000000
   66  CL 1 ZZX   0.000000   0.000000   0.000000   0.000000   0.000000
   67  CL 1 ZZY   0.000000   0.000000   0.000000   0.000000   0.000000
   68  CL 1 XYZ   0.000000   0.000000   0.000000   0.000000   0.000000

                     21         22         23         24         25
                    2.0086     2.0086     2.2849     2.2950     2.2950
                     A          A          A          A          A   
    1  CL 1  S    0.000000   0.000000   0.000000   0.000000   0.000000
    2  CL 1  S    0.000000   0.000000   0.000000   0.000000   0.000000
    3  CL 1  S    0.000000   0.000000   0.000000   0.000000   0.000000
    4  CL 1  S    0.000000   0.000000   0.000000   0.000000   0.000000
    5  CL 1  S    0.000000   0.000000   0.000000   0.000000   0.000000
    6  CL 1  S    0.000000   0.000000   0.000000   0.000000   0.000000
    7  CL 1  X    0.000000   0.000000   0.000000   0.000000   0.042878
    8  CL 1  Y    0.000000   0.000000   0.000000   0.042878   0.000000
    9  CL 1  Z    0.000000   0.000000   0.074424   0.000000   0.000000
   10  CL 1  X    0.000000   0.000000   0.000000   0.000000  -0.090832
   11  CL 1  Y    0.000000   0.000000   0.000000  -0.090832   0.000000
   12  CL 1  Z    0.000000   0.000000  -0.158994   0.000000   0.000000
   13  CL 1  X    0.000000   0.000000   0.000000   0.000000   0.000465
   14  CL 1  Y    0.000000   0.000000   0.000000   0.000465   0.000000
   15  CL 1  Z    0.000000   0.000000   0.000269   0.000000   0.000000
   16  CL 1  X    0.000000   0.000000   0.000000   0.000000   0.004725
   17  CL 1  Y    0.000000   0.000000   0.000000   0.004725   0.000000
   18  CL 1  Z    0.000000   0.000000   0.009161   0.000000   0.000000
   19  CL 1  X    0.000000   0.000000   0.000000   0.000000  -0.088767
   20  CL 1  Y    0.000000   0.000000   0.000000  -0.088767   0.000000
   21  CL 1  Z    0.000000   0.000000  -0.152975   0.000000   0.000000
   22  CL 1  X    0.000000   0.000000   0.000000   0.000000  -0.046159
   23  CL 1  Y    0.000000   0.000000   0.000000  -0.046159   0.000000
   24  CL 1  Z    0.000000   0.000000  -0.089267   0.000000   0.000000
   25  CL 1 XX    0.012390   0.000000   0.000000   0.000000   0.000000
   26  CL 1 YY   -0.012390   0.000000   0.000000   0.000000   0.000000
   27  CL 1 ZZ    0.000000   0.000000   0.000000   0.000000   0.000000
   28  CL 1 XY    0.000000   0.014306   0.000000   0.000000   0.000000
   29  CL 1 XZ    0.000000   0.000000   0.000000   0.000000   0.000000
   30  CL 1 YZ    0.000000   0.000000   0.000000   0.000000   0.000000
   31  CL 1 XX    0.112146   0.000000   0.000000   0.000000   0.000000
   32  CL 1 YY   -0.112146   0.000000   0.000000   0.000000   0.000000
   33  CL 1 ZZ    0.000000   0.000000   0.000000   0.000000   0.000000
   34  CL 1 XY    0.000000   0.129495   0.000000   0.000000   0.000000
   35  CL 1 XZ    0.000000   0.000000   0.000000   0.000000   0.000000
   36  CL 1 YZ    0.000000   0.000000   0.000000   0.000000   0.000000
   37  CL 1 XX    1.004160   0.000000   0.000000   0.000000   0.000000
   38  CL 1 YY   -1.004160   0.000000   0.000000   0.000000   0.000000
   39  CL 1 ZZ    0.000000   0.000000   0.000000   0.000000   0.000000
   40  CL 1 XY    0.000000   1.159504   0.000000   0.000000   0.000000
   41  CL 1 XZ    0.000000   0.000000   0.000000   0.000000   0.000000
   42  CL 1 YZ    0.000000   0.000000   0.000000   0.000000   0.000000
   43  CL 1 XX   -0.757725   0.000000   0.000000   0.000000   0.000000
   44  CL 1 YY    0.757725   0.000000   0.000000   0.000000   0.000000
   45  CL 1 ZZ    0.000000   0.000000   0.000000   0.000000   0.000000
   46  CL 1 XY    0.000000  -0.874946   0.000000   0.000000   0.000000
   47  CL 1 XZ    0.000000   0.000000   0.000000   0.000000   0.000000
   48  CL 1 YZ    0.000000   0.000000   0.000000   0.000000   0.000000
   49  CL 1 XXX   0.000000   0.000000   0.000000   0.000000  -0.003013
   50  CL 1 YYY   0.000000   0.000000   0.000000  -0.003013   0.000000
   51  CL 1 ZZZ   0.000000   0.000000   0.004910   0.000000   0.000000
   52  CL 1 XXY   0.000000   0.000000   0.000000  -0.001347   0.000000
   53  CL 1 XXZ   0.000000   0.000000  -0.003294   0.000000   0.000000
   54  CL 1 YYX   0.000000   0.000000   0.000000   0.000000  -0.001347
   55  CL 1 YYZ   0.000000   0.000000  -0.003294   0.000000   0.000000
   56  CL 1 ZZX   0.000000   0.000000   0.000000   0.000000   0.005390
   57  CL 1 ZZY   0.000000   0.000000   0.000000   0.005390   0.000000
   58  CL 1 XYZ   0.000000   0.000000   0.000000   0.000000   0.000000
   59  CL 1 XXX   0.000000   0.000000   0.000000   0.000000  -0.611976
   60  CL 1 YYY   0.000000   0.000000   0.000000  -0.611976   0.000000
   61  CL 1 ZZZ   0.000000   0.000000   0.998442   0.000000   0.000000
   62  CL 1 XXY   0.000000   0.000000   0.000000  -0.273684   0.000000
   63  CL 1 XXZ   0.000000   0.000000  -0.669775   0.000000   0.000000
   64  CL 1 YYX   0.000000   0.000000   0.000000   0.000000  -0.273684
   65  CL 1 YYZ   0.000000   0.000000  -0.669775   0.000000   0.000000
   66  CL 1 ZZX   0.000000   0.000000   0.000000   0.000000   1.094735
   67  CL 1 ZZY   0.000000   0.000000   0.000000   1.094735   0.000000
   68  CL 1 XYZ   0.000000   0.000000   0.000000   0.000000   0.000000

                     26         27         28         29         30
                    2.3256     2.3256     2.3742     2.3742     2.5033
                     A          A          A          A          A   
    1  CL 1  S    0.000000   0.000000   0.000000   0.000000   0.000000
    2  CL 1  S    0.000000   0.000000   0.000000   0.000000   0.000000
    3  CL 1  S    0.000000   0.000000   0.000000   0.000000   0.000000
    4  CL 1  S    0.000000   0.000000   0.000000   0.000000   0.000000
    5  CL 1  S    0.000000   0.000000   0.000000   0.000000   0.000000
    6  CL 1  S    0.000000   0.000000   0.000000   0.000000   0.000000
    7  CL 1  X    0.000000   0.000000   0.000000   0.000000   0.000000
    8  CL 1  Y    0.000000   0.000000   0.000000   0.000000   0.000000
    9  CL 1  Z    0.000000   0.000000   0.000000   0.000000  -1.606668
   10  CL 1  X    0.000000   0.000000   0.000000   0.000000   0.000000
   11  CL 1  Y    0.000000   0.000000   0.000000   0.000000   0.000000
   12  CL 1  Z    0.000000   0.000000   0.000000   0.000000   4.077988
   13  CL 1  X    0.000000   0.000000   0.000000   0.000000   0.000000
   14  CL 1  Y    0.000000   0.000000   0.000000   0.000000   0.000000
   15  CL 1  Z    0.000000   0.000000   0.000000   0.000000   0.023848
   16  CL 1  X    0.000000   0.000000   0.000000   0.000000   0.000000
   17  CL 1  Y    0.000000   0.000000   0.000000   0.000000   0.000000
   18  CL 1  Z    0.000000   0.000000   0.000000   0.000000  -0.251620
   19  CL 1  X    0.000000   0.000000   0.000000   0.000000   0.000000
   20  CL 1  Y    0.000000   0.000000   0.000000   0.000000   0.000000
   21  CL 1  Z    0.000000   0.000000   0.000000   0.000000   3.271006
   22  CL 1  X    0.000000   0.000000   0.000000   0.000000   0.000000
   23  CL 1  Y    0.000000   0.000000   0.000000   0.000000   0.000000
   24  CL 1  Z    0.000000   0.000000   0.000000   0.000000   2.329843
   25  CL 1 XX    0.000000   0.000000   0.000000   0.000000   0.000000
   26  CL 1 YY    0.000000   0.000000   0.000000   0.000000   0.000000
   27  CL 1 ZZ    0.000000   0.000000   0.000000   0.000000   0.000000
   28  CL 1 XY    0.000000   0.000000   0.000000   0.000000   0.000000
   29  CL 1 XZ    0.000000   0.000000   0.000000   0.000000   0.000000
   30  CL 1 YZ    0.000000   0.000000   0.000000   0.000000   0.000000
   31  CL 1 XX    0.000000   0.000000   0.000000   0.000000   0.000000
   32  CL 1 YY    0.000000   0.000000   0.000000   0.000000   0.000000
   33  CL 1 ZZ    0.000000   0.000000   0.000000   0.000000   0.000000
   34  CL 1 XY    0.000000   0.000000   0.000000   0.000000   0.000000
   35  CL 1 XZ    0.000000   0.000000   0.000000   0.000000   0.000000
   36  CL 1 YZ    0.000000   0.000000   0.000000   0.000000   0.000000
   37  CL 1 XX    0.000000   0.000000   0.000000   0.000000   0.000000
   38  CL 1 YY    0.000000   0.000000   0.000000   0.000000   0.000000
   39  CL 1 ZZ    0.000000   0.000000   0.000000   0.000000   0.000000
   40  CL 1 XY    0.000000   0.000000   0.000000   0.000000   0.000000
   41  CL 1 XZ    0.000000   0.000000   0.000000   0.000000   0.000000
   42  CL 1 YZ    0.000000   0.000000   0.000000   0.000000   0.000000
   43  CL 1 XX    0.000000   0.000000   0.000000   0.000000   0.000000
   44  CL 1 YY    0.000000   0.000000   0.000000   0.000000   0.000000
   45  CL 1 ZZ    0.000000   0.000000   0.000000   0.000000   0.000000
   46  CL 1 XY    0.000000   0.000000   0.000000   0.000000   0.000000
   47  CL 1 XZ    0.000000   0.000000   0.000000   0.000000   0.000000
   48  CL 1 YZ    0.000000   0.000000   0.000000   0.000000   0.000000
   49  CL 1 XXX   0.000000   0.000000  -0.003931   0.000000   0.000000
   50  CL 1 YYY   0.000000   0.000000   0.000000  -0.003931   0.000000
   51  CL 1 ZZZ   0.000000   0.000000   0.000000   0.000000   0.000220
   52  CL 1 XXY   0.000000   0.000000   0.000000   0.005275   0.000000
   53  CL 1 XXZ   0.004279   0.000000   0.000000   0.000000  -0.000148
   54  CL 1 YYX   0.000000   0.000000   0.005275   0.000000   0.000000
   55  CL 1 YYZ  -0.004279   0.000000   0.000000   0.000000  -0.000148
   56  CL 1 ZZX   0.000000   0.000000   0.000000   0.000000   0.000000
   57  CL 1 ZZY   0.000000   0.000000   0.000000   0.000000   0.000000
   58  CL 1 XYZ   0.000000   0.004941   0.000000   0.000000   0.000000
   59  CL 1 XXX   0.000000   0.000000  -0.790447   0.000000   0.000000
   60  CL 1 YYY   0.000000   0.000000   0.000000  -0.790447   0.000000
   61  CL 1 ZZZ   0.000000   0.000000   0.000000   0.000000   0.049324
   62  CL 1 XXY   0.000000   0.000000   0.000000   1.060496   0.000000
   63  CL 1 XXZ   0.865892   0.000000   0.000000   0.000000  -0.033087
   64  CL 1 YYX   0.000000   0.000000   1.060496   0.000000   0.000000
   65  CL 1 YYZ  -0.865892   0.000000   0.000000   0.000000  -0.033087
   66  CL 1 ZZX   0.000000   0.000000   0.000000   0.000000   0.000000
   67  CL 1 ZZY   0.000000   0.000000   0.000000   0.000000   0.000000
   68  CL 1 XYZ   0.000000   0.999846   0.000000   0.000000   0.000000

                     31         32         33         34         35
                    2.5819     2.5819     3.7506     9.9735     9.9829
                     A          A          A          A          A   
    1  CL 1  S    0.000000   0.000000   2.688816  -0.001129   0.000000
    2  CL 1  S    0.000000   0.000000   6.572999   0.015617   0.000000
    3  CL 1  S    0.000000   0.000000  -0.030148  -0.001584   0.000000
    4  CL 1  S    0.000000   0.000000   3.105026   0.012972   0.000000
    5  CL 1  S    0.000000   0.000000  -5.272044  -0.009077   0.000000
    6  CL 1  S    0.000000   0.000000  -4.595369  -0.012811   0.000000
    7  CL 1  X   -1.600917   0.000000   0.000000   0.000000   0.000000
    8  CL 1  Y    0.000000  -1.600917   0.000000   0.000000   0.000000
    9  CL 1  Z    0.000000   0.000000   0.000000   0.000000   0.000000
   10  CL 1  X    4.051042   0.000000   0.000000   0.000000   0.000000
   11  CL 1  Y    0.000000   4.051042   0.000000   0.000000   0.000000
   12  CL 1  Z    0.000000   0.000000   0.000000   0.000000   0.000000
   13  CL 1  X    0.023827   0.000000   0.000000   0.000000   0.000000
   14  CL 1  Y    0.000000   0.023827   0.000000   0.000000   0.000000
   15  CL 1  Z    0.000000   0.000000   0.000000   0.000000   0.000000
   16  CL 1  X   -0.250935   0.000000   0.000000   0.000000   0.000000
   17  CL 1  Y    0.000000  -0.250935   0.000000   0.000000   0.000000
   18  CL 1  Z    0.000000   0.000000   0.000000   0.000000   0.000000
   19  CL 1  X    3.265675   0.000000   0.000000   0.000000   0.000000
   20  CL 1  Y    0.000000   3.265675   0.000000   0.000000   0.000000
   21  CL 1  Z    0.000000   0.000000   0.000000   0.000000   0.000000
   22  CL 1  X    2.301625   0.000000   0.000000   0.000000   0.000000
   23  CL 1  Y    0.000000   2.301625   0.000000   0.000000   0.000000
   24  CL 1  Z    0.000000   0.000000   0.000000   0.000000   0.000000
   25  CL 1 XX    0.000000   0.000000  -0.000254  -0.012512   0.000000
   26  CL 1 YY    0.000000   0.000000  -0.000254  -0.012512   0.000000
   27  CL 1 ZZ    0.000000   0.000000   0.000508   0.025023   0.000000
   28  CL 1 XY    0.000000   0.000000   0.000000   0.000000   0.000000
   29  CL 1 XZ    0.000000   0.000000   0.000000   0.000000   0.000000
   30  CL 1 YZ    0.000000   0.000000   0.000000   0.000000   0.025039
   31  CL 1 XX    0.000000   0.000000   0.000338  -0.518929   0.000000
   32  CL 1 YY    0.000000   0.000000   0.000338  -0.518929   0.000000
   33  CL 1 ZZ    0.000000   0.000000  -0.000675   1.037858   0.000000
   34  CL 1 XY    0.000000   0.000000   0.000000   0.000000   0.000000
   35  CL 1 XZ    0.000000   0.000000   0.000000   0.000000   0.000000
   36  CL 1 YZ    0.000000   0.000000   0.000000   0.000000   1.037732
   37  CL 1 XX    0.000000   0.000000  -0.003589   0.301145   0.000000
   38  CL 1 YY    0.000000   0.000000  -0.003589   0.301145   0.000000
   39  CL 1 ZZ    0.000000   0.000000   0.007177  -0.602289   0.000000
   40  CL 1 XY    0.000000   0.000000   0.000000   0.000000   0.000000
   41  CL 1 XZ    0.000000   0.000000   0.000000   0.000000   0.000000
   42  CL 1 YZ    0.000000   0.000000   0.000000   0.000000  -0.603134
   43  CL 1 XX    0.000000   0.000000   0.005704  -0.133671   0.000000
   44  CL 1 YY    0.000000   0.000000   0.005704  -0.133671   0.000000
   45  CL 1 ZZ    0.000000   0.000000  -0.011408   0.267342   0.000000
   46  CL 1 XY    0.000000   0.000000   0.000000   0.000000   0.000000
   47  CL 1 XZ    0.000000   0.000000   0.000000   0.000000   0.000000
   48  CL 1 YZ    0.000000   0.000000   0.000000   0.000000   0.267334
   49  CL 1 XXX  -0.000076   0.000000   0.000000   0.000000   0.000000
   50  CL 1 YYY   0.000000  -0.000076   0.000000   0.000000   0.000000
   51  CL 1 ZZZ   0.000000   0.000000   0.000000   0.000000   0.000000
   52  CL 1 XXY   0.000000  -0.000034   0.000000   0.000000   0.000000
   53  CL 1 XXZ   0.000000   0.000000   0.000000   0.000000   0.000000
   54  CL 1 YYX  -0.000034   0.000000   0.000000   0.000000   0.000000
   55  CL 1 YYZ   0.000000   0.000000   0.000000   0.000000   0.000000
   56  CL 1 ZZX   0.000137   0.000000   0.000000   0.000000   0.000000
   57  CL 1 ZZY   0.000000   0.000137   0.000000   0.000000   0.000000
   58  CL 1 XYZ   0.000000   0.000000   0.000000   0.000000   0.000000
   59  CL 1 XXX  -0.018032   0.000000   0.000000   0.000000   0.000000
   60  CL 1 YYY   0.000000  -0.018032   0.000000   0.000000   0.000000
   61  CL 1 ZZZ   0.000000   0.000000   0.000000   0.000000   0.000000
   62  CL 1 XXY   0.000000  -0.008064   0.000000   0.000000   0.000000
   63  CL 1 XXZ   0.000000   0.000000   0.000000   0.000000   0.000000
   64  CL 1 YYX  -0.008064   0.000000   0.000000   0.000000   0.000000
   65  CL 1 YYZ   0.000000   0.000000   0.000000   0.000000   0.000000
   66  CL 1 ZZX   0.032257   0.000000   0.000000   0.000000   0.000000
   67  CL 1 ZZY   0.000000   0.032257   0.000000   0.000000   0.000000
   68  CL 1 XYZ   0.000000   0.000000   0.000000   0.000000   0.000000

                     36         37         38         39         40
                    9.9829    10.0101    10.0101    11.9302    11.9834
                     A          A          A          A          A   
    1  CL 1  S    0.000000   0.000000   0.000000   0.000000   0.000000
    2  CL 1  S    0.000000   0.000000   0.000000   0.000000   0.000000
    3  CL 1  S    0.000000   0.000000   0.000000   0.000000   0.000000
    4  CL 1  S    0.000000   0.000000   0.000000   0.000000   0.000000
    5  CL 1  S    0.000000   0.000000   0.000000   0.000000   0.000000
    6  CL 1  S    0.000000   0.000000   0.000000   0.000000   0.000000
    7  CL 1  X    0.000000   0.000000   0.000000   0.000000  -0.191037
    8  CL 1  Y    0.000000   0.000000   0.000000   0.000000   0.000000
    9  CL 1  Z    0.000000   0.000000   0.000000  -0.190854   0.000000
   10  CL 1  X    0.000000   0.000000   0.000000   0.000000  -1.813380
   11  CL 1  Y    0.000000   0.000000   0.000000   0.000000   0.000000
   12  CL 1  Z    0.000000   0.000000   0.000000  -1.815768   0.000000
   13  CL 1  X    0.000000   0.000000   0.000000   0.000000  -1.050838
   14  CL 1  Y    0.000000   0.000000   0.000000   0.000000   0.000000
   15  CL 1  Z    0.000000   0.000000   0.000000  -1.051570   0.000000
   16  CL 1  X    0.000000   0.000000   0.000000   0.000000   2.641397
   17  CL 1  Y    0.000000   0.000000   0.000000   0.000000   0.000000
   18  CL 1  Z    0.000000   0.000000   0.000000   2.641285   0.000000
   19  CL 1  X    0.000000   0.000000   0.000000   0.000000  -2.151332
   20  CL 1  Y    0.000000   0.000000   0.000000   0.000000   0.000000
   21  CL 1  Z    0.000000   0.000000   0.000000  -2.151798   0.000000
   22  CL 1  X    0.000000   0.000000   0.000000   0.000000  -0.972249
   23  CL 1  Y    0.000000   0.000000   0.000000   0.000000   0.000000
   24  CL 1  Z    0.000000   0.000000   0.000000  -0.973771   0.000000
   25  CL 1 XX    0.000000   0.021717   0.000000   0.000000   0.000000
   26  CL 1 YY    0.000000  -0.021717   0.000000   0.000000   0.000000
   27  CL 1 ZZ    0.000000   0.000000   0.000000   0.000000   0.000000
   28  CL 1 XY    0.000000   0.000000   0.025077   0.000000   0.000000
   29  CL 1 XZ    0.025039   0.000000   0.000000   0.000000   0.000000
   30  CL 1 YZ    0.000000   0.000000   0.000000   0.000000   0.000000
   31  CL 1 XX    0.000000   0.898413   0.000000   0.000000   0.000000
   32  CL 1 YY    0.000000  -0.898413   0.000000   0.000000   0.000000
   33  CL 1 ZZ    0.000000   0.000000   0.000000   0.000000   0.000000
   34  CL 1 XY    0.000000   0.000000   1.037398   0.000000   0.000000
   35  CL 1 XZ    1.037732   0.000000   0.000000   0.000000   0.000000
   36  CL 1 YZ    0.000000   0.000000   0.000000   0.000000   0.000000
   37  CL 1 XX    0.000000  -0.524235   0.000000   0.000000   0.000000
   38  CL 1 YY    0.000000   0.524235   0.000000   0.000000   0.000000
   39  CL 1 ZZ    0.000000   0.000000   0.000000   0.000000   0.000000
   40  CL 1 XY    0.000000   0.000000  -0.605334   0.000000   0.000000
   41  CL 1 XZ   -0.603134   0.000000   0.000000   0.000000   0.000000
   42  CL 1 YZ    0.000000   0.000000   0.000000   0.000000   0.000000
   43  CL 1 XX    0.000000   0.231625   0.000000   0.000000   0.000000
   44  CL 1 YY    0.000000  -0.231625   0.000000   0.000000   0.000000
   45  CL 1 ZZ    0.000000   0.000000   0.000000   0.000000   0.000000
   46  CL 1 XY    0.000000   0.000000   0.267458   0.000000   0.000000
   47  CL 1 XZ    0.267334   0.000000   0.000000   0.000000   0.000000
   48  CL 1 YZ    0.000000   0.000000   0.000000   0.000000   0.000000
   49  CL 1 XXX   0.000000   0.000000   0.000000   0.000000  -0.000046
   50  CL 1 YYY   0.000000   0.000000   0.000000   0.000000   0.000000
   51  CL 1 ZZZ   0.000000   0.000000   0.000000   0.000095   0.000000
   52  CL 1 XXY   0.000000   0.000000   0.000000   0.000000   0.000000
   53  CL 1 XXZ   0.000000   0.000000   0.000000  -0.000063   0.000000
   54  CL 1 YYX   0.000000   0.000000   0.000000   0.000000  -0.000021
   55  CL 1 YYZ   0.000000   0.000000   0.000000  -0.000063   0.000000
   56  CL 1 ZZX   0.000000   0.000000   0.000000   0.000000   0.000083
   57  CL 1 ZZY   0.000000   0.000000   0.000000   0.000000   0.000000
   58  CL 1 XYZ   0.000000   0.000000   0.000000   0.000000   0.000000
   59  CL 1 XXX   0.000000   0.000000   0.000000   0.000000  -0.000515
   60  CL 1 YYY   0.000000   0.000000   0.000000   0.000000   0.000000
   61  CL 1 ZZZ   0.000000   0.000000   0.000000   0.001067   0.000000
   62  CL 1 XXY   0.000000   0.000000   0.000000   0.000000   0.000000
   63  CL 1 XXZ   0.000000   0.000000   0.000000  -0.000716   0.000000
   64  CL 1 YYX   0.000000   0.000000   0.000000   0.000000  -0.000230
   65  CL 1 YYZ   0.000000   0.000000   0.000000  -0.000716   0.000000
   66  CL 1 ZZX   0.000000   0.000000   0.000000   0.000000   0.000922
   67  CL 1 ZZY   0.000000   0.000000   0.000000   0.000000   0.000000
   68  CL 1 XYZ   0.000000   0.000000   0.000000   0.000000   0.000000

                     41         42         43         44         45
                   11.9834    21.2701    37.9166    37.9191    37.9191
                     A          A          A          A          A   
    1  CL 1  S    0.000000  -4.415337   0.000000   0.000000   0.000000
    2  CL 1  S    0.000000   3.031410   0.000000   0.000000   0.000000
    3  CL 1  S    0.000000  -1.550670   0.000000   0.000000   0.000000
    4  CL 1  S    0.000000   8.463222   0.000000   0.000000   0.000000
    5  CL 1  S    0.000000  -2.972727   0.000000   0.000000   0.000000
    6  CL 1  S    0.000000  -2.022262   0.000000   0.000000   0.000000
    7  CL 1  X    0.000000   0.000000   0.000000   0.000000  -0.002439
    8  CL 1  Y   -0.191037   0.000000   0.000000  -0.002439   0.000000
    9  CL 1  Z    0.000000   0.000000  -0.002983   0.000000   0.000000
   10  CL 1  X    0.000000   0.000000   0.000000   0.000000   0.000444
   11  CL 1  Y   -1.813380   0.000000   0.000000   0.000444   0.000000
   12  CL 1  Z    0.000000   0.000000   0.000512   0.000000   0.000000
   13  CL 1  X    0.000000   0.000000   0.000000   0.000000   0.001827
   14  CL 1  Y   -1.050838   0.000000   0.000000   0.001827   0.000000
   15  CL 1  Z    0.000000   0.000000   0.002240   0.000000   0.000000
   16  CL 1  X    0.000000   0.000000   0.000000   0.000000   0.000124
   17  CL 1  Y    2.641397   0.000000   0.000000   0.000124   0.000000
   18  CL 1  Z    0.000000   0.000000   0.000147   0.000000   0.000000
   19  CL 1  X    0.000000   0.000000   0.000000   0.000000   0.000742
   20  CL 1  Y   -2.151332   0.000000   0.000000   0.000742   0.000000
   21  CL 1  Z    0.000000   0.000000   0.000905   0.000000   0.000000
   22  CL 1  X    0.000000   0.000000   0.000000   0.000000   0.000219
   23  CL 1  Y   -0.972249   0.000000   0.000000   0.000219   0.000000
   24  CL 1  Z    0.000000   0.000000   0.000269   0.000000   0.000000
   25  CL 1 XX    0.000000   0.000503   0.000000   0.000000   0.000000
   26  CL 1 YY    0.000000   0.000503   0.000000   0.000000   0.000000
   27  CL 1 ZZ    0.000000  -0.001005   0.000000   0.000000   0.000000
   28  CL 1 XY    0.000000   0.000000   0.000000   0.000000   0.000000
   29  CL 1 XZ    0.000000   0.000000   0.000000   0.000000   0.000000
   30  CL 1 YZ    0.000000   0.000000   0.000000   0.000000   0.000000
   31  CL 1 XX    0.000000   0.000166   0.000000   0.000000   0.000000
   32  CL 1 YY    0.000000   0.000166   0.000000   0.000000   0.000000
   33  CL 1 ZZ    0.000000  -0.000333   0.000000   0.000000   0.000000
   34  CL 1 XY    0.000000   0.000000   0.000000   0.000000   0.000000
   35  CL 1 XZ    0.000000   0.000000   0.000000   0.000000   0.000000
   36  CL 1 YZ    0.000000   0.000000   0.000000   0.000000   0.000000
   37  CL 1 XX    0.000000  -0.000612   0.000000   0.000000   0.000000
   38  CL 1 YY    0.000000  -0.000612   0.000000   0.000000   0.000000
   39  CL 1 ZZ    0.000000   0.001224   0.000000   0.000000   0.000000
   40  CL 1 XY    0.000000   0.000000   0.000000   0.000000   0.000000
   41  CL 1 XZ    0.000000   0.000000   0.000000   0.000000   0.000000
   42  CL 1 YZ    0.000000   0.000000   0.000000   0.000000   0.000000
   43  CL 1 XX    0.000000   0.000334   0.000000   0.000000   0.000000
   44  CL 1 YY    0.000000   0.000334   0.000000   0.000000   0.000000
   45  CL 1 ZZ    0.000000  -0.000667   0.000000   0.000000   0.000000
   46  CL 1 XY    0.000000   0.000000   0.000000   0.000000   0.000000
   47  CL 1 XZ    0.000000   0.000000   0.000000   0.000000   0.000000
   48  CL 1 YZ    0.000000   0.000000   0.000000   0.000000   0.000000
   49  CL 1 XXX   0.000000   0.000000   0.000000   0.000000  -0.612618
   50  CL 1 YYY  -0.000046   0.000000   0.000000  -0.612618   0.000000
   51  CL 1 ZZZ   0.000000   0.000000   1.000400   0.000000   0.000000
   52  CL 1 XXY  -0.000021   0.000000   0.000000  -0.273971   0.000000
   53  CL 1 XXZ   0.000000   0.000000  -0.671089   0.000000   0.000000
   54  CL 1 YYX   0.000000   0.000000   0.000000   0.000000  -0.273971
   55  CL 1 YYZ   0.000000   0.000000  -0.671089   0.000000   0.000000
   56  CL 1 ZZX   0.000000   0.000000   0.000000   0.000000   1.095884
   57  CL 1 ZZY   0.000083   0.000000   0.000000   1.095884   0.000000
   58  CL 1 XYZ   0.000000   0.000000   0.000000   0.000000   0.000000
   59  CL 1 XXX   0.000000   0.000000   0.000000   0.000000   0.020602
   60  CL 1 YYY  -0.000515   0.000000   0.000000   0.020602   0.000000
   61  CL 1 ZZZ   0.000000   0.000000  -0.033636   0.000000   0.000000
   62  CL 1 XXY  -0.000230   0.000000   0.000000   0.009213   0.000000
   63  CL 1 XXZ   0.000000   0.000000   0.022564   0.000000   0.000000
   64  CL 1 YYX   0.000000   0.000000   0.000000   0.000000   0.009213
   65  CL 1 YYZ   0.000000   0.000000   0.022564   0.000000   0.000000
   66  CL 1 ZZX   0.000000   0.000000   0.000000   0.000000  -0.036854
   67  CL 1 ZZY   0.000922   0.000000   0.000000  -0.036854   0.000000
   68  CL 1 XYZ   0.000000   0.000000   0.000000   0.000000   0.000000

                     46         47         48         49         50
                   37.9267    37.9267    37.9393    37.9393    45.5868
                     A          A          A          A          A   
    1  CL 1  S    0.000000   0.000000   0.000000   0.000000  -0.004162
    2  CL 1  S    0.000000   0.000000   0.000000   0.000000   0.000093
    3  CL 1  S    0.000000   0.000000   0.000000   0.000000  -0.001242
    4  CL 1  S    0.000000   0.000000   0.000000   0.000000   0.005403
    5  CL 1  S    0.000000   0.000000   0.000000   0.000000  -0.000467
    6  CL 1  S    0.000000   0.000000   0.000000   0.000000  -0.000087
    7  CL 1  X    0.000000   0.000000   0.000000   0.000000   0.000000
    8  CL 1  Y    0.000000   0.000000   0.000000   0.000000   0.000000
    9  CL 1  Z    0.000000   0.000000   0.000000   0.000000   0.000000
   10  CL 1  X    0.000000   0.000000   0.000000   0.000000   0.000000
   11  CL 1  Y    0.000000   0.000000   0.000000   0.000000   0.000000
   12  CL 1  Z    0.000000   0.000000   0.000000   0.000000   0.000000
   13  CL 1  X    0.000000   0.000000   0.000000   0.000000   0.000000
   14  CL 1  Y    0.000000   0.000000   0.000000   0.000000   0.000000
   15  CL 1  Z    0.000000   0.000000   0.000000   0.000000   0.000000
   16  CL 1  X    0.000000   0.000000   0.000000   0.000000   0.000000
   17  CL 1  Y    0.000000   0.000000   0.000000   0.000000   0.000000
   18  CL 1  Z    0.000000   0.000000   0.000000   0.000000   0.000000
   19  CL 1  X    0.000000   0.000000   0.000000   0.000000   0.000000
   20  CL 1  Y    0.000000   0.000000   0.000000   0.000000   0.000000
   21  CL 1  Z    0.000000   0.000000   0.000000   0.000000   0.000000
   22  CL 1  X    0.000000   0.000000   0.000000   0.000000   0.000000
   23  CL 1  Y    0.000000   0.000000   0.000000   0.000000   0.000000
   24  CL 1  Z    0.000000   0.000000   0.000000   0.000000   0.000000
   25  CL 1 XX    0.000000   0.000000   0.000000   0.000000  -0.617903
   26  CL 1 YY    0.000000   0.000000   0.000000   0.000000  -0.617903
   27  CL 1 ZZ    0.000000   0.000000   0.000000   0.000000   1.235805
   28  CL 1 XY    0.000000   0.000000   0.000000   0.000000   0.000000
   29  CL 1 XZ    0.000000   0.000000   0.000000   0.000000   0.000000
   30  CL 1 YZ    0.000000   0.000000   0.000000   0.000000   0.000000
   31  CL 1 XX    0.000000   0.000000   0.000000   0.000000   0.395355
   32  CL 1 YY    0.000000   0.000000   0.000000   0.000000   0.395355
   33  CL 1 ZZ    0.000000   0.000000   0.000000   0.000000  -0.790710
   34  CL 1 XY    0.000000   0.000000   0.000000   0.000000   0.000000
   35  CL 1 XZ    0.000000   0.000000   0.000000   0.000000   0.000000
   36  CL 1 YZ    0.000000   0.000000   0.000000   0.000000   0.000000
   37  CL 1 XX    0.000000   0.000000   0.000000   0.000000  -0.108398
   38  CL 1 YY    0.000000   0.000000   0.000000   0.000000  -0.108398
   39  CL 1 ZZ    0.000000   0.000000   0.000000   0.000000   0.216796
   40  CL 1 XY    0.000000   0.000000   0.000000   0.000000   0.000000
   41  CL 1 XZ    0.000000   0.000000   0.000000   0.000000   0.000000
   42  CL 1 YZ    0.000000   0.000000   0.000000   0.000000   0.000000
   43  CL 1 XX    0.000000   0.000000   0.000000   0.000000   0.045157
   44  CL 1 YY    0.000000   0.000000   0.000000   0.000000   0.045157
   45  CL 1 ZZ    0.000000   0.000000   0.000000   0.000000  -0.090314
   46  CL 1 XY    0.000000   0.000000   0.000000   0.000000   0.000000
   47  CL 1 XZ    0.000000   0.000000   0.000000   0.000000   0.000000
   48  CL 1 YZ    0.000000   0.000000   0.000000   0.000000   0.000000
   49  CL 1 XXX   0.000000   0.000000   0.000000  -0.790886   0.000000
   50  CL 1 YYY   0.000000   0.000000  -0.790886   0.000000   0.000000
   51  CL 1 ZZZ   0.000000   0.000000   0.000000   0.000000   0.000000
   52  CL 1 XXY   0.000000   0.000000   1.061085   0.000000   0.000000
   53  CL 1 XXZ   0.000000   0.866372   0.000000   0.000000   0.000000
   54  CL 1 YYX   0.000000   0.000000   0.000000   1.061085   0.000000
   55  CL 1 YYZ   0.000000  -0.866372   0.000000   0.000000   0.000000
   56  CL 1 ZZX   0.000000   0.000000   0.000000   0.000000   0.000000
   57  CL 1 ZZY   0.000000   0.000000   0.000000   0.000000   0.000000
   58  CL 1 XYZ   1.000400   0.000000   0.000000   0.000000   0.000000
   59  CL 1 XXX   0.000000   0.000000   0.000000   0.026638   0.000000
   60  CL 1 YYY   0.000000   0.000000   0.026638   0.000000   0.000000
   61  CL 1 ZZZ   0.000000   0.000000   0.000000   0.000000   0.000000
   62  CL 1 XXY   0.000000   0.000000  -0.035738   0.000000   0.000000
   63  CL 1 XXZ   0.000000  -0.029153   0.000000   0.000000   0.000000
   64  CL 1 YYX   0.000000   0.000000   0.000000  -0.035738   0.000000
   65  CL 1 YYZ   0.000000   0.029153   0.000000   0.000000   0.000000
   66  CL 1 ZZX   0.000000   0.000000   0.000000   0.000000   0.000000
   67  CL 1 ZZY   0.000000   0.000000   0.000000   0.000000   0.000000
   68  CL 1 XYZ  -0.033663   0.000000   0.000000   0.000000   0.000000

                     51         52         53         54         55
                   45.5943    45.5943    45.6168    45.6168    49.0199
                     A          A          A          A          A   
    1  CL 1  S    0.000000   0.000000   0.000000   0.000000   0.000000
    2  CL 1  S    0.000000   0.000000   0.000000   0.000000   0.000000
    3  CL 1  S    0.000000   0.000000   0.000000   0.000000   0.000000
    4  CL 1  S    0.000000   0.000000   0.000000   0.000000   0.000000
    5  CL 1  S    0.000000   0.000000   0.000000   0.000000   0.000000
    6  CL 1  S    0.000000   0.000000   0.000000   0.000000   0.000000
    7  CL 1  X    0.000000   0.000000   0.000000   0.000000   0.000000
    8  CL 1  Y    0.000000   0.000000   0.000000   0.000000   0.000000
    9  CL 1  Z    0.000000   0.000000   0.000000   0.000000   6.357234
   10  CL 1  X    0.000000   0.000000   0.000000   0.000000   0.000000
   11  CL 1  Y    0.000000   0.000000   0.000000   0.000000   0.000000
   12  CL 1  Z    0.000000   0.000000   0.000000   0.000000  -0.928588
   13  CL 1  X    0.000000   0.000000   0.000000   0.000000   0.000000
   14  CL 1  Y    0.000000   0.000000   0.000000   0.000000   0.000000
   15  CL 1  Z    0.000000   0.000000   0.000000   0.000000  -4.975259
   16  CL 1  X    0.000000   0.000000   0.000000   0.000000   0.000000
   17  CL 1  Y    0.000000   0.000000   0.000000   0.000000   0.000000
   18  CL 1  Z    0.000000   0.000000   0.000000   0.000000  -0.897470
   19  CL 1  X    0.000000   0.000000   0.000000   0.000000   0.000000
   20  CL 1  Y    0.000000   0.000000   0.000000   0.000000   0.000000
   21  CL 1  Z    0.000000   0.000000   0.000000   0.000000  -1.536862
   22  CL 1  X    0.000000   0.000000   0.000000   0.000000   0.000000
   23  CL 1  Y    0.000000   0.000000   0.000000   0.000000   0.000000
   24  CL 1  Z    0.000000   0.000000   0.000000   0.000000  -0.500957
   25  CL 1 XX    0.000000   0.000000   0.000000   1.070238   0.000000
   26  CL 1 YY    0.000000   0.000000   0.000000  -1.070238   0.000000
   27  CL 1 ZZ    0.000000   0.000000   0.000000   0.000000   0.000000
   28  CL 1 XY    0.000000   0.000000   1.235804   0.000000   0.000000
   29  CL 1 XZ    0.000000   1.235805   0.000000   0.000000   0.000000
   30  CL 1 YZ    1.235805   0.000000   0.000000   0.000000   0.000000
   31  CL 1 XX    0.000000   0.000000   0.000000  -0.684838   0.000000
   32  CL 1 YY    0.000000   0.000000   0.000000   0.684838   0.000000
   33  CL 1 ZZ    0.000000   0.000000   0.000000   0.000000   0.000000
   34  CL 1 XY    0.000000   0.000000  -0.790782   0.000000   0.000000
   35  CL 1 XZ    0.000000  -0.790731   0.000000   0.000000   0.000000
   36  CL 1 YZ   -0.790731   0.000000   0.000000   0.000000   0.000000
   37  CL 1 XX    0.000000   0.000000   0.000000   0.187812   0.000000
   38  CL 1 YY    0.000000   0.000000   0.000000  -0.187812   0.000000
   39  CL 1 ZZ    0.000000   0.000000   0.000000   0.000000   0.000000
   40  CL 1 XY    0.000000   0.000000   0.216867   0.000000   0.000000
   41  CL 1 XZ    0.000000   0.216815   0.000000   0.000000   0.000000
   42  CL 1 YZ    0.216815   0.000000   0.000000   0.000000   0.000000
   43  CL 1 XX    0.000000   0.000000   0.000000  -0.078205   0.000000
   44  CL 1 YY    0.000000   0.000000   0.000000   0.078205   0.000000
   45  CL 1 ZZ    0.000000   0.000000   0.000000   0.000000   0.000000
   46  CL 1 XY    0.000000   0.000000  -0.090304   0.000000   0.000000
   47  CL 1 XZ    0.000000  -0.090310   0.000000   0.000000   0.000000
   48  CL 1 YZ   -0.090310   0.000000   0.000000   0.000000   0.000000
   49  CL 1 XXX   0.000000   0.000000   0.000000   0.000000   0.000000
   50  CL 1 YYY   0.000000   0.000000   0.000000   0.000000   0.000000
   51  CL 1 ZZZ   0.000000   0.000000   0.000000   0.000000   0.000432
   52  CL 1 XXY   0.000000   0.000000   0.000000   0.000000   0.000000
   53  CL 1 XXZ   0.000000   0.000000   0.000000   0.000000  -0.000290
   54  CL 1 YYX   0.000000   0.000000   0.000000   0.000000   0.000000
   55  CL 1 YYZ   0.000000   0.000000   0.000000   0.000000  -0.000290
   56  CL 1 ZZX   0.000000   0.000000   0.000000   0.000000   0.000000
   57  CL 1 ZZY   0.000000   0.000000   0.000000   0.000000   0.000000
   58  CL 1 XYZ   0.000000   0.000000   0.000000   0.000000   0.000000
   59  CL 1 XXX   0.000000   0.000000   0.000000   0.000000   0.000000
   60  CL 1 YYY   0.000000   0.000000   0.000000   0.000000   0.000000
   61  CL 1 ZZZ   0.000000   0.000000   0.000000   0.000000   0.000047
   62  CL 1 XXY   0.000000   0.000000   0.000000   0.000000   0.000000
   63  CL 1 XXZ   0.000000   0.000000   0.000000   0.000000  -0.000031
   64  CL 1 YYX   0.000000   0.000000   0.000000   0.000000   0.000000
   65  CL 1 YYZ   0.000000   0.000000   0.000000   0.000000  -0.000031
   66  CL 1 ZZX   0.000000   0.000000   0.000000   0.000000   0.000000
   67  CL 1 ZZY   0.000000   0.000000   0.000000   0.000000   0.000000
   68  CL 1 XYZ   0.000000   0.000000   0.000000   0.000000   0.000000

                     56         57         58
                   49.0501    49.0501   122.6180
                     A          A          A   
    1  CL 1  S    0.000000   0.000000  -7.350090
    2  CL 1  S    0.000000   0.000000   1.261432
    3  CL 1  S    0.000000   0.000000   0.327708
    4  CL 1  S    0.000000   0.000000   8.088246
    5  CL 1  S    0.000000   0.000000  -0.749155
    6  CL 1  S    0.000000   0.000000  -0.844000
    7  CL 1  X    0.000000   6.357022   0.000000
    8  CL 1  Y    6.357022   0.000000   0.000000
    9  CL 1  Z    0.000000   0.000000   0.000000
   10  CL 1  X    0.000000  -0.928587   0.000000
   11  CL 1  Y   -0.928587   0.000000   0.000000
   12  CL 1  Z    0.000000   0.000000   0.000000
   13  CL 1  X    0.000000  -4.975414   0.000000
   14  CL 1  Y   -4.975414   0.000000   0.000000
   15  CL 1  Z    0.000000   0.000000   0.000000
   16  CL 1  X    0.000000  -0.897090   0.000000
   17  CL 1  Y   -0.897090   0.000000   0.000000
   18  CL 1  Z    0.000000   0.000000   0.000000
   19  CL 1  X    0.000000  -1.537076   0.000000
   20  CL 1  Y   -1.537076   0.000000   0.000000
   21  CL 1  Z    0.000000   0.000000   0.000000
   22  CL 1  X    0.000000  -0.500898   0.000000
   23  CL 1  Y   -0.500898   0.000000   0.000000
   24  CL 1  Z    0.000000   0.000000   0.000000
   25  CL 1 XX    0.000000   0.000000  -0.000021
   26  CL 1 YY    0.000000   0.000000  -0.000021
   27  CL 1 ZZ    0.000000   0.000000   0.000042
   28  CL 1 XY    0.000000   0.000000   0.000000
   29  CL 1 XZ    0.000000   0.000000   0.000000
   30  CL 1 YZ    0.000000   0.000000   0.000000
   31  CL 1 XX    0.000000   0.000000   0.000027
   32  CL 1 YY    0.000000   0.000000   0.000027
   33  CL 1 ZZ    0.000000   0.000000  -0.000054
   34  CL 1 XY    0.000000   0.000000   0.000000
   35  CL 1 XZ    0.000000   0.000000   0.000000
   36  CL 1 YZ    0.000000   0.000000   0.000000
   37  CL 1 XX    0.000000   0.000000  -0.000029
   38  CL 1 YY    0.000000   0.000000  -0.000029
   39  CL 1 ZZ    0.000000   0.000000   0.000059
   40  CL 1 XY    0.000000   0.000000   0.000000
   41  CL 1 XZ    0.000000   0.000000   0.000000
   42  CL 1 YZ    0.000000   0.000000   0.000000
   43  CL 1 XX    0.000000   0.000000   0.000018
   44  CL 1 YY    0.000000   0.000000   0.000018
   45  CL 1 ZZ    0.000000   0.000000  -0.000036
   46  CL 1 XY    0.000000   0.000000   0.000000
   47  CL 1 XZ    0.000000   0.000000   0.000000
   48  CL 1 YZ    0.000000   0.000000   0.000000
   49  CL 1 XXX   0.000000  -0.000216   0.000000
   50  CL 1 YYY  -0.000216   0.000000   0.000000
   51  CL 1 ZZZ   0.000000   0.000000   0.000000
   52  CL 1 XXY  -0.000097   0.000000   0.000000
   53  CL 1 XXZ   0.000000   0.000000   0.000000
   54  CL 1 YYX   0.000000  -0.000097   0.000000
   55  CL 1 YYZ   0.000000   0.000000   0.000000
   56  CL 1 ZZX   0.000000   0.000386   0.000000
   57  CL 1 ZZY   0.000386   0.000000   0.000000
   58  CL 1 XYZ   0.000000   0.000000   0.000000
   59  CL 1 XXX   0.000000  -0.000022   0.000000
   60  CL 1 YYY  -0.000022   0.000000   0.000000
   61  CL 1 ZZZ   0.000000   0.000000   0.000000
   62  CL 1 XXY  -0.000010   0.000000   0.000000
   63  CL 1 XXZ   0.000000   0.000000   0.000000
   64  CL 1 YYX   0.000000  -0.000010   0.000000
   65  CL 1 YYZ   0.000000   0.000000   0.000000
   66  CL 1 ZZX   0.000000   0.000040   0.000000
   67  CL 1 ZZY   0.000040   0.000000   0.000000
   68  CL 1 XYZ   0.000000   0.000000   0.000000
 ...... END OF ROHF CALCULATION ......
 STEP CPU TIME =     0.06 TOTAL CPU TIME =        0.4 (    0.0 MIN)
 TOTAL WALL CLOCK TIME=        0.7 SECONDS, CPU UTILIZATION IS  52.86%

     ----------------------------------------------------------------
     PROPERTY VALUES FOR THE ROHF  SELF-CONSISTENT FIELD WAVEFUNCTION
     ----------------------------------------------------------------

          -----------------
          ENERGY COMPONENTS
          -----------------

         WAVEFUNCTION NORMALIZATION =       1.0000000000

                ONE ELECTRON ENERGY =    -287.8297487146
                TWO ELECTRON ENERGY =     106.2151089616
           NUCLEAR REPULSION ENERGY =       0.0000000000
                                      ------------------
                       TOTAL ENERGY =    -181.6146397531

 ELECTRON-ELECTRON POTENTIAL ENERGY =     106.2151089616
  NUCLEUS-ELECTRON POTENTIAL ENERGY =    -431.8796053535
   NUCLEUS-NUCLEUS POTENTIAL ENERGY =       0.0000000000
                                      ------------------
             TOTAL POTENTIAL ENERGY =    -325.6644963919
               TOTAL KINETIC ENERGY =     144.0498566388
                 VIRIAL RATIO (V/T) =       2.2607762617

          ---------------------------------------
          MULLIKEN AND LOWDIN POPULATION ANALYSES
          ---------------------------------------

     ATOMIC MULLIKEN POPULATION IN EACH MOLECULAR ORBITAL

                      1          2          3          4          5

                  2.000000   2.000000   2.000000   2.000000   2.000000

    1             2.000000   2.000000   2.000000   2.000000   2.000000

                      6          7          8

                  2.000000   2.000000   1.000000

    1             2.000000   2.000000   1.000000

          MULLIKEN SPHERICAL HARMONIC POPULATIONS
       ATOM           S       P       D      F      G      H      I    TOTAL
    1 CL            2.00    6.00    0.00   0.00   0.00   0.00   0.00    8.00

          MULLIKEN SPHERICAL HARMONIC POPULATIONS
       ATOM           S       P       D      F      G      H      I    TOTAL
    1 CL            2.00    5.00    0.00   0.00   0.00   0.00   0.00    7.00

     ATOMIC SPIN POPULATION (ALPHA MINUS BETA)
       ATOM         MULL.POP.                    LOW.POP.
    1 CL            1.000000                     1.000000

               ----- POPULATIONS IN EACH AO -----
                             MULLIKEN      LOWDIN
              1  CL 1  S      1.99994     0.39043
              2  CL 1  S      2.00024     0.50029
              3  CL 1  S     -0.00001     0.08720
              4  CL 1  S      0.00009     0.35405
              5  CL 1  S     -0.00006     0.28247
              6  CL 1  S     -0.00024     0.33528
              7  CL 1  X      2.00200     0.72529
              8  CL 1  Y      2.00200     0.72529
              9  CL 1  Z      1.99598     0.72237
             10  CL 1  X      1.97537     0.63321
             11  CL 1  Y      1.97537     0.63321
             12  CL 1  Z      1.05011     0.31962
             13  CL 1  X      0.00028     0.51989
             14  CL 1  Y      0.00028     0.51989
             15  CL 1  Z     -0.00056     0.50900
             16  CL 1  X     -0.00134     0.30475
             17  CL 1  Y     -0.00134     0.30475
             18  CL 1  Z      0.00267     0.30431
             19  CL 1  X      0.00331     0.32456
             20  CL 1  Y      0.00331     0.32456
             21  CL 1  Z     -0.00681     0.21621
             22  CL 1  X      0.02032     0.43453
             23  CL 1  Y      0.02032     0.43453
             24  CL 1  Z     -0.04163     0.19714
             25  CL 1 XX     -0.00000     0.14272
             26  CL 1 YY      0.00000     0.14272
             27  CL 1 ZZ      0.00000     0.14298
             28  CL 1 XY      0.00000     0.00000
             29  CL 1 XZ      0.00000     0.00000
             30  CL 1 YZ      0.00000     0.00000
             31  CL 1 XX      0.00000     0.18444
             32  CL 1 YY      0.00000     0.18444
             33  CL 1 ZZ      0.00000     0.18570
             34  CL 1 XY      0.00000     0.00000
             35  CL 1 XZ      0.00000     0.00000
             36  CL 1 YZ      0.00000     0.00000
             37  CL 1 XX      0.00000     0.21019
             38  CL 1 YY      0.00000     0.21019
             39  CL 1 ZZ      0.00000     0.20787
             40  CL 1 XY      0.00000     0.00000
             41  CL 1 XZ      0.00000     0.00000
             42  CL 1 YZ      0.00000     0.00000
             43  CL 1 XX      0.00004     0.14832
             44  CL 1 YY      0.00000     0.14832
             45  CL 1 ZZ      0.00000     0.14240
             46  CL 1 XY      0.00000     0.00000
             47  CL 1 XZ      0.00000     0.00000
             48  CL 1 YZ      0.00000     0.00000
             49  CL 1 XXX     0.00000     0.19446
             50  CL 1 YYY     0.00000     0.19446
             51  CL 1 ZZZ     0.00000     0.19209
             52  CL 1 XXY     0.00000     0.09611
             53  CL 1 XXZ     0.00000     0.09481
             54  CL 1 YYX     0.00000     0.09611
             55  CL 1 YYZ     0.00000     0.09481
             56  CL 1 ZZX     0.00000     0.09628
             57  CL 1 ZZY     0.00000     0.09628
             58  CL 1 XYZ     0.00000     0.00000
             59  CL 1 XXX     0.00000     0.35229
             60  CL 1 YYY     0.00000     0.35229
             61  CL 1 ZZZ     0.00007     0.19566
             62  CL 1 XXY     0.00026     0.15553
             63  CL 1 XXZ     0.00007     0.07699
             64  CL 1 YYX     0.00000     0.15553
             65  CL 1 YYZ     0.00000     0.07699
             66  CL 1 ZZX     0.00000     0.16310
             67  CL 1 ZZY     0.00000     0.16310
             68  CL 1 XYZ     0.00000     0.00000

          ----- MULLIKEN ATOMIC OVERLAP POPULATIONS -----
          (OFF-DIAGONAL ELEMENTS NEED TO BE MULTIPLIED BY 2)

             1

    1   15.0000000

          TOTAL MULLIKEN AND LOWDIN ATOMIC POPULATIONS
       ATOM         MULL.POP.    CHARGE          LOW.POP.     CHARGE
    1 CL           15.000000   -0.000000        15.000000   -0.000000

          MULLIKEN SPHERICAL HARMONIC POPULATIONS
       ATOM           S       P       D      F      G      H      I    TOTAL
    1 CL            4.00   11.00    0.00   0.00   0.00   0.00   0.00   15.00

          -------------------------------
          BOND ORDER AND VALENCE ANALYSIS     BOND ORDER THRESHOLD=0.050
          -------------------------------

                   BOND                       BOND                       BOND
  ATOM PAIR DIST  ORDER      ATOM PAIR DIST  ORDER      ATOM PAIR DIST  ORDER

                       TOTAL       BONDED        FREE
      ATOM            VALENCE     VALENCE     VALENCE
    1 CL                1.000       0.000       1.000

          -----------------------------------------
          ATOMIC SPIN DENSITY AT THE NUCLEUS (A.U.)
          -----------------------------------------
                            SPIN DENS    ALPHA DENS     BETA DENS
    1  CL          15.0     0.0000000       0.38245       0.38245

          ---------------------
          ELECTROSTATIC MOMENTS
          ---------------------

 POINT   1           X           Y           Z (BOHR)    CHARGE
                 0.000000    0.000000    0.000000       -0.00 (A.U.)
         DX          DY          DZ         /D/  (DEBYE)
     0.000000    0.000000    0.000000    0.000000
 ...... END OF PROPERTY EVALUATION ......
 STEP CPU TIME =     0.01 TOTAL CPU TIME =        0.4 (    0.0 MIN)
 TOTAL WALL CLOCK TIME=        0.7 SECONDS, CPU UTILIZATION IS  51.35%
                580000  WORDS OF DYNAMIC MEMORY USED
 EXECUTION OF GAMESS TERMINATED NORMALLY Wed Jan 16 15:57:02 2019
 DDI: 263624 bytes (0.3 MB / 0 MWords) used by master data server.

 ----------------------------------------
 CPU timing information for all processes
 ========================================
 0: 0.346 + 0.46 = 0.393
 ----------------------------------------
 ddikick.x: exited gracefully.
----- accounting info -----
Files used on the master node login3.stampede2.tacc.utexas.edu were:
-rw------- 1 aannabe G-801537    2544 Jan 16 15:57 /tmp/Cl.F05
-rw------- 1 aannabe G-801537 4500400 Jan 16 15:57 /tmp/Cl.F08
-rw------- 1 aannabe G-801537 2748480 Jan 16 15:57 /tmp/Cl.F10
Wed Jan 16 15:57:05 CST 2019
0.214u 0.158s 0:04.18 8.6%	0+0k 0+32io 0pf+0w
