
 Primary working directories    : /global/cscratch1/sd/aannabe
 Secondary working directories  : /global/cscratch1/sd/aannabe
 Wavefunction directory         : /global/homes/a/aannabe/wfu/
 Main file repository           : /global/cscratch1/sd/aannabe/

 SHA1      : 2873118e99aab1bc19f5b6fc1784693c06d15c95
 NAME      : 2015.1.8
 ARCHNAME  : linux/x86_64
 FC        : /opt/cray/pe/craype/2.5.5/bin/ftn
 BLASLIB   : -Wl,-_start-group /opt/intel/compilers_and_libraries_2016.3.210/linux/mkl/lib/intel64/libmkl_intel_ilp64.a /opt/intel/compilers_and_libraries_2016.3.210/linux/mkl/lib/intel64/libmkl_intel_thread.a /opt/intel/compilers_and_libraries_2016.3.210/linux/mkl/lib/intel64/libmkl_core.a -Wl,-_end-group
 id        : lbl

 Nodes     nprocs
 nid00461     1

 Using customized tuning parameters: mindgm=8; mindgv=16; mindgc=4; mindgr=1; noblas=0; minvec=7
 default implementation of scratch files=df  

 ***,P
 memory,8,g
 gthresh,twoint=1.e-12
 
 gprint,basis,orbitals
 gexpec,ekin,pot
 
 angstrom
 geometry={
 1                                                                               ! Number of atoms
 P 0.0 0.0 0.0
 }
 
 basis={
 Including file /global/homes/a/aannabe/docs/totals/pps/P.pp
 Including file /global/homes/a/aannabe/docs/totals/basis/aug-cc-pVnZ/P_tz.basis
 }
 
 {hf
 wf,5,8,3
 occ,1,1,1,0,1,0,0,0
                                                                                 !open,1.3
 closed,1,0,0,0,0,0,0,0
                                                                                 !sym,
 }
 scf(i)=energy
 
 _CC_NORM_MAX=2.0
 {fci
 maxit,100
 core
 }
 posthf(i)=energy
 
 table,scf,posthf,ekin,pot
 save,3.csv,new
 
 

 Variables initialized (889), CPU time= 0.01 sec
 Commands  initialized (702), CPU time= 0.00 sec, 572 directives.
 Default parameters read. Elapsed time= 0.12 sec

 Checking input...
 Passed
1


                                         ***  PROGRAM SYSTEM MOLPRO  ***
                                       Copyright, TTI GmbH Stuttgart, 2015
                                    Version 2015.1 linked Sep  7 2016 23:09:38


 **********************************************************************************************************************************
 LABEL *   P                                                                             
  64 bit serial version                                                                  DATE: 05-Oct-18          TIME: 10:57:44  
 **********************************************************************************************************************************

 SHA1:             2873118e99aab1bc19f5b6fc1784693c06d15c95
 **********************************************************************************************************************************

 THRESHOLDS:

 ZERO    =  1.00D-12  ONEINT  =  1.00D-12  TWOINT  =  1.00D-12  PREFAC  =  1.00D-14  LOCALI  =  1.00D-09  EORDER  =  1.00D-04
 ENERGY  =  0.00D+00  ETEST   =  0.00D+00  EDENS   =  0.00D+00  THRDEDEF=  1.00D-06  GRADIENT=  1.00D-02  STEP    =  1.00D-03
 ORBITAL =  1.00D-05  CIVEC   =  1.00D-05  COEFF   =  1.00D-04  PRINTCI =  5.00D-02  PUNCHCI =  9.90D+01  OPTGRAD =  3.00D-04
 OPTENERG=  1.00D-06  OPTSTEP =  3.00D-04  THRGRAD =  1.00D-10  COMPRESS=  1.00D-11  VARMIN  =  1.00D-07  VARMAX  =  1.00D-03
 THRDOUB =  0.00D+00  THRDIV  =  1.00D-05  THRRED  =  1.00D-07  THRPSP  =  1.00D+00  THRDC   =  1.00D-10  THRCS   =  1.00D-10
 THRNRM  =  1.00D-08  THREQ   =  0.00D+00  THRDE   =  1.00D+00  THRREF  =  1.00D-05  SPARFAC =  1.00D+00  THRDLP  =  1.00D-07
 THRDIA  =  1.00D-10  THRDLS  =  1.00D-07  THRGPS  =  0.00D+00  THRKEX  =  0.00D+00  THRDIS  =  2.00D-01  THRVAR  =  1.00D-10
 THRLOC  =  1.00D-06  THRGAP  =  1.00D-06  THRLOCT = -1.00D+00  THRGAPT = -1.00D+00  THRORB  =  1.00D-06  THRMLTP =  0.00D+00
 THRCPQCI=  1.00D-10  KEXTA   =  0.00D+00  THRCOARS=  0.00D+00  SYMTOL  =  1.00D-06  GRADTOL =  1.00D-06  THROVL  =  1.00D-08
 THRORTH =  1.00D-08  GRID    =  1.00D-06  GRIDMAX =  1.00D-03  DTMAX   =  0.00D+00  THROCCDE=  1.00D-01  THROCCDE=  1.00D-01



 ZUNIT=ANG
 

Geometry recognized as XYZ


 Variable memory set to 8000000000 words,  buffer space   230000 words

 SETTING BASIS          =    USERDEF


 Recomputing integrals since basis changed


 Using spherical harmonics



 PROGRAM * SEWARD (Integral evaluation for generally contracted gaussian basis sets)     Author: Roland Lindh, 1990

 Geometry written to block  1 of record 700

 Orientation using atomic masses  
 Molecule type: Atom
 Symmetry elements: X,Y,Z
 Rotational constants:       0.0000000      0.0000000      0.0000000 GHz  (calculated with average atomic masses)

 Point group  D2h 



 ATOMIC COORDINATES

 NR  ATOM    CHARGE       X              Y              Z

   1  P       5.00    0.000000000    0.000000000    0.000000000


          P   CORE POTENTIAL

          d POTENTIAL

 POWERS             1              3              2
 EXPONENTIALS   5.872694       9.891298       4.692469    
 COEFFICIENTS   5.000000       29.36347      -17.01114    

          s - d POTENTIAL

 POWERS             2              2
 EXPONENTIALS   12.09133       3.044535    
 COEFFICIENTS   15.25938       31.70792    

          p - d POTENTIAL

 POWERS             2              2
 EXPONENTIALS   4.310884       2.426903    
 COEFFICIENTS   7.747190       13.93253    


 BASIS DATA

   Nr Sym  Nuc  Type         Exponents   Contraction coefficients

    1.1 Ag    1  1s           5.054268     0.001781
                              3.094719     0.077653
                              1.894891    -0.312344
                              1.160239    -0.045804
                              0.710412    -0.029427
                              0.434984     0.318560
                              0.266340     0.309169
                              0.163080     0.376899
                              0.099853     0.152113
                              0.061140     0.054943
    2.1 Ag    1  1s           0.677625     1.000000
    3.1 Ag    1  1s           0.117987     1.000000
    4.1 Ag    1  1s           0.066872     1.000000
    5.1 Ag    1  3d0          0.725126     1.000000
    6.1 Ag    1  3d2+         0.725126     1.000000
    7.1 Ag    1  3d0          0.230876     1.000000
    8.1 Ag    1  3d2+         0.230876     1.000000
    9.1 Ag    1  3d0          0.080290     1.000000
   10.1 Ag    1  3d2+         0.080290     1.000000
    1.2 B3u   1  2px          5.861284    -0.003160
                              3.406365     0.007462
                              1.979655    -0.060893
                              1.150503     0.015297
                              0.668631     0.123431
                              0.388584     0.257276
                              0.225831     0.305131
                              0.131245     0.276016
                              0.076275     0.134133
                              0.044328     0.040073
    2.2 B3u   1  2px          0.566577     1.000000
    3.2 B3u   1  2px          0.097308     1.000000
    4.2 B3u   1  2px          0.030303     1.000000
    5.2 B3u   1  4f1+         0.463938     1.000000
    6.2 B3u   1  4f3+         0.463938     1.000000
    7.2 B3u   1  4f1+         0.166814     1.000000
    8.2 B3u   1  4f3+         0.166814     1.000000
    1.3 B2u   1  2py          5.861284    -0.003160
                              3.406365     0.007462
                              1.979655    -0.060893
                              1.150503     0.015297
                              0.668631     0.123431
                              0.388584     0.257276
                              0.225831     0.305131
                              0.131245     0.276016
                              0.076275     0.134133
                              0.044328     0.040073
    2.3 B2u   1  2py          0.566577     1.000000
    3.3 B2u   1  2py          0.097308     1.000000
    4.3 B2u   1  2py          0.030303     1.000000
    5.3 B2u   1  4f1-         0.463938     1.000000
    6.3 B2u   1  4f3-         0.463938     1.000000
    7.3 B2u   1  4f1-         0.166814     1.000000
    8.3 B2u   1  4f3-         0.166814     1.000000
    1.4 B1g   1  3d2-         0.725126     1.000000
    2.4 B1g   1  3d2-         0.230876     1.000000
    3.4 B1g   1  3d2-         0.080290     1.000000
    1.5 B1u   1  2pz          5.861284    -0.003160
                              3.406365     0.007462
                              1.979655    -0.060893
                              1.150503     0.015297
                              0.668631     0.123431
                              0.388584     0.257276
                              0.225831     0.305131
                              0.131245     0.276016
                              0.076275     0.134133
                              0.044328     0.040073
    2.5 B1u   1  2pz          0.566577     1.000000
    3.5 B1u   1  2pz          0.097308     1.000000
    4.5 B1u   1  2pz          0.030303     1.000000
    5.5 B1u   1  4f0          0.463938     1.000000
    6.5 B1u   1  4f2+         0.463938     1.000000
    7.5 B1u   1  4f0          0.166814     1.000000
    8.5 B1u   1  4f2+         0.166814     1.000000
    1.6 B2g   1  3d1+         0.725126     1.000000
    2.6 B2g   1  3d1+         0.230876     1.000000
    3.6 B2g   1  3d1+         0.080290     1.000000
    1.7 B3g   1  3d1-         0.725126     1.000000
    2.7 B3g   1  3d1-         0.230876     1.000000
    3.7 B3g   1  3d1-         0.080290     1.000000
    1.8 Au    1  4f2-         0.463938     1.000000
    2.8 Au    1  4f2-         0.166814     1.000000

 NUCLEAR CHARGE:                    5
 NUMBER OF PRIMITIVE AOS:          90
 NUMBER OF SYMMETRY AOS:           81
 NUMBER OF CONTRACTIONS:           45   (  10Ag  +   8B3u +   8B2u +   3B1g +   8B1u +   3B2g +   3B3g +   2Au  )
 NUMBER OF CORE ORBITALS:           0   (   0Ag  +   0B3u +   0B2u +   0B1g +   0B1u +   0B2g +   0B3g +   0Au  )
 NUMBER OF VALENCE ORBITALS:        4   (   1Ag  +   1B3u +   1B2u +   0B1g +   1B1u +   0B2g +   0B3g +   0Au  )


 NUCLEAR REPULSION ENERGY    0.00000000

 EXTRA SYMMETRY OF AOS IN SYMMETRY 1:   1 1 1 1 2 3 2 3 2 3
 EXTRA SYMMETRY OF AOS IN SYMMETRY 2:   1 1 1 1 2 3 2 3
 EXTRA SYMMETRY OF AOS IN SYMMETRY 3:   1 1 1 1 2 3 2 3
 EXTRA SYMMETRY OF AOS IN SYMMETRY 5:   1 1 1 1 2 3 2 3

 Eigenvalues of metric

         1 0.106E-01 0.106E+00 0.225E+00 0.225E+00 0.622E+00 0.834E+00 0.834E+00 0.194E+01
         2 0.165E-01 0.293E+00 0.431E+00 0.431E+00 0.970E+00 0.157E+01 0.157E+01 0.272E+01
         3 0.165E-01 0.293E+00 0.431E+00 0.431E+00 0.970E+00 0.157E+01 0.157E+01 0.272E+01
         4 0.225E+00 0.834E+00 0.194E+01
         5 0.165E-01 0.293E+00 0.431E+00 0.431E+00 0.970E+00 0.157E+01 0.157E+01 0.272E+01
         6 0.225E+00 0.834E+00 0.194E+01
         7 0.225E+00 0.834E+00 0.194E+01
         8 0.431E+00 0.157E+01


 Contracted 2-electron integrals neglected if value below      1.0D-12
 AO integral compression algorithm  1   Integral accuracy      1.0D-12

     1.049 MB (compressed) written to integral file ( 87.7%)


 NUMBER OF SORTED TWO-ELECTRON INTEGRALS:      75808.     BUFFER LENGTH:  32768
 NUMBER OF SEGMENTS:   1  SEGMENT LENGTH:      75808      RECORD LENGTH: 524288

 Memory used in sort:       0.63 MW

 SORT1 READ      155797. AND WROTE       61548. INTEGRALS IN      1 RECORDS. CPU TIME:     0.00 SEC, REAL TIME:     0.01 SEC
 SORT2 READ       61548. AND WROTE       75808. INTEGRALS IN      4 RECORDS. CPU TIME:     0.01 SEC, REAL TIME:     0.03 SEC

 FILE SIZES:   FILE 1:    20.2 MBYTE,  FILE 4:     4.2 MBYTE,   TOTAL:     24.4 MBYTE

 OPERATOR DM      FOR CENTER  0  COORDINATES:    0.000000    0.000000    0.000000
 OPERATOR EKIN    FOR CENTER  0  COORDINATES:    0.000000    0.000000    0.000000
 OPERATOR POT     FOR CENTER  0  COORDINATES:    0.000000    0.000000    0.000000


 **********************************************************************************************************************************
 DATASETS  * FILE   NREC   LENGTH (MB)   RECORD NAMES
              1      20       19.59       500      610      700      900      950      970     1000      129      960     1100   
                                          VAR    BASINP    GEOM    SYMINP    ZMAT    AOBASIS   BASIS     P2S    ABASIS      S 
                                         1400     1410     1420     1200     1210     1080     1600     1650     1300     1700   
                                         EKIN       V       ECP      H0       H01     AOSYM     SMH    MOLCAS    ERIS     OPER   

 PROGRAMS   *        TOTAL       INT
 CPU TIMES  *         1.67      1.58
 REAL TIME  *        11.81 SEC
 DISK USED  *        24.67 MB      
 **********************************************************************************************************************************


 PROGRAM * RHF-SCF (OPEN SHELL)       Authors: W. Meyer, H.-J. Werner


 NUMBER OF ELECTRONS:       4+    1-    SPACE SYMMETRY=8    SPIN SYMMETRY: Quartet 
 CONVERGENCE THRESHOLDS:    1.00E-05 (Density)    1.00E-07 (Energy)
 MAX. NUMBER OF ITERATIONS:       60
 INTERPOLATION TYPE:            DIIS
 INTERPOLATION STEPS:              2 (START)      1 (STEP)
 LEVEL SHIFTS:                 -0.60 (CLOSED) -0.30 (OPEN) 

 Number of closed-shell orbitals:    1 (   1   0   0   0   0   0   0   0 )
 Number of open-shell orbitals:      3 (   0   1   1   0   1   0   0   0 )



   Atom=P  basis=ECP10MWB_GUESS    lmin=0  lmax=1

 Orbital guess generated from atomic densities. Full valence occupancy:    1   1   1   0   1   0   0   0


 Molecular orbital dump at record        2100.2

 ITERATION    DDIFF          GRAD             ENERGY        2-EL.EN.            DIPOLE MOMENTS         DIIS   ORB.
    1      0.000D+00      0.000D+00        -6.32616163      7.184840    0.00000    0.00000    0.00000    0    start
    2      0.000D+00      0.914D-02        -6.33799511      7.399402    0.00000    0.00000    0.00000    1    diag,B
    3      0.218D-01      0.343D-02        -6.34061142      7.506475    0.00000    0.00000    0.00000    2    diag,B
    4      0.130D-01      0.128D-02        -6.34095843      7.533370    0.00000    0.00000    0.00000    3    diag,B
    5      0.613D-02      0.224D-03        -6.34096607      7.534058    0.00000    0.00000    0.00000    4    diag,B
    6      0.857D-03      0.543D-04        -6.34096640      7.534491    0.00000    0.00000    0.00000    5    diag,B
    7      0.222D-03      0.138D-04        -6.34096642      7.534244    0.00000    0.00000    0.00000    6    fixocc
    8      0.612D-04      0.216D-05        -6.34096642      7.534269    0.00000    0.00000    0.00000    7    diag,B
    9      0.119D-04      0.772D-06        -6.34096642      7.534250    0.00000    0.00000    0.00000    8    diag,B
   10      0.234D-05      0.318D-07        -6.34096642      7.534250    0.00000    0.00000    0.00000    0    orth

 Final alpha occupancy:   1   1   1   0   1   0   0   0
 Final beta  occupancy:   1   0   0   0   0   0   0   0

 !RHF STATE 1.8 Energy                 -6.340966421032
 Nuclear energy                         0.00000000
 One-electron energy                  -10.10809133
 Two-electron energy                    3.76712491
 Virial quotient                       -2.69268117
 !RHF STATE 1.8 Dipole moment           0.00000000     0.00000000     0.00000000
 Dipole moment /Debye                   0.00000000     0.00000000     0.00000000
 

 !RHF expec          <1.8|EKIN|1.8>     2.354889425003
 
 !RHF expec           <1.8|POT|1.8>    -2.719086659727

 ELECTRON ORBITALS
 =================


   Orb  Occ    Energy  Couls-En    Coefficients

                                   1 1s      1 1s      1 1s      1 1s      1 3d0     1 3d2+    1 3d0     1 3d2+    1 3d0     1 3d2+ 


   1.1   2    -0.6989   -2.9915  1.000004  0.000001 -0.000008  0.000003  0.000000 -0.000000  0.000000 -0.000000 -0.000000  0.000000

                                   1 2px     1 2px     1 2px     1 2px     1 4f1+    1 4f3+    1 4f1+    1 4f3+ 

   1.2   +    -0.3920   -2.2330  1.000028 -0.000008 -0.000061  0.000071  0.000000  0.000000 -0.000000  0.000000

                                   1 2py     1 2py     1 2py     1 2py     1 4f1-    1 4f3-    1 4f1-    1 4f3- 

   1.3   +    -0.3920   -2.2330  1.000028 -0.000008 -0.000061  0.000071  0.000000 -0.000000 -0.000000 -0.000000

                                   1 2pz     1 2pz     1 2pz     1 2pz     1 4f0     1 4f2+    1 4f0     1 4f2+ 

   1.5   +    -0.3920   -2.2330  1.000028 -0.000008 -0.000061  0.000071  0.000000  0.000000  0.000000 -0.000000

 HOMO      1.2    -0.391985 =     -10.6664eV
 LUMO      2.2     0.084323 =       2.2945eV
 LUMO-HOMO         0.476308 =      12.9610eV


 **********************************************************************************************************************************
 DATASETS  * FILE   NREC   LENGTH (MB)   RECORD NAMES
              1      20       19.59       500      610      700      900      950      970     1000      129      960     1100   
                                          VAR    BASINP    GEOM    SYMINP    ZMAT    AOBASIS   BASIS     P2S    ABASIS      S 
                                         1400     1410     1420     1200     1210     1080     1600     1650     1300     1700   
                                         EKIN       V       ECP      H0       H01     AOSYM     SMH    MOLCAS    ERIS     OPER   

              2       4        2.76       700     1000      520     2100   
                                         GEOM     BASIS   MCVARS     RHF  

 PROGRAMS   *        TOTAL        HF       INT
 CPU TIMES  *         1.71      0.04      1.58
 REAL TIME  *        11.99 SEC
 DISK USED  *        24.67 MB      
 **********************************************************************************************************************************
 SETTING SCF(I)         =        -6.34096642  AU                              
 SETTING _CC_NORM_MAX   =         2.00000000                                  


 PROGRAM * FCI (Full CI)     Author: P.J. Knowles, 1984

 ***  Initialisation ***
 
 Molecular orbitals read from record     2100.2  Type=RHF/CANONICAL (state 1.8)
 
 Frozen orbitals:              0 (  0  0  0  0  0  0  0  0)
 Active orbitals:             45 ( 10  8  8  3  8  3  3  2)
 Active electrons:             5
 Spin quantum number:          1.5
 Orbital pairs:                   184     134     134     119     134     119     119      92
 Strings:                       18532   18568   18568   18623   18568   18623   18623   18890
                                   10       8       8       3       8       3       3       2
 Determinants:                         836339          837228          837228          838908
                                       837228          838908          838908          840028

 Load integrals                1.7 sec
 Transform integrals           1.8 sec
 Storage for integrals:         142766
 Remaining memory:           *********

 Core energy:               0.00000000
 Run Hamiltonian processor DAVIDSON
 Symmetry:                   8
 Trial vector:                  0.00
 Result vector:                 0.00
 Maximum iterations:          100
 Convergence threshold:         0.0000100
 RHS vector:                    0.00
 Hamiltonian shift:             0.0000000
 Output threshold:              0.0500000
 Options:                        0
 Number of roots:             1

 Hamiltonian diagonaliser entered at time      1.84

 Initial configuration generated:
    7341      1.0000000     -6.3409664

 It  Tr    CPU  Convergence   Energy       Pop     dE(next)

  1   1    6.7  1.00000000    -6.34096642
                                           0.00 -0.13023636 -0.13023282
  2   1    9.6  0.25252957    -6.44345814
                                           0.03 -0.00929895 -0.00916950
  3   1   13.5  0.05736648    -6.45168252
                                           0.09 -0.00060567 -0.00057923
  4   1   18.9  0.01338984    -6.45223925
                                           0.15 -0.00005344 -0.00004918
  5   1   26.2  0.00386543    -6.45228774
                                           0.21 -0.00000646 -0.00000569
  6   1   34.3  0.00131208    -6.45229336
                                           0.24 -0.00000105 -0.00000091
  7   1   43.1  0.00051022    -6.45229425
                                           0.25 -0.00000018 -0.00000016
  8   1   52.3  0.00021446    -6.45229440
                                           0.25 -0.00000003 -0.00000003
  9   1   61.9  0.00009047    -6.45229443
                                           0.25 -0.00000000 -0.00000000
 10   1   72.2  0.00003374    -6.45229443
                                           0.25 -0.00000000 -0.00000000
 11   1   81.9  0.00001759    -6.45229443
                                           0.25 -0.00000000 -0.00000000
 12   1   90.6  0.00000620    -6.45229443


RESULTS FOR STATE 1.8
=====================

 Correlation energy                    -0.111328013715
 !FCI STATE 1.8 Energy                 -6.452294434747
 CI Vector (threshold= 0.500E-01)
       0.961511129359  1 11 19 30  1
      -0.054951505402  1  5 11 19 30
 /EOF
 !FCI STATE 1.8 Dipole moment           0.00000000     0.00000000     0.00000000
 Dipole moment /Debye                   0.00000000     0.00000000     0.00000000
 

 !FCI expec          <1.8|EKIN|1.8>     2.476527359428
 
 !FCI expec           <1.8|POT|1.8>    -2.729272886948


 **********************************************************************************************************************************
 DATASETS  * FILE   NREC   LENGTH (MB)   RECORD NAMES
              1      20       19.59       500      610      700      900      950      970     1000      129      960     1100   
                                          VAR    BASINP    GEOM    SYMINP    ZMAT    AOBASIS   BASIS     P2S    ABASIS      S 
                                         1400     1410     1420     1200     1210     1080     1600     1650     1300     1700   
                                         EKIN       V       ECP      H0       H01     AOSYM     SMH    MOLCAS    ERIS     OPER   

              2       4        2.76       700     1000      520     2100   
                                         GEOM     BASIS   MCVARS     RHF  

 PROGRAMS   *        TOTAL       FCI        HF       INT
 CPU TIMES  *        90.79     89.08      0.04      1.58
 REAL TIME  *       104.91 SEC
 DISK USED  *       190.50 MB      
 **********************************************************************************************************************************
 SETTING POSTHF(I)      =        -6.45229443  AU                              
                                                                                                                                                                                                                                                                

       SCF           POSTHF       EKIN          POT
    -6.34096642   -6.45229443   2.47652736   -2.72927289
                                                  

 FCI/USERDEF energy=     -6.452294434747

        FCI             HF-SCF  
     -6.45229443     -6.34096642
 **********************************************************************************************************************************
 Variable memory released
