
 Primary working directories    : /global/cscratch1/sd/aannabe
 Secondary working directories  : /global/cscratch1/sd/aannabe
 Wavefunction directory         : /global/homes/a/aannabe/wfu/
 Main file repository           : /global/cscratch1/sd/aannabe/

 SHA1      : 2873118e99aab1bc19f5b6fc1784693c06d15c95
 NAME      : 2015.1.8
 ARCHNAME  : linux/x86_64
 FC        : /opt/cray/pe/craype/2.5.5/bin/ftn
 BLASLIB   : -Wl,-_start-group /opt/intel/compilers_and_libraries_2016.3.210/linux/mkl/lib/intel64/libmkl_intel_ilp64.a /opt/intel/compilers_and_libraries_2016.3.210/linux/mkl/lib/intel64/libmkl_intel_thread.a /opt/intel/compilers_and_libraries_2016.3.210/linux/mkl/lib/intel64/libmkl_core.a -Wl,-_end-group
 id        : lbl

 Nodes     nprocs
 nid00505     1

 Using customized tuning parameters: mindgm=8; mindgv=16; mindgc=4; mindgr=1; noblas=0; minvec=7
 default implementation of scratch files=df  

 ***,Ti
 memory,8,g
 gthresh,twoint=1.e-12
 
 gprint,basis,orbitals
 gexpec,ekin,pot
 
 angstrom
 geometry={
 1                                                                               ! Number of atoms
 Ti 0.0 0.0 0.0
 }
 
 basis={
 Including file /global/homes/a/aannabe/docs/totals/pps/Ti.pp
 Including file /global/homes/a/aannabe/docs/totals/basis/aug-cc-pVnZ/Ti_tz.basis
 }
 
 {hf
 wf,12,1,2
 occ,4,1,1,0,1,0,0,0
 open,3.1,4.1
 sym,1,1,1,3,2
 }
 scf(i)=energy
 
 _CC_NORM_MAX=2.0
  !NOTE: Perturbative MRCC works only with UHF reference. So, here we will trick MRCC by doing zero UHF iteration right after ROHF.
 
 {uhf
 wf,12,1,2
 occ,4,1,1,0,1,0,0,0
 open,3.1,4.1
 sym,1,1,1,3,2
 maxit,0
 }
 scf(i)=energy
 
 {mrcc,method=CCSDT(Q)
 orbital,ignore_error=1                                                          !Ignore the fact that UHF WF is not converged
 maxit,100
 core
 }
 posthf(i)=energy
 
 table,scf,posthf,ekin,pot
 save,3.csv,new
 
 

 Variables initialized (889), CPU time= 0.01 sec
 Commands  initialized (702), CPU time= 0.01 sec, 572 directives.
 Default parameters read. Elapsed time= 0.12 sec

 Checking input...
 Passed
1


                                         ***  PROGRAM SYSTEM MOLPRO  ***
                                       Copyright, TTI GmbH Stuttgart, 2015
                                    Version 2015.1 linked Sep  7 2016 23:09:38


 **********************************************************************************************************************************
 LABEL *   Ti                                                                            
  64 bit serial version                                                                  DATE: 15-Jun-18          TIME: 14:39:33  
 **********************************************************************************************************************************

 SHA1:             2873118e99aab1bc19f5b6fc1784693c06d15c95
 **********************************************************************************************************************************

 THRESHOLDS:

 ZERO    =  1.00D-12  ONEINT  =  1.00D-12  TWOINT  =  1.00D-12  PREFAC  =  1.00D-14  LOCALI  =  1.00D-09  EORDER  =  1.00D-04
 ENERGY  =  0.00D+00  ETEST   =  0.00D+00  EDENS   =  0.00D+00  THRDEDEF=  1.00D-06  GRADIENT=  1.00D-02  STEP    =  1.00D-03
 ORBITAL =  1.00D-05  CIVEC   =  1.00D-05  COEFF   =  1.00D-04  PRINTCI =  5.00D-02  PUNCHCI =  9.90D+01  OPTGRAD =  3.00D-04
 OPTENERG=  1.00D-06  OPTSTEP =  3.00D-04  THRGRAD =  1.00D-10  COMPRESS=  1.00D-11  VARMIN  =  1.00D-07  VARMAX  =  1.00D-03
 THRDOUB =  0.00D+00  THRDIV  =  1.00D-05  THRRED  =  1.00D-07  THRPSP  =  1.00D+00  THRDC   =  1.00D-10  THRCS   =  1.00D-10
 THRNRM  =  1.00D-08  THREQ   =  0.00D+00  THRDE   =  1.00D+00  THRREF  =  1.00D-05  SPARFAC =  1.00D+00  THRDLP  =  1.00D-07
 THRDIA  =  1.00D-10  THRDLS  =  1.00D-07  THRGPS  =  0.00D+00  THRKEX  =  0.00D+00  THRDIS  =  2.00D-01  THRVAR  =  1.00D-10
 THRLOC  =  1.00D-06  THRGAP  =  1.00D-06  THRLOCT = -1.00D+00  THRGAPT = -1.00D+00  THRORB  =  1.00D-06  THRMLTP =  0.00D+00
 THRCPQCI=  1.00D-10  KEXTA   =  0.00D+00  THRCOARS=  0.00D+00  SYMTOL  =  1.00D-06  GRADTOL =  1.00D-06  THROVL  =  1.00D-08
 THRORTH =  1.00D-08  GRID    =  1.00D-06  GRIDMAX =  1.00D-03  DTMAX   =  0.00D+00  THROCCDE=  1.00D-01  THROCCDE=  1.00D-01



 ZUNIT=ANG
 

Geometry recognized as XYZ


 Variable memory set to 8000000000 words,  buffer space   230000 words

 SETTING BASIS          =    USERDEF


 Recomputing integrals since basis changed


 Using spherical harmonics



 PROGRAM * SEWARD (Integral evaluation for generally contracted gaussian basis sets)     Author: Roland Lindh, 1990

 Geometry written to block  1 of record 700

 Orientation using atomic masses  
 Molecule type: Atom
 Symmetry elements: X,Y,Z
 Rotational constants:       0.0000000      0.0000000      0.0000000 GHz  (calculated with average atomic masses)

 Point group  D2h 



 ATOMIC COORDINATES

 NR  ATOM    CHARGE       X              Y              Z

   1  TI     12.00    0.000000000    0.000000000    0.000000000


          TI  CORE POTENTIAL

          d POTENTIAL

 POWERS             1              3              2              2
 EXPONENTIALS   18.41366       15.92292       13.65001       5.095552    
 COEFFICIENTS   12.00000       220.9639      -94.29026      9.7911425E-02

          s - d POTENTIAL

 POWERS             2              2
 EXPONENTIALS   12.70581       6.111786    
 COEFFICIENTS   173.9466       18.83768    

          p - d POTENTIAL

 POWERS             2              2
 EXPONENTIALS   12.64092       5.354374    
 COEFFICIENTS   111.4567       11.17703    


 BASIS DATA

   Nr Sym  Nuc  Type         Exponents   Contraction coefficients

    1.1 Ag    1  1s          68.910511     0.000616   -0.000156    0.000635   -0.001178    0.000000
    2.1 Ag                   33.720700    -0.007501    0.001966   -0.006468    0.011877    0.000000
    3.1 Ag                   18.159676     0.012218   -0.003994    0.023444   -0.047240    0.000000
    4.1 Ag                   12.419305     0.144739   -0.036377    0.038921   -0.050922    0.000000
    5.1 Ag                    7.532195    -0.328621    0.088593   -0.141180    0.237746    0.000000
                              3.504444    -0.317517    0.085630   -0.214765    0.403185    0.000000
                              1.910727     0.357422   -0.105993    0.320151   -0.790961    0.000000
                              0.888840     0.671406   -0.237421    0.451062   -1.102276    0.000000
                              0.447198     0.282226   -0.235359    0.855191    0.209446    0.000000
                              0.281192     0.038673   -0.012960   -1.209224    2.527352    0.000000
                              0.100258     0.004559    0.433582   -1.319481   -1.789041    0.000000
                              0.046525    -0.001565    0.577873    0.866517   -0.867842    0.000000
                              0.021840     0.000398    0.164360    0.618916    1.427395    1.000000
    6.1 Ag    1  1s           0.010000     1.000000
    7.1 Ag    1  3d0         77.434559     0.000022
                             27.708477     0.004218
                             12.914284     0.030087
                              6.062674     0.084821
                              2.863898     0.171110
                              1.386559     0.247451
                              0.677058     0.277310
                              0.329864     0.261077
                              0.159474     0.190336
                              0.076174     0.119385
                              0.028570     0.031297
    8.1 Ag    1  3d2+        77.434559     0.000022
                             27.708477     0.004218
                             12.914284     0.030087
                              6.062674     0.084821
                              2.863898     0.171110
                              1.386559     0.247451
                              0.677058     0.277310
                              0.329864     0.261077
                              0.159474     0.190336
                              0.076174     0.119385
                              0.028570     0.031297
    9.1 Ag    1  3d0         77.434559    -0.000025
                             27.708477    -0.004311
                             12.914284    -0.030913
                              6.062674    -0.088049
                              2.863898    -0.178330
                              1.386559    -0.234335
                              0.677058    -0.195775
                              0.329864     0.065872
                              0.159474     0.330536
                              0.076174     0.461229
                              0.028570     0.184273
   10.1 Ag    1  3d2+        77.434559    -0.000025
                             27.708477    -0.004311
                             12.914284    -0.030913
                              6.062674    -0.088049
                              2.863898    -0.178330
                              1.386559    -0.234335
                              0.677058    -0.195775
                              0.329864     0.065872
                              0.159474     0.330536
                              0.076174     0.461229
                              0.028570     0.184273
   11.1 Ag    1  3d0         77.434559     0.000010
                             27.708477     0.006187
                             12.914284     0.042630
                              6.062674     0.127524
                              2.863898     0.248289
                              1.386559     0.259761
                              0.677058    -0.070794
                              0.329864    -0.519396
                              0.159474    -0.373658
                              0.076174     0.455067
                              0.028570     0.489586
   12.1 Ag    1  3d2+        77.434559     0.000010
                             27.708477     0.006187
                             12.914284     0.042630
                              6.062674     0.127524
                              2.863898     0.248289
                              1.386559     0.259761
                              0.677058    -0.070794
                              0.329864    -0.519396
                              0.159474    -0.373658
                              0.076174     0.455067
                              0.028570     0.489586
   13.1 Ag    1  3d0         77.434559     0.000000
                             27.708477     0.000000
                             12.914284     0.000000
                              6.062674     0.000000
                              2.863898     0.000000
                              1.386559     0.000000
                              0.677058     0.000000
                              0.329864     0.000000
                              0.159474     0.000000
                              0.076174     0.000000
                              0.028570     1.000000
   14.1 Ag    1  3d2+        77.434559     0.000000
                             27.708477     0.000000
                             12.914284     0.000000
                              6.062674     0.000000
                              2.863898     0.000000
                              1.386559     0.000000
                              0.677058     0.000000
                              0.329864     0.000000
                              0.159474     0.000000
                              0.076174     0.000000
                              0.028570     1.000000
   15.1 Ag    1  3d0          0.014000     1.000000
   16.1 Ag    1  3d2+         0.014000     1.000000
   17.1 Ag    1  5g0          0.227422     1.000000
   18.1 Ag    1  5g4+         0.227422     1.000000
   19.1 Ag    1  5g2+         0.227422     1.000000
   20.1 Ag    1  5g0          0.707265     1.000000
   21.1 Ag    1  5g4+         0.707265     1.000000
   22.1 Ag    1  5g2+         0.707265     1.000000
    1.2 B3u   1  2px         84.914002     0.000093    0.000020    0.000019   -0.000257    0.000000
    2.2 B3u                  42.855051    -0.000836   -0.000049    0.000138    0.001725    0.000000
    3.2 B3u                  21.700131     0.008679   -0.000761   -0.004622   -0.012646    0.000000
    4.2 B3u                  12.214690    -0.011178   -0.000575    0.004465    0.029062    0.000000
    5.2 B3u                   8.319164    -0.077767    0.018284    0.065760    0.058979    0.000000
                              4.091071    -0.006113   -0.005943   -0.018927    0.030806    0.000000
                              2.286543     0.271828   -0.043212   -0.222524   -0.524373    0.000000
                              1.159810     0.459585   -0.112513   -0.523890   -0.720968    0.000000
                              0.591343     0.315900   -0.052073   -0.071277    1.023204    0.000000
                              0.312862     0.071683   -0.092263    0.812712    1.973874    0.000000
                              0.184828     0.010541    0.243946    0.625498   -2.805092    0.000000
                              0.068590     0.000045    0.413101   -0.812189    0.607954    0.000000
                              0.026791    -0.000837    0.543985   -0.185796    0.447653    1.000000
    6.2 B3u   1  2px          0.013000     1.000000
    7.2 B3u   1  4f1+         0.066981     1.000000
    8.2 B3u   1  4f3+         0.066981     1.000000
    9.2 B3u   1  4f1+         0.291553     1.000000
   10.2 B3u   1  4f3+         0.291553     1.000000
   11.2 B3u   1  4f1+         1.269061     1.000000
   12.2 B3u   1  4f3+         1.269061     1.000000
    1.3 B2u   1  2py         84.914002     0.000093    0.000020    0.000019   -0.000257    0.000000
    2.3 B2u                  42.855051    -0.000836   -0.000049    0.000138    0.001725    0.000000
    3.3 B2u                  21.700131     0.008679   -0.000761   -0.004622   -0.012646    0.000000
    4.3 B2u                  12.214690    -0.011178   -0.000575    0.004465    0.029062    0.000000
    5.3 B2u                   8.319164    -0.077767    0.018284    0.065760    0.058979    0.000000
                              4.091071    -0.006113   -0.005943   -0.018927    0.030806    0.000000
                              2.286543     0.271828   -0.043212   -0.222524   -0.524373    0.000000
                              1.159810     0.459585   -0.112513   -0.523890   -0.720968    0.000000
                              0.591343     0.315900   -0.052073   -0.071277    1.023204    0.000000
                              0.312862     0.071683   -0.092263    0.812712    1.973874    0.000000
                              0.184828     0.010541    0.243946    0.625498   -2.805092    0.000000
                              0.068590     0.000045    0.413101   -0.812189    0.607954    0.000000
                              0.026791    -0.000837    0.543985   -0.185796    0.447653    1.000000
    6.3 B2u   1  2py          0.013000     1.000000
    7.3 B2u   1  4f1-         0.066981     1.000000
    8.3 B2u   1  4f3-         0.066981     1.000000
    9.3 B2u   1  4f1-         0.291553     1.000000
   10.3 B2u   1  4f3-         0.291553     1.000000
   11.3 B2u   1  4f1-         1.269061     1.000000
   12.3 B2u   1  4f3-         1.269061     1.000000
    1.4 B1g   1  3d2-        77.434559     0.000022   -0.000025    0.000010    0.000000
    2.4 B1g                  27.708477     0.004218   -0.004311    0.006187    0.000000
    3.4 B1g                  12.914284     0.030087   -0.030913    0.042630    0.000000
    4.4 B1g                   6.062674     0.084821   -0.088049    0.127524    0.000000
                              2.863898     0.171110   -0.178330    0.248289    0.000000
                              1.386559     0.247451   -0.234335    0.259761    0.000000
                              0.677058     0.277310   -0.195775   -0.070794    0.000000
                              0.329864     0.261077    0.065872   -0.519396    0.000000
                              0.159474     0.190336    0.330536   -0.373658    0.000000
                              0.076174     0.119385    0.461229    0.455067    0.000000
                              0.028570     0.031297    0.184273    0.489586    1.000000
    5.4 B1g   1  3d2-         0.014000     1.000000
    6.4 B1g   1  5g2-         0.227422     1.000000
    7.4 B1g   1  5g4-         0.227422     1.000000
    8.4 B1g   1  5g2-         0.707265     1.000000
    9.4 B1g   1  5g4-         0.707265     1.000000
    1.5 B1u   1  2pz         84.914002     0.000093    0.000020    0.000019   -0.000257    0.000000
    2.5 B1u                  42.855051    -0.000836   -0.000049    0.000138    0.001725    0.000000
    3.5 B1u                  21.700131     0.008679   -0.000761   -0.004622   -0.012646    0.000000
    4.5 B1u                  12.214690    -0.011178   -0.000575    0.004465    0.029062    0.000000
    5.5 B1u                   8.319164    -0.077767    0.018284    0.065760    0.058979    0.000000
                              4.091071    -0.006113   -0.005943   -0.018927    0.030806    0.000000
                              2.286543     0.271828   -0.043212   -0.222524   -0.524373    0.000000
                              1.159810     0.459585   -0.112513   -0.523890   -0.720968    0.000000
                              0.591343     0.315900   -0.052073   -0.071277    1.023204    0.000000
                              0.312862     0.071683   -0.092263    0.812712    1.973874    0.000000
                              0.184828     0.010541    0.243946    0.625498   -2.805092    0.000000
                              0.068590     0.000045    0.413101   -0.812189    0.607954    0.000000
                              0.026791    -0.000837    0.543985   -0.185796    0.447653    1.000000
    6.5 B1u   1  2pz          0.013000     1.000000
    7.5 B1u   1  4f0          0.066981     1.000000
    8.5 B1u   1  4f2+         0.066981     1.000000
    9.5 B1u   1  4f0          0.291553     1.000000
   10.5 B1u   1  4f2+         0.291553     1.000000
   11.5 B1u   1  4f0          1.269061     1.000000
   12.5 B1u   1  4f2+         1.269061     1.000000
    1.6 B2g   1  3d1+        77.434559     0.000022   -0.000025    0.000010    0.000000
    2.6 B2g                  27.708477     0.004218   -0.004311    0.006187    0.000000
    3.6 B2g                  12.914284     0.030087   -0.030913    0.042630    0.000000
    4.6 B2g                   6.062674     0.084821   -0.088049    0.127524    0.000000
                              2.863898     0.171110   -0.178330    0.248289    0.000000
                              1.386559     0.247451   -0.234335    0.259761    0.000000
                              0.677058     0.277310   -0.195775   -0.070794    0.000000
                              0.329864     0.261077    0.065872   -0.519396    0.000000
                              0.159474     0.190336    0.330536   -0.373658    0.000000
                              0.076174     0.119385    0.461229    0.455067    0.000000
                              0.028570     0.031297    0.184273    0.489586    1.000000
    5.6 B2g   1  3d1+         0.014000     1.000000
    6.6 B2g   1  5g1+         0.227422     1.000000
    7.6 B2g   1  5g3+         0.227422     1.000000
    8.6 B2g   1  5g1+         0.707265     1.000000
    9.6 B2g   1  5g3+         0.707265     1.000000
    1.7 B3g   1  3d1-        77.434559     0.000022   -0.000025    0.000010    0.000000
    2.7 B3g                  27.708477     0.004218   -0.004311    0.006187    0.000000
    3.7 B3g                  12.914284     0.030087   -0.030913    0.042630    0.000000
    4.7 B3g                   6.062674     0.084821   -0.088049    0.127524    0.000000
                              2.863898     0.171110   -0.178330    0.248289    0.000000
                              1.386559     0.247451   -0.234335    0.259761    0.000000
                              0.677058     0.277310   -0.195775   -0.070794    0.000000
                              0.329864     0.261077    0.065872   -0.519396    0.000000
                              0.159474     0.190336    0.330536   -0.373658    0.000000
                              0.076174     0.119385    0.461229    0.455067    0.000000
                              0.028570     0.031297    0.184273    0.489586    1.000000
    5.7 B3g   1  3d1-         0.014000     1.000000
    6.7 B3g   1  5g1-         0.227422     1.000000
    7.7 B3g   1  5g3-         0.227422     1.000000
    8.7 B3g   1  5g1-         0.707265     1.000000
    9.7 B3g   1  5g3-         0.707265     1.000000
    1.8 Au    1  4f2-         0.066981     1.000000
    2.8 Au    1  4f2-         0.291553     1.000000
    3.8 Au    1  4f2-         1.269061     1.000000

 NUCLEAR CHARGE:                   12
 NUMBER OF PRIMITIVE AOS:         188
 NUMBER OF SYMMETRY AOS:          155
 NUMBER OF CONTRACTIONS:           88   (  22Ag  +  12B3u +  12B2u +   9B1g +  12B1u +   9B2g +   9B3g +   3Au  )
 NUMBER OF CORE ORBITALS:           4   (   1Ag  +   1B3u +   1B2u +   0B1g +   1B1u +   0B2g +   0B3g +   0Au  )
 NUMBER OF VALENCE ORBITALS:        6   (   3Ag  +   0B3u +   0B2u +   1B1g +   0B1u +   1B2g +   1B3g +   0Au  )


 NUCLEAR REPULSION ENERGY    0.00000000

 EXTRA SYMMETRY OF AOS IN SYMMETRY 1:   1 1 1 1 1 1 2 3 2 3   2 3 2 3 2 3 4 5 6 4   5 6
 EXTRA SYMMETRY OF AOS IN SYMMETRY 2:   1 1 1 1 1 1 2 3 2 3   2 3
 EXTRA SYMMETRY OF AOS IN SYMMETRY 3:   1 1 1 1 1 1 2 3 2 3   2 3
 EXTRA SYMMETRY OF AOS IN SYMMETRY 4:   1 1 1 1 1 2 3 2 3
 EXTRA SYMMETRY OF AOS IN SYMMETRY 5:   1 1 1 1 1 1 2 3 2 3   2 3
 EXTRA SYMMETRY OF AOS IN SYMMETRY 6:   1 1 1 1 1 2 3 2 3
 EXTRA SYMMETRY OF AOS IN SYMMETRY 7:   1 1 1 1 1 2 3 2 3

 Eigenvalues of metric

         1 0.228E-02 0.596E-01 0.596E-01 0.106E+00 0.413E+00 0.413E+00 0.569E+00 0.569E+00
         2 0.128E-01 0.277E+00 0.551E+00 0.551E+00 0.715E+00 0.967E+00 0.976E+00 0.976E+00
         3 0.128E-01 0.277E+00 0.551E+00 0.551E+00 0.715E+00 0.967E+00 0.976E+00 0.976E+00
         4 0.596E-01 0.413E+00 0.569E+00 0.569E+00 0.983E+00 0.102E+01 0.143E+01 0.143E+01
         5 0.128E-01 0.277E+00 0.551E+00 0.551E+00 0.715E+00 0.967E+00 0.976E+00 0.976E+00
         6 0.596E-01 0.413E+00 0.569E+00 0.569E+00 0.983E+00 0.102E+01 0.143E+01 0.143E+01
         7 0.596E-01 0.413E+00 0.569E+00 0.569E+00 0.983E+00 0.102E+01 0.143E+01 0.143E+01
         8 0.551E+00 0.976E+00 0.147E+01


 Contracted 2-electron integrals neglected if value below      1.0D-12
 AO integral compression algorithm  1   Integral accuracy      1.0D-12

     7.864 MB (compressed) written to integral file ( 51.2%)


 NUMBER OF SORTED TWO-ELECTRON INTEGRALS:    1019164.     BUFFER LENGTH:  32768
 NUMBER OF SEGMENTS:   1  SEGMENT LENGTH:    1019164      RECORD LENGTH: 524288

 Memory used in sort:       1.58 MW

 SORT1 READ     1855900. AND WROTE      770922. INTEGRALS IN      3 RECORDS. CPU TIME:     0.05 SEC, REAL TIME:     0.16 SEC
 SORT2 READ      770922. AND WROTE     1019164. INTEGRALS IN     30 RECORDS. CPU TIME:     0.06 SEC, REAL TIME:     0.15 SEC

 FILE SIZES:   FILE 1:    27.1 MBYTE,  FILE 4:    12.6 MBYTE,   TOTAL:     39.8 MBYTE

 OPERATOR DM      FOR CENTER  0  COORDINATES:    0.000000    0.000000    0.000000
 OPERATOR EKIN    FOR CENTER  0  COORDINATES:    0.000000    0.000000    0.000000
 OPERATOR POT     FOR CENTER  0  COORDINATES:    0.000000    0.000000    0.000000


 **********************************************************************************************************************************
 DATASETS  * FILE   NREC   LENGTH (MB)   RECORD NAMES
              1      20       23.50       500      610      700      900      950      970     1000      129      960     1100   
                                          VAR    BASINP    GEOM    SYMINP    ZMAT    AOBASIS   BASIS     P2S    ABASIS      S 
                                         1400     1410     1420     1200     1210     1080     1600     1650     1300     1700   
                                         EKIN       V       ECP      H0       H01     AOSYM     SMH    MOLCAS    ERIS     OPER   

 PROGRAMS   *        TOTAL       INT
 CPU TIMES  *         3.44      3.34
 REAL TIME  *        15.82 SEC
 DISK USED  *        40.06 MB      
 **********************************************************************************************************************************


 PROGRAM * RHF-SCF (OPEN SHELL)       Authors: W. Meyer, H.-J. Werner


 NUMBER OF ELECTRONS:       7+    5-    SPACE SYMMETRY=1    SPIN SYMMETRY: Triplet 
 CONVERGENCE THRESHOLDS:    1.00E-05 (Density)    1.00E-07 (Energy)
 MAX. NUMBER OF ITERATIONS:       60
 INTERPOLATION TYPE:            DIIS
 INTERPOLATION STEPS:              2 (START)      1 (STEP)
 LEVEL SHIFTS:                 -0.60 (CLOSED) -0.30 (OPEN) 


 Singly occupied orbitals:      3.1       4.1
 
 Extra symmetries of mos in symmetry 1:   1   1   3   2

   Atom=TI basis=ECP10MDF_GUESS    lmin=0  lmax=2

 Orbital guess generated from atomic densities. Full valence occupancy:    4   1   1   1   1   1   1   0


 Molecular orbital dump at record        2100.2

 ITERATION    DDIFF          GRAD             ENERGY        2-EL.EN.            DIPOLE MOMENTS         DIIS   ORB.
    1      0.000D+00      0.000D+00       -56.53522712     59.546026    0.00000    0.00000    0.00000    0    start
    2      0.000D+00      0.459D-01       -57.44838242     83.011288    0.00000    0.00000    0.00000    1    diag,B
    3      0.940D-01      0.409D-01       -57.55498009     81.046864    0.00000    0.00000    0.00000    2    diag,B
    4      0.116D-01      0.189D-01       -57.59761679     79.871772    0.00000    0.00000    0.00000    3    diag,B
    5      0.108D-01      0.543D-02       -57.60763809     79.457714    0.00000    0.00000    0.00000    4    diag,B
    6      0.787D-02      0.162D-02       -57.60899409     79.351027    0.00000    0.00000    0.00000    5    diag,B
    7      0.372D-02      0.102D-02       -57.60930949     79.224767    0.00000    0.00000    0.00000    6    fixocc
    8      0.191D-02      0.380D-03       -57.60935563     79.175617    0.00000    0.00000    0.00000    7    diag,B
    9      0.573D-03      0.156D-03       -57.60936860     79.125979    0.00000    0.00000    0.00000    8    diag,B
   10      0.716D-03      0.124D-03       -57.60937184     79.137745    0.00000    0.00000    0.00000    9    orth
   11      0.432D-03      0.275D-04       -57.60937226     79.139411    0.00000    0.00000    0.00000    9    diag,B
   12      0.141D-03      0.735D-05       -57.60937228     79.140903    0.00000    0.00000    0.00000    9    diag,B
   13      0.245D-04      0.199D-05       -57.60937228     79.140766    0.00000    0.00000    0.00000    9    diag,B
   14      0.622D-05      0.514D-06       -57.60937228     79.140838    0.00000    0.00000    0.00000    0    orth

 Final alpha occupancy:   4   1   1   0   1   0   0   0
 Final beta  occupancy:   2   1   1   0   1   0   0   0

 !RHF STATE 1.1 Energy                -57.609372282792
 Nuclear energy                         0.00000000
 One-electron energy                  -97.17979131
 Two-electron energy                   39.57041903
 Virial quotient                       -2.22692071
 !RHF STATE 1.1 Dipole moment           0.00000000     0.00000000     0.00000000
 Dipole moment /Debye                   0.00000000     0.00000000     0.00000000
 

 !RHF expec          <1.1|EKIN|1.1>    25.869521093603
 
 !RHF expec           <1.1|POT|1.1>   -10.954859995878

 ELECTRON ORBITALS
 =================


   Orb  Occ    Energy  Couls-En    Coefficients

                                   1 1s      1 1s      1 1s      1 1s      1 1s      1 1s      1 3d0     1 3d2+    1 3d0     1 3d2+ 
                                   1 3d0     1 3d2+    1 3d0     1 3d2+    1 3d0     1 3d2+    1 5g0     1 5g4+    1 5g2+    1 5g0  
                                   1 5g4+    1 5g2+ 

   1.1   2    -2.9282  -13.2774  1.000111  0.000706 -0.000049  0.000405 -0.000425 -0.000162  0.000000 -0.000000 -0.000000  0.000000
                                -0.000000  0.000000  0.000000 -0.000000 -0.000000  0.000000  0.000145  0.000123 -0.000000  0.001378
                                 0.001165  0.000000

   2.1   2    -0.2218   -3.7509 -0.000285  0.999816  0.002038  0.000028  0.000051  0.000229 -0.000000 -0.000000  0.000000  0.000000
                                 0.000000  0.000000 -0.000000  0.000000 -0.000000 -0.000000 -0.000543 -0.000459  0.000000  0.000233
                                 0.000197  0.000000

   3.1   +    -0.4401   -7.5112 -0.000000 -0.000000 -0.000000 -0.000000  0.000000 -0.000000  0.002887  0.987520 -0.000483 -0.165291
                                -0.000054 -0.018428  0.000040  0.013587 -0.000005 -0.001818  0.000003 -0.000004 -0.001756  0.000010
                                -0.000012 -0.005563

   4.1   +    -0.4401   -7.5112 -0.000000 -0.000000 -0.000000 -0.000000  0.000000 -0.000000  0.987520 -0.002887 -0.165291  0.000483
                                -0.018428  0.000054  0.013587 -0.000040 -0.001818  0.000005  0.001133 -0.001341  0.000005  0.003591
                                -0.004249  0.000016

                                   1 2px     1 2px     1 2px     1 2px     1 2px     1 2px     1 4f1+    1 4f3+    1 4f1+    1 4f3+ 
                                   1 4f1+    1 4f3+ 

   1.2   2    -1.8098  -11.0233  1.002851  0.057166  0.029402  0.012221 -0.033459  0.001322  0.000132 -0.000171 -0.002916  0.003765
                                -0.004332  0.005593

                                   1 2py     1 2py     1 2py     1 2py     1 2py     1 2py     1 4f1-    1 4f3-    1 4f1-    1 4f3- 
                                   1 4f1-    1 4f3- 

   1.3   2    -1.8098  -11.0233  1.002851  0.057166  0.029402  0.012221 -0.033459  0.001322  0.000132  0.000171 -0.002916 -0.003765
                                -0.004332 -0.005593

                                   1 2pz     1 2pz     1 2pz     1 2pz     1 2pz     1 2pz     1 4f0     1 4f2+    1 4f0     1 4f2+ 
                                   1 4f0     1 4f2+ 

   1.5   2    -1.8098  -11.0233  1.002851  0.057166  0.029402  0.012221 -0.033459  0.001322 -0.000216  0.000000  0.004762 -0.000000
                                 0.007074  0.000000

 HOMO      4.1    -0.440149 =     -11.9771eV
 LUMO      2.2     0.015052 =       0.4096eV
 LUMO-HOMO         0.455201 =      12.3866eV


 **********************************************************************************************************************************
 DATASETS  * FILE   NREC   LENGTH (MB)   RECORD NAMES
              1      20       23.50       500      610      700      900      950      970     1000      129      960     1100   
                                          VAR    BASINP    GEOM    SYMINP    ZMAT    AOBASIS   BASIS     P2S    ABASIS      S 
                                         1400     1410     1420     1200     1210     1080     1600     1650     1300     1700   
                                         EKIN       V       ECP      H0       H01     AOSYM     SMH    MOLCAS    ERIS     OPER   

              2       4        2.79       700     1000      520     2100   
                                         GEOM     BASIS   MCVARS     RHF  

 PROGRAMS   *        TOTAL        HF       INT
 CPU TIMES  *         3.59      0.15      3.34
 REAL TIME  *        16.10 SEC
 DISK USED  *        40.06 MB      
 **********************************************************************************************************************************
 SETTING SCF(I)         =       -57.60937228  AU                              
 SETTING _CC_NORM_MAX   =         2.00000000                                  


 PROGRAM * UHF-SCF       Authors: W. Meyer, H.-J. Werner


 NUMBER OF ELECTRONS:       7+    5-    SPACE SYMMETRY=1    SPIN SYMMETRY: Triplet 
 CONVERGENCE THRESHOLDS:    1.00E-05 (Density)    1.00E-07 (Energy)
 MAX. NUMBER OF ITERATIONS:        0
 INTERPOLATION TYPE:            DIIS
 INTERPOLATION STEPS:              2 (START)      1 (STEP)
 LEVEL SHIFTS:                  0.20 (ALPHA)   0.20 (BETA) 


 Singly occupied orbitals:      3.1       4.1
 
 Extra symmetries of mos in symmetry 1:   1   1   3   2
 Molecular orbitals read from record     2100.2  Type=RHF/CANONICAL (state 1.1)

 Molecular orbital dump at record        2200.2

 Initial alpha occupation   4   1   1   0   1   0   0   0
 Initial beta  occupation   2   1   1   0   1   0   0   0

 ITERATION    DDIFF          GRAD             ENERGY        2-EL.EN.            DIPOLE MOMENTS         DIIS
    1      0.000D+00      0.000D+00       -57.60937228     79.140838    0.00000    0.00000    0.00000    0
 
 Final alpha occupancy:   4   1   1   0   1   0   0   0
 Final beta  occupancy:   2   1   1   0   1   0   0   0

 !UHF STATE 1.1 Energy                -57.609372282792
 Nuclear energy                         0.00000000
 One-electron energy                  -97.17979131
 Two-electron energy                   39.57041903
 Virial quotient                       -2.22692071
 !UHF STATE 1.1 Dipole moment           0.00000000     0.00000000     0.00000000
 Dipole moment /Debye                   0.00000000     0.00000000     0.00000000
 

 !UHF expec          <1.1|EKIN|1.1>    25.869521093603
 
 !UHF expec           <1.1|POT|1.1>   -10.954859995878

 ELECTRON ORBITALS FOR POSITIVE SPIN
 ===================================


   Orb  Occ    Energy  Couls-En    Coefficients

                                   1 1s      1 1s      1 1s      1 1s      1 1s      1 1s      1 3d0     1 3d2+    1 3d0     1 3d2+ 
                                   1 3d0     1 3d2+    1 3d0     1 3d2+    1 3d0     1 3d2+    1 5g0     1 5g4+    1 5g2+    1 5g0  
                                   1 5g4+    1 5g2+ 

   1.1   +    -2.9282  -13.2774  1.000111  0.000706 -0.000049  0.000405 -0.000425 -0.000162  0.000000 -0.000000 -0.000000  0.000000
                                -0.000000  0.000000  0.000000 -0.000000 -0.000000  0.000000  0.000145  0.000123 -0.000000  0.001378
                                 0.001165  0.000000

   2.1   +    -0.2218   -3.7509 -0.000285  0.999816  0.002038  0.000028  0.000051  0.000229 -0.000000 -0.000000  0.000000  0.000000
                                 0.000000  0.000000 -0.000000  0.000000 -0.000000 -0.000000 -0.000543 -0.000459  0.000000  0.000233
                                 0.000197  0.000000

   3.1   +    -0.4401   -7.5112 -0.000000 -0.000000 -0.000000 -0.000000  0.000000 -0.000000  0.002887  0.987520 -0.000483 -0.165291
                                -0.000054 -0.018428  0.000040  0.013587 -0.000005 -0.001818  0.000003 -0.000004 -0.001756  0.000010
                                -0.000012 -0.005563

   4.1   +    -0.4401   -7.5112 -0.000000 -0.000000 -0.000000 -0.000000  0.000000 -0.000000  0.987520 -0.002887 -0.165291  0.000483
                                -0.018428  0.000054  0.013587 -0.000040 -0.001818  0.000005  0.001133 -0.001341  0.000005  0.003591
                                -0.004249  0.000016

                                   1 2px     1 2px     1 2px     1 2px     1 2px     1 2px     1 4f1+    1 4f3+    1 4f1+    1 4f3+ 
                                   1 4f1+    1 4f3+ 

   1.2   +    -1.8098  -11.0233  1.002851  0.057166  0.029402  0.012221 -0.033459  0.001322  0.000132 -0.000171 -0.002916  0.003765
                                -0.004332  0.005593

                                   1 2py     1 2py     1 2py     1 2py     1 2py     1 2py     1 4f1-    1 4f3-    1 4f1-    1 4f3- 
                                   1 4f1-    1 4f3- 

   1.3   +    -1.8098  -11.0233  1.002851  0.057166  0.029402  0.012221 -0.033459  0.001322  0.000132  0.000171 -0.002916 -0.003765
                                -0.004332 -0.005593

                                   1 2pz     1 2pz     1 2pz     1 2pz     1 2pz     1 2pz     1 4f0     1 4f2+    1 4f0     1 4f2+ 
                                   1 4f0     1 4f2+ 

   1.5   +    -1.8098  -11.0233  1.002851  0.057166  0.029402  0.012221 -0.033459  0.001322 -0.000216  0.000000  0.004762 -0.000000
                                 0.007074  0.000000

 ELECTRON ORBITALS FOR NEGATIVE SPIN
 ===================================


   Orb  Occ    Energy  Couls-En    Coefficients

                                   1 1s      1 1s      1 1s      1 1s      1 1s      1 1s      1 3d0     1 3d2+    1 3d0     1 3d2+ 
                                   1 3d0     1 3d2+    1 3d0     1 3d2+    1 3d0     1 3d2+    1 5g0     1 5g4+    1 5g2+    1 5g0  
                                   1 5g4+    1 5g2+ 

   1.1   -    -2.9282  -13.2774  1.000111  0.000706 -0.000049  0.000405 -0.000425 -0.000162  0.000000 -0.000000 -0.000000  0.000000
                                -0.000000  0.000000  0.000000 -0.000000 -0.000000  0.000000  0.000145  0.000123 -0.000000  0.001378
                                 0.001165  0.000000

   2.1   -    -0.2218   -3.7509 -0.000285  0.999816  0.002038  0.000028  0.000051  0.000229 -0.000000 -0.000000  0.000000  0.000000
                                 0.000000  0.000000 -0.000000  0.000000 -0.000000 -0.000000 -0.000543 -0.000459  0.000000  0.000233
                                 0.000197  0.000000

                                   1 2px     1 2px     1 2px     1 2px     1 2px     1 2px     1 4f1+    1 4f3+    1 4f1+    1 4f3+ 
                                   1 4f1+    1 4f3+ 

   1.2   -    -1.8098  -11.0233  1.002851  0.057166  0.029402  0.012221 -0.033459  0.001322  0.000132 -0.000171 -0.002916  0.003765
                                -0.004332  0.005593

                                   1 2py     1 2py     1 2py     1 2py     1 2py     1 2py     1 4f1-    1 4f3-    1 4f1-    1 4f3- 
                                   1 4f1-    1 4f3- 

   1.3   -    -1.8098  -11.0233  1.002851  0.057166  0.029402  0.012221 -0.033459  0.001322  0.000132  0.000171 -0.002916 -0.003765
                                -0.004332 -0.005593

                                   1 2pz     1 2pz     1 2pz     1 2pz     1 2pz     1 2pz     1 4f0     1 4f2+    1 4f0     1 4f2+ 
                                   1 4f0     1 4f2+ 

   1.5   -    -1.8098  -11.0233  1.002851  0.057166  0.029402  0.012221 -0.033459  0.001322 -0.000216  0.000000  0.004762 -0.000000
                                 0.007074  0.000000

 HOMO     -2.1    -0.221756 =      -6.0343eV
 LUMO     -3.1    -0.440149 =     -11.9771eV
 LUMO-HOMO        -0.218393 =      -5.9428eV

 EXPECTATION VALUE OF S**2:             2.00000000

 Occupation number threshold for canonical orbitals:  1.999000 (occupied),  0.001000 (virtual)

 Number of pseudo-canonical orbitals per symmetry:    2   1   1   0   1   0   0   0
 Number of active natural orbitals per symmetry:      2   0   0   0   0   0   0   0

 NATURAL CHARGE ORBITALS
 =======================


   Orb     Occ        Energy       Coefficients

                                   1 1s      1 1s      1 1s      1 1s      1 1s      1 1s      1 3d0     1 3d2+    1 3d0     1 3d2+ 
                                   1 3d0     1 3d2+    1 3d0     1 3d2+    1 3d0     1 3d2+    1 5g0     1 5g4+    1 5g2+    1 5g0  
                                   1 5g4+    1 5g2+ 

   1.1  2.00000    -2.928151     1.000111  0.000706 -0.000049  0.000405 -0.000425 -0.000162  0.000000 -0.000000 -0.000000  0.000000
                                -0.000000  0.000000  0.000000 -0.000000 -0.000000  0.000000  0.000145  0.000123 -0.000000  0.001378
                                 0.001165  0.000000

   2.1  2.00000    -0.221755     0.000285 -0.999816 -0.002038 -0.000028 -0.000051 -0.000229  0.000000  0.000000 -0.000000 -0.000000
                                -0.000000 -0.000000  0.000000 -0.000000  0.000000  0.000000  0.000543  0.000459 -0.000000 -0.000233
                                -0.000197 -0.000000

   3.1  1.00000    -0.087930    -0.000000 -0.000000 -0.000000 -0.000000  0.000000 -0.000000  0.116422  0.980638 -0.019487 -0.164139
                                -0.002173 -0.018300  0.001602  0.013492 -0.000214 -0.001806  0.000134 -0.000158 -0.001743  0.000423
                                -0.000501 -0.005524

   4.1  1.00000    -0.087930    -0.000000 -0.000000 -0.000000 -0.000000  0.000000 -0.000000  0.980638 -0.116422 -0.164139  0.019487
                                -0.018300  0.002173  0.013492 -0.001602 -0.001806  0.000214  0.001125 -0.001331  0.000207  0.003566
                                -0.004219  0.000656

                                   1 2px     1 2px     1 2px     1 2px     1 2px     1 2px     1 4f1+    1 4f3+    1 4f1+    1 4f3+ 
                                   1 4f1+    1 4f3+ 

   1.2  2.00000    -1.809812     1.002851  0.057166  0.029402  0.012221 -0.033459  0.001322  0.000132 -0.000171 -0.002916  0.003765
                                -0.004332  0.005593

                                   1 2py     1 2py     1 2py     1 2py     1 2py     1 2py     1 4f1-    1 4f3-    1 4f1-    1 4f3- 
                                   1 4f1-    1 4f3- 

   1.3  2.00000    -1.809812     1.002851  0.057166  0.029402  0.012221 -0.033459  0.001322  0.000132  0.000171 -0.002916 -0.003765
                                -0.004332 -0.005593

                                   1 2pz     1 2pz     1 2pz     1 2pz     1 2pz     1 2pz     1 4f0     1 4f2+    1 4f0     1 4f2+ 
                                   1 4f0     1 4f2+ 

   1.5  2.00000    -1.809812     1.002851  0.057166  0.029402  0.012221 -0.033459  0.001322 -0.000216 -0.000000  0.004762  0.000000
                                 0.007074  0.000000

 Natural orbitals saved to record    2200.2 (Orbital set 3)

 Orbital spaces for UNO-CAS (Min. occupation: 0.020  Max. occupation: 1.980):

 Closed:        2   1   1   0   1   0   0   0
 Active:        2   0   0   0   0   0   0   0

 No convergence



 **********************************************************************************************************************************
 DATASETS  * FILE   NREC   LENGTH (MB)   RECORD NAMES
              1      20       23.50       500      610      700      900      950      970     1000      129      960     1100   
                                          VAR    BASINP    GEOM    SYMINP    ZMAT    AOBASIS   BASIS     P2S    ABASIS      S 
                                         1400     1410     1420     1200     1210     1080     1600     1650     1300     1700   
                                         EKIN       V       ECP      H0       H01     AOSYM     SMH    MOLCAS    ERIS     OPER   

              2       5        5.35       700     1000      520     2100     2200   
                                         GEOM     BASIS   MCVARS     RHF      UHF  

 PROGRAMS   *        TOTAL       UHF        HF       INT
 CPU TIMES  *         3.62      0.03      0.15      3.34
 REAL TIME  *        16.21 SEC
 DISK USED  *        40.06 MB      
 **********************************************************************************************************************************
 SETTING SCF(I)         =       -57.60937228  AU                              


 PROGRAM * MRCC (General Multireference Coupled Cluster)    Author: M. Kallay, 2000-2005

 ***  Initialisation ***

   0 Spin projections
 
 Molecular orbitals read from record     2200.2  Type=UHF/ALPHA (state 1.1)

 ?Warning: UHF not converged
 Molecular orbitals read from record     2200.2  Type=UHF/BETA (state 1.1)

 ?Warning: UHF not converged
 
 Frozen orbitals:              0 (  0  0  0  0  0  0  0  0)
 Active orbitals:             88 ( 22 12 12  9 12  9  9  3)
 Active electrons:            12
 Spin quantum number:          1.0

 Transformed integrals will be written to file mrcc_32456/fort.55

 Load integrals                3.7 sec
 Transform integrals           4.3 sec
 Storage for integrals:        5889086
 Remaining memory:           *********

 Core energy:               0.00000000
 
 MRCC Input:
     4     0     0     0     3     0     0     1     0     0     0     1     1     0     0     7     0     0   0.000     0   64000
  ex.lev,nsing,ntrip, rest,method,dens,conver,symm, diag, CS ,spatial, HF, ndoub,nacto,nactv, tol, maxex, sacc, freq,  dboc,   mem
  2  2  1  1  0  0  0  0  0  0  0  0  0  0  0  0  0  0  0  0  0  0  2  0  0  0  0  0  0  0  0  0  0  0  2  0  0  0  0  0  0  0  0  0  0  0  0  0  0  0  0  0  0  0  0  2  0  0  0  0  0  0  0  0  0  0  0  0  0  0  0  0  0  0  0  0  0  0  0  0  0  0  0  0  0  0  0  0
 MRCC Input end
 Variable memory released
 MRCC now being run, temporary output in /global/cscratch1/sd/aannabe/mrcc_32456/mrcc.out
 **********************************************************************
                          MRCC program system
 **********************************************************************

                              Written by
  Mihaly Kallay, Zoltan Rolik, Jozsef Csontos, Peter Nagy, Gyula Samu,
      David Mester, Jozsef Csoka, Bernat Szabo, Istvan Ladjanszki,
       Lorant Szegedy, Bence Ladoczki, Klara Petrov, Mate Farkas,
                    Pal D. Mezei, and Bence Hegely

        Department of Physical Chemistry and Materials Science
            Budapest University of Technology and Economics
                  Budapest P.O.Box 91, H-1521 Hungary

                              www.mrcc.hu

                       Release date: May 23, 2018

 ************************ 2018-06-15 14:41:13 *************************
 Executing goldstone...

 Generation of CC equations in terms of H and T...
 Generation of antisymmetrized Goldstone diagrams...
 Number of diagrams in T^1 equations:    15
 Number of diagrams in T^2 equations:    38
 Number of diagrams in T^3 equations:    49
 Number of diagrams in T^4 equations:     5
 Translation of diagrams to factorized equations...
 Optimizing intermediate calculation...
 Number of floating-point operations per iteration step:   1.7130E+12
 Probable CPU time per iteration step (hours):     17.13
 Required memory (Mbytes):   13714.1
 Number of intermediates:                                  80
 Number of intermediates to be stored:                     31
 Length of intermediate file (Mbytes):     164.1

 ************************ 2018-06-15 14:41:13 *************************
 Executing xmrcc...

 **********************************************************************
 CC(3)(4) calculation


 Allocation of****** Mbytes of memory...
 Number of spinorbitals:                   176
 Number of alpha electrons:                        7
 Number of beta electrons:                         5
 Spin multiplicity:                     2
 z-component of spin:  1.0
 Spatial symmetry:                      1
 Convergence criterion:  1.0E-07
 Construction of occupation graphs...
 Number of                     0 -fold excitations:                      1
 Number of                     1 -fold excitations:                    178
 Number of                     2 -fold excitations:                  44443
 Number of                     3 -fold excitations:                6458622
 Total number of configurations:                6503244
 Calculation of coupling coefficients...
 Length of intermediate file (Mbytes):     122.4

 ======================================================================

 Spin case  1   Alpha:  0   Beta:  4
 Number of excitations:                1149870
 Spin case  2   Alpha:  1   Beta:  3
 Number of excitations:               65097393
 Spin case  3   Alpha:  2   Beta:  2
 Number of excitations:              289521618
 Spin case  4   Alpha:  3   Beta:  1
 Number of excitations:              154922895
 Spin case  5   Alpha:  4   Beta:  0
 Number of excitations:                7279965
 Number of                     4 -fold excitations:              517971741

 Memory requirements /Mbyte/:
               Minimal        Optimal
 Real*8:        215.4029       457.6533
 Integer:        48.9661
 Total:         264.3690       506.6194


 ************************ 2018-06-15 14:41:19 *************************
 Executing mrcc...

 **********************************************************************
 CCSDT(Q) calculation


 OpenMP parallel version is running.
 Number of CPUs:   1
 Allocation of  457.7 Mbytes of memory...
 Number of spinorbitals: 176
 Number of alpha electrons:  7
 Number of beta  electrons:  5
 Spin multiplicity: 2
 z-component of spin:  1.0
 Spatial symmetry: 1
 Convergence criterion:  1.0E-07
 Construction of occupation graphs...
 Number of 0-fold excitations: 1
 Number of 1-fold excitations: 178
 Number of 2-fold excitations: 44443
 Number of 3-fold excitations: 6458622
 Total number of determinants: 6503244
 Calculation of coupling coefficients...
 Initial cluster amplitudes are generated.
 Length of intermediate file (Mbytes):     122.4
 Reading integral list from unit 55...
 Sorting integrals...
 Sorting integrals...
 Sorting integrals...
 Sorting integrals...
 Energy of reference determinant [au]:     -57.609372282792
 Calculation of MP denominators...

 Starting CC iteration...
 ======================================================================
 Norm of residual vector:     1.34517489
 CPU time [min]:     1.541                   Wall time [min]:     1.556

 Iteration  1  CC energy:   -57.94649932  Energy decrease:   0.33712704
 ======================================================================
 Norm of residual vector:     0.30031668
 CPU time [min]:     2.948                   Wall time [min]:     2.973

 Iteration  2  CC energy:   -57.95897897  Energy decrease:   0.01247965
 ======================================================================
 Norm of residual vector:     0.08228333
 CPU time [min]:     4.548                   Wall time [min]:     4.584

 Iteration  3  CC energy:   -57.98029989  Energy decrease:   0.02132091
 ======================================================================
 Norm of residual vector:     0.02789632
 CPU time [min]:     6.214                   Wall time [min]:     6.267

 Iteration  4  CC energy:   -57.98203262  Energy decrease:   0.00173274
 ======================================================================
 Norm of residual vector:     0.01329106
 CPU time [min]:     7.789                   Wall time [min]:     7.848

 Iteration  5  CC energy:   -57.98077157  Energy decrease:   0.00126105
 ======================================================================
 Norm of residual vector:     0.00650269
 CPU time [min]:     9.383                   Wall time [min]:     9.453

 Iteration  6  CC energy:   -57.98092769  Energy decrease:   0.00015612
 ======================================================================
 Norm of residual vector:     0.00378264
 CPU time [min]:    10.833                   Wall time [min]:    10.916

 Iteration  7  CC energy:   -57.98125149  Energy decrease:   0.00032380
 ======================================================================
 Norm of residual vector:     0.00239144
 CPU time [min]:    12.221                   Wall time [min]:    12.312

 Iteration  8  CC energy:   -57.98123690  Energy decrease:   0.00001459
 ======================================================================
 Norm of residual vector:     0.00153053
 CPU time [min]:    13.697                   Wall time [min]:    13.802

 Iteration  9  CC energy:   -57.98125711  Energy decrease:   0.00002021
 ======================================================================
 Norm of residual vector:     0.00099638
 CPU time [min]:    15.441                   Wall time [min]:    15.555

 Iteration 10  CC energy:   -57.98127745  Energy decrease:   0.00002034
 ======================================================================
 Norm of residual vector:     0.00057832
 CPU time [min]:    17.176                   Wall time [min]:    17.305

 Iteration 11  CC energy:   -57.98126150  Energy decrease:   0.00001595
 ======================================================================
 Norm of residual vector:     0.00030619
 CPU time [min]:    18.724                   Wall time [min]:    18.866

 Iteration 12  CC energy:   -57.98126342  Energy decrease:   0.00000192
 ======================================================================
 Norm of residual vector:     0.00017194
 CPU time [min]:    20.309                   Wall time [min]:    20.464

 Iteration 13  CC energy:   -57.98126761  Energy decrease:   0.00000419
 ======================================================================
 Norm of residual vector:     0.00010147
 CPU time [min]:    22.027                   Wall time [min]:    22.197

 Iteration 14  CC energy:   -57.98126701  Energy decrease:   0.00000060
 ======================================================================
 Norm of residual vector:     0.00005329
 CPU time [min]:    23.812                   Wall time [min]:    23.993

 Iteration 15  CC energy:   -57.98126626  Energy decrease:   0.00000075
 ======================================================================
 Norm of residual vector:     0.00002962
 CPU time [min]:    25.542                   Wall time [min]:    25.738

 Iteration 16  CC energy:   -57.98126686  Energy decrease:   0.00000060
 ======================================================================
 Norm of residual vector:     0.00001776
 CPU time [min]:    27.069                   Wall time [min]:    27.277

 Iteration 17  CC energy:   -57.98126711  Energy decrease:   0.00000025
 ======================================================================
 Norm of residual vector:     0.00001035
 CPU time [min]:    28.559                   Wall time [min]:    28.774

 Iteration 18  CC energy:   -57.98126684  Energy decrease:   0.00000026
 ======================================================================
 Norm of residual vector:     0.00000519
 CPU time [min]:    30.061                   Wall time [min]:    30.288

 Iteration 19  CC energy:   -57.98126675  Energy decrease:   0.00000009
 ======================================================================
 Norm of residual vector:     0.00000261
 CPU time [min]:    31.563                   Wall time [min]:    31.796

 Iteration 20  CC energy:   -57.98126679  Energy decrease:   0.00000004
 ======================================================================
 Norm of residual vector:     0.00000123
 CPU time [min]:    33.072                   Wall time [min]:    33.318

 Iteration 21  CC energy:   -57.98126682  Energy decrease:   0.00000003
 ======================================================================
 Norm of residual vector:     0.00000059
 CPU time [min]:    34.588                   Wall time [min]:    34.837

 Iteration 22  CC energy:   -57.98126680  Energy decrease:   0.00000002
 ======================================================================
 Norm of residual vector:     0.00000028
 CPU time [min]:    36.111                   Wall time [min]:    36.372

 Iteration 23  CC energy:   -57.98126680  Energy decrease:   2.3031E-09
 ======================================================================
 Norm of residual vector:     0.00000012
 CPU time [min]:    37.642                   Wall time [min]:    37.920

 Iteration 24  CC energy:   -57.98126680  Energy decrease:   0.00000001
 ======================================================================
 Norm of residual vector:     0.00000005
 CPU time [min]:    38.978                   Wall time [min]:    39.269

 Iteration 25  CC energy:   -57.98126680  Energy decrease:   1.7579E-09
 ======================================================================

 Iteration has converged in 25 steps.

 Final results:
 Total CCSDT energy [au]:            -57.981266803012
 Total MP2 energy [au]:              -57.946499322431

 Perturbative corrections are calculated...
 ======================================================================
 Spin case  1   Alpha:  0   Beta:  4
 Number of excitations:        1149870
 CPU time [min]:    42.828                   Wall time [min]:    43.123
 ======================================================================
 Spin case  2   Alpha:  1   Beta:  3
 Number of excitations:        65097393
 CPU time [min]:   106.091                   Wall time [min]:   106.388
 ======================================================================
 Spin case  3   Alpha:  2   Beta:  2
 Number of excitations:        289521618
 CPU time [min]:   285.818                   Wall time [min]:   286.142
 ======================================================================
 Spin case  4   Alpha:  3   Beta:  1
 Number of excitations:        154922895
 CPU time [min]:   372.228                   Wall time [min]:   372.572
 ======================================================================
 Spin case  5   Alpha:  4   Beta:  0
 Number of excitations:        7279965
 CPU time [min]:   378.291                   Wall time [min]:   378.646
 ======================================================================
 Number of 4-fold excitations: 517971741
 CPU time [min]:   378.291                   Wall time [min]:   378.646

 Total CCSDT[Q] energy [au]:         -57.981431889041
 Total CCSDT(Q) energy [au]:         -57.981963949034

 ************************ 2018-06-15 20:59:58 *************************
                      Normal termination of mrcc.
 **********************************************************************
 !CCSDT STATE 1.1 Energy              -57.981266803012
 !MP2 STATE 1.1 Energy                -57.946499322431
 !CCSDT[Q] STATE 1.1 Energy           -57.981431889041
 !CCSDT(Q) STATE 1.1 Energy           -57.981963949034
 
 CPU-time for MRCC:          22697.5 sec
 Elapsed-time for MRCC:      22726.9 sec

 Variable memory set to 8000000000 words,  buffer space   230000 words



 **********************************************************************************************************************************
 DATASETS  * FILE   NREC   LENGTH (MB)   RECORD NAMES
              1      20       23.50       500      610      700      900      950      970     1000      129      960     1100   
                                          VAR    BASINP    GEOM    SYMINP    ZMAT    AOBASIS   BASIS     P2S    ABASIS      S 
                                         1400     1410     1420     1200     1210     1080     1600     1650     1300     1700   
                                         EKIN       V       ECP      H0       H01     AOSYM     SMH    MOLCAS    ERIS     OPER   

              2       5        5.35       700     1000      520     2100     2200   
                                         GEOM     BASIS   MCVARS     RHF      UHF  

 PROGRAMS   *        TOTAL      MRCC       UHF        HF       INT
 CPU TIMES  *     22716.62  22712.99      0.03      0.15      3.34
 REAL TIME  *     22825.44 SEC
 DISK USED  *        40.06 MB      
 **********************************************************************************************************************************
 SETTING POSTHF(I)      =       -57.98196395  AU                              
                                                                                                                                                                                                                                                                

        SCF            POSTHF        EKIN           POT
    -57.60937228   -57.98196395   25.86952109   -10.95486000
                                                  

 CCSDT(Q)/USERDEF energy=    -57.981963949034

        CCSDT(Q)        HF-SCF  
    -57.98196395    -57.60937228
 **********************************************************************************************************************************
 Variable memory released
