
 Primary working directories    : /global/cscratch1/sd/aannabe
 Secondary working directories  : /global/cscratch1/sd/aannabe
 Wavefunction directory         : /global/homes/a/aannabe/wfu/
 Main file repository           : /global/cscratch1/sd/aannabe/

 SHA1      : 2873118e99aab1bc19f5b6fc1784693c06d15c95
 NAME      : 2015.1.8
 ARCHNAME  : linux/x86_64
 FC        : /opt/cray/pe/craype/2.5.5/bin/ftn
 BLASLIB   : -Wl,-_start-group /opt/intel/compilers_and_libraries_2016.3.210/linux/mkl/lib/intel64/libmkl_intel_ilp64.a /opt/intel/compilers_and_libraries_2016.3.210/linux/mkl/lib/intel64/libmkl_intel_thread.a /opt/intel/compilers_and_libraries_2016.3.210/linux/mkl/lib/intel64/libmkl_core.a -Wl,-_end-group
 id        : lbl

 Nodes     nprocs
 nid00474     1

 Using customized tuning parameters: mindgm=8; mindgv=16; mindgc=4; mindgr=1; noblas=0; minvec=7
 default implementation of scratch files=df  

 ***,F
 memory,512,m
 gthresh,twoint=1.e-12
 
 gprint,basis,orbitals
 gexpec,ekin,pot
 
 angstrom
 geometry={
 1                                                                               ! Number of atoms
 F 0.0 0.0 0.0
 }
 
 basis={
 Including file /global/homes/a/aannabe/docs/accurate/ccECP_Kh/pps/F.pp
 Including file /global/homes/a/aannabe/docs/accurate/ccECP_Kh/basis/aug-cc-pVnZ/F_tz.basis
 }
 
 {rhf
  start,atden
  wf,7,3,1
  occ,1,1,1,0,1,0,0,0
  open,1.3
  orbital,4202.2
 }
 {multi
  maxiter,40
  start,4202.2
  occ,1,1,1,0,1,0,0,0
  closed,1,0,0,0,0,0,0
  wf,7,3,1;state,1
  wf,7,5,1;state,1
  wf,7,2,1;state,1
  natorb,ci,print
  orbital,5202.2
 }
 {rhf,nitord=1,maxit=0
  start,5202.2
  wf,7,3,1
  occ,1,1,1,0,1,0,0,0
  open,1.3
 }
 
 scf(i)=energy
 
 _CC_NORM_MAX=2.0
 {ci
 maxit,100
 core
 }
 posthf(i)=energy
 
 table,scf,posthf,ekin,pot
 save,3.csv,new
 
 

 Variables initialized (889), CPU time= 0.00 sec
 Commands  initialized (702), CPU time= 0.01 sec, 572 directives.
 Default parameters read. Elapsed time= 0.16 sec

 Checking input...
 Passed
1


                                         ***  PROGRAM SYSTEM MOLPRO  ***
                                       Copyright, TTI GmbH Stuttgart, 2015
                                    Version 2015.1 linked Sep  7 2016 23:09:38


 **********************************************************************************************************************************
 LABEL *   F                                                                             
  64 bit serial version                                                                  DATE: 30-Oct-18          TIME: 11:32:05  
 **********************************************************************************************************************************

 SHA1:             2873118e99aab1bc19f5b6fc1784693c06d15c95
 **********************************************************************************************************************************

 THRESHOLDS:

 ZERO    =  1.00D-12  ONEINT  =  1.00D-12  TWOINT  =  1.00D-12  PREFAC  =  1.00D-14  LOCALI  =  1.00D-09  EORDER  =  1.00D-04
 ENERGY  =  0.00D+00  ETEST   =  0.00D+00  EDENS   =  0.00D+00  THRDEDEF=  1.00D-06  GRADIENT=  1.00D-02  STEP    =  1.00D-03
 ORBITAL =  1.00D-05  CIVEC   =  1.00D-05  COEFF   =  1.00D-04  PRINTCI =  5.00D-02  PUNCHCI =  9.90D+01  OPTGRAD =  3.00D-04
 OPTENERG=  1.00D-06  OPTSTEP =  3.00D-04  THRGRAD =  1.00D-10  COMPRESS=  1.00D-11  VARMIN  =  1.00D-07  VARMAX  =  1.00D-03
 THRDOUB =  0.00D+00  THRDIV  =  1.00D-05  THRRED  =  1.00D-07  THRPSP  =  1.00D+00  THRDC   =  1.00D-10  THRCS   =  1.00D-10
 THRNRM  =  1.00D-08  THREQ   =  0.00D+00  THRDE   =  1.00D+00  THRREF  =  1.00D-05  SPARFAC =  1.00D+00  THRDLP  =  1.00D-07
 THRDIA  =  1.00D-10  THRDLS  =  1.00D-07  THRGPS  =  0.00D+00  THRKEX  =  0.00D+00  THRDIS  =  2.00D-01  THRVAR  =  1.00D-10
 THRLOC  =  1.00D-06  THRGAP  =  1.00D-06  THRLOCT = -1.00D+00  THRGAPT = -1.00D+00  THRORB  =  1.00D-06  THRMLTP =  0.00D+00
 THRCPQCI=  1.00D-10  KEXTA   =  0.00D+00  THRCOARS=  0.00D+00  SYMTOL  =  1.00D-06  GRADTOL =  1.00D-06  THROVL  =  1.00D-08
 THRORTH =  1.00D-08  GRID    =  1.00D-06  GRIDMAX =  1.00D-03  DTMAX   =  0.00D+00  THROCCDE=  1.00D-01  THROCCDE=  1.00D-01



 ZUNIT=ANG
 

Geometry recognized as XYZ


 Variable memory set to  512000000 words,  buffer space   230000 words

 SETTING BASIS          =    USERDEF


 Recomputing integrals since basis changed


 Using spherical harmonics



 PROGRAM * SEWARD (Integral evaluation for generally contracted gaussian basis sets)     Author: Roland Lindh, 1990

 Geometry written to block  1 of record 700

 Orientation using atomic masses  
 Molecule type: Atom
 Symmetry elements: X,Y,Z
 Rotational constants:       0.0000000      0.0000000      0.0000000 GHz  (calculated with average atomic masses)

 Point group  D2h 



 ATOMIC COORDINATES

 NR  ATOM    CHARGE       X              Y              Z

   1  F       7.00    0.000000000    0.000000000    0.000000000


          F   CORE POTENTIAL

          p POTENTIAL

 POWERS             1              3              2
 EXPONENTIALS   11.39544       10.49202       10.28681    
 COEFFICIENTS   7.000000       79.76808      -49.49901    

          s - p POTENTIAL

 POWERS             2
 EXPONENTIALS   11.39035    
 COEFFICIENTS   51.39347    


 BASIS DATA

   Nr Sym  Nuc  Type         Exponents   Contraction coefficients

    1.1 Ag    1  1s          71.173909    -0.000057
                             33.399038     0.000363
                             15.672819     0.009533
                              7.354620    -0.127065
                              3.451226     0.011527
                              1.619521     0.290584
                              0.759976     0.448567
                              0.356626     0.312306
                              0.167350     0.065625
    2.1 Ag    1  1s           2.289795     1.000000
    3.1 Ag    1  1s           0.327712     1.000000
    4.1 Ag    1  1s           0.131085     1.000000
    5.1 Ag    1  3d0          3.297425     1.000000
    6.1 Ag    1  3d2+         3.297425     1.000000
    7.1 Ag    1  3d0          0.900763     1.000000
    8.1 Ag    1  3d2+         0.900763     1.000000
    9.1 Ag    1  3d0          0.360305     1.000000
   10.1 Ag    1  3d2+         0.360305     1.000000
    1.2 B3u   1  2px         27.863051     0.003758
                             13.662475     0.043495
                              6.699310     0.093050
                              3.284965     0.177293
                              1.610762     0.261759
                              0.789827     0.289687
                              0.387287     0.243341
                              0.189904     0.125496
                              0.093118     0.026843
    2.2 B3u   1  2px          0.804181     1.000000
    3.2 B3u   1  2px          0.243660     1.000000
    4.2 B3u   1  2px          0.097464     1.000000
    5.2 B3u   1  4f1+         1.859274     1.000000
    6.2 B3u   1  4f3+         1.859274     1.000000
    7.2 B3u   1  4f1+         0.743710     1.000000
    8.2 B3u   1  4f3+         0.743710     1.000000
    1.3 B2u   1  2py         27.863051     0.003758
                             13.662475     0.043495
                              6.699310     0.093050
                              3.284965     0.177293
                              1.610762     0.261759
                              0.789827     0.289687
                              0.387287     0.243341
                              0.189904     0.125496
                              0.093118     0.026843
    2.3 B2u   1  2py          0.804181     1.000000
    3.3 B2u   1  2py          0.243660     1.000000
    4.3 B2u   1  2py          0.097464     1.000000
    5.3 B2u   1  4f1-         1.859274     1.000000
    6.3 B2u   1  4f3-         1.859274     1.000000
    7.3 B2u   1  4f1-         0.743710     1.000000
    8.3 B2u   1  4f3-         0.743710     1.000000
    1.4 B1g   1  3d2-         3.297425     1.000000
    2.4 B1g   1  3d2-         0.900763     1.000000
    3.4 B1g   1  3d2-         0.360305     1.000000
    1.5 B1u   1  2pz         27.863051     0.003758
                             13.662475     0.043495
                              6.699310     0.093050
                              3.284965     0.177293
                              1.610762     0.261759
                              0.789827     0.289687
                              0.387287     0.243341
                              0.189904     0.125496
                              0.093118     0.026843
    2.5 B1u   1  2pz          0.804181     1.000000
    3.5 B1u   1  2pz          0.243660     1.000000
    4.5 B1u   1  2pz          0.097464     1.000000
    5.5 B1u   1  4f0          1.859274     1.000000
    6.5 B1u   1  4f2+         1.859274     1.000000
    7.5 B1u   1  4f0          0.743710     1.000000
    8.5 B1u   1  4f2+         0.743710     1.000000
    1.6 B2g   1  3d1+         3.297425     1.000000
    2.6 B2g   1  3d1+         0.900763     1.000000
    3.6 B2g   1  3d1+         0.360305     1.000000
    1.7 B3g   1  3d1-         3.297425     1.000000
    2.7 B3g   1  3d1-         0.900763     1.000000
    3.7 B3g   1  3d1-         0.360305     1.000000
    1.8 Au    1  4f2-         1.859274     1.000000
    2.8 Au    1  4f2-         0.743710     1.000000

 NUCLEAR CHARGE:                    7
 NUMBER OF PRIMITIVE AOS:          86
 NUMBER OF SYMMETRY AOS:           77
 NUMBER OF CONTRACTIONS:           45   (  10Ag  +   8B3u +   8B2u +   3B1g +   8B1u +   3B2g +   3B3g +   2Au  )
 NUMBER OF CORE ORBITALS:           0   (   0Ag  +   0B3u +   0B2u +   0B1g +   0B1u +   0B2g +   0B3g +   0Au  )
 NUMBER OF VALENCE ORBITALS:        4   (   1Ag  +   1B3u +   1B2u +   0B1g +   1B1u +   0B2g +   0B3g +   0Au  )


 NUCLEAR REPULSION ENERGY    0.00000000

 EXTRA SYMMETRY OF AOS IN SYMMETRY 1:   1 1 1 1 2 3 2 3 2 3
 EXTRA SYMMETRY OF AOS IN SYMMETRY 2:   1 1 1 1 2 3 2 3
 EXTRA SYMMETRY OF AOS IN SYMMETRY 3:   1 1 1 1 2 3 2 3
 EXTRA SYMMETRY OF AOS IN SYMMETRY 5:   1 1 1 1 2 3 2 3

 Eigenvalues of metric

         1 0.147E-01 0.147E+00 0.210E+00 0.210E+00 0.759E+00 0.846E+00 0.846E+00 0.194E+01
         2 0.560E-01 0.139E+00 0.367E+00 0.367E+00 0.885E+00 0.163E+01 0.163E+01 0.292E+01
         3 0.560E-01 0.139E+00 0.367E+00 0.367E+00 0.885E+00 0.163E+01 0.163E+01 0.292E+01
         4 0.210E+00 0.846E+00 0.194E+01
         5 0.560E-01 0.139E+00 0.367E+00 0.367E+00 0.885E+00 0.163E+01 0.163E+01 0.292E+01
         6 0.210E+00 0.846E+00 0.194E+01
         7 0.210E+00 0.846E+00 0.194E+01
         8 0.367E+00 0.163E+01


 Contracted 2-electron integrals neglected if value below      1.0D-12
 AO integral compression algorithm  1   Integral accuracy      1.0D-12

     1.049 MB (compressed) written to integral file ( 99.8%)


 NUMBER OF SORTED TWO-ELECTRON INTEGRALS:      75808.     BUFFER LENGTH:  32768
 NUMBER OF SEGMENTS:   1  SEGMENT LENGTH:      75808      RECORD LENGTH: 524288

 Memory used in sort:       0.63 MW

 SORT1 READ      155797. AND WROTE       61548. INTEGRALS IN      1 RECORDS. CPU TIME:     0.00 SEC, REAL TIME:     0.01 SEC
 SORT2 READ       61548. AND WROTE       75808. INTEGRALS IN      4 RECORDS. CPU TIME:     0.02 SEC, REAL TIME:     0.04 SEC

 FILE SIZES:   FILE 1:    20.2 MBYTE,  FILE 4:     4.2 MBYTE,   TOTAL:     24.4 MBYTE

 OPERATOR DM      FOR CENTER  0  COORDINATES:    0.000000    0.000000    0.000000
 OPERATOR EKIN    FOR CENTER  0  COORDINATES:    0.000000    0.000000    0.000000
 OPERATOR POT     FOR CENTER  0  COORDINATES:    0.000000    0.000000    0.000000


 **********************************************************************************************************************************
 DATASETS  * FILE   NREC   LENGTH (MB)   RECORD NAMES
              1      20       19.61       500      610      700      900      950      970     1000      129      960     1100   
                                          VAR    BASINP    GEOM    SYMINP    ZMAT    AOBASIS   BASIS     P2S    ABASIS      S 
                                         1400     1410     1420     1200     1210     1080     1600     1650     1300     1700   
                                         EKIN       V       ECP      H0       H01     AOSYM     SMH    MOLCAS    ERIS     OPER   

 PROGRAMS   *        TOTAL       INT
 CPU TIMES  *         0.50      0.37
 REAL TIME  *         1.92 SEC
 DISK USED  *        24.67 MB      
 **********************************************************************************************************************************


 PROGRAM * RHF-SCF (OPEN SHELL)       Authors: W. Meyer, H.-J. Werner


 NUMBER OF ELECTRONS:       4+    3-    SPACE SYMMETRY=3    SPIN SYMMETRY: Doublet 
 CONVERGENCE THRESHOLDS:    1.00E-05 (Density)    1.00E-07 (Energy)
 MAX. NUMBER OF ITERATIONS:       60
 INTERPOLATION TYPE:            DIIS
 INTERPOLATION STEPS:              2 (START)      1 (STEP)
 LEVEL SHIFTS:                 -0.60 (CLOSED) -0.30 (OPEN) 


 Singly occupied orbitals:      1.3

   Atom=F  basis=ECP2MWB_GUESS     lmin=0  lmax=1

 Orbital guess generated from atomic densities. Full valence occupancy:    1   1   1   0   1   0   0   0


 Molecular orbital dump at record        4202.2

 ITERATION    DDIFF          GRAD             ENERGY        2-EL.EN.            DIPOLE MOMENTS         DIIS   ORB.
    1      0.000D+00      0.000D+00       -23.90246225     33.794106    0.00000    0.00000    0.00000    0    start
    2      0.000D+00      0.151D-01       -23.90743203     34.269643    0.00000    0.00000    0.00000    1    diag,B
    3      0.992D-02      0.381D-02       -23.90776771     34.236879    0.00000    0.00000    0.00000    2    diag,B
    4      0.263D-02      0.111D-02       -23.90786036     34.248046    0.00000    0.00000    0.00000    3    diag,B
    5      0.122D-02      0.339D-03       -23.90787049     34.248090    0.00000    0.00000    0.00000    4    diag,B
    6      0.550D-03      0.477D-04       -23.90787064     34.247486    0.00000    0.00000    0.00000    5    diag,B
    7      0.545D-04      0.120D-04       -23.90787065     34.247328    0.00000    0.00000    0.00000    6    fixocc
    8      0.184D-04      0.188D-05       -23.90787065     34.247285    0.00000    0.00000    0.00000    7    diag,B
    9      0.307D-05      0.296D-06       -23.90787065     34.247287    0.00000    0.00000    0.00000    0    orth

 Final alpha occupancy:   1   1   1   0   1   0   0   0
 Final beta  occupancy:   1   1   0   0   1   0   0   0

 !RHF STATE 1.3 Energy                -23.907870651803
 Nuclear energy                         0.00000000
 One-electron energy                  -41.03151430
 Two-electron energy                   17.12364365
 Virial quotient                       -1.28986731
 !RHF STATE 1.3 Dipole moment           0.00000000     0.00000000     0.00000000
 Dipole moment /Debye                   0.00000000     0.00000000     0.00000000
 

 !RHF expec          <1.3|EKIN|1.3>    18.535139561424
 
 !RHF expec           <1.3|POT|1.3>    -8.841239594418

 ELECTRON ORBITALS
 =================


   Orb  Occ    Energy  Couls-En    Coefficients

                                   1 1s      1 1s      1 1s      1 1s      1 3d0     1 3d2+    1 3d0     1 3d2+    1 3d0     1 3d2+ 


   1.1   2    -1.5591   -7.9873  1.000047  0.000005 -0.000100  0.000049  0.000451  0.000781  0.000281  0.000487  0.001670  0.002893

                                   1 2px     1 2px     1 2px     1 2px     1 4f1+    1 4f3+    1 4f1+    1 4f3+ 

   1.2   2    -0.7074   -6.3245  0.999999  0.000091 -0.000064 -0.000112 -0.000551 -0.002134 -0.000527 -0.002040

                                   1 2py     1 2py     1 2py     1 2py     1 4f1-    1 4f3-    1 4f1-    1 4f3- 

   1.3   +    -0.8366   -6.5430  1.032933  0.001200 -0.040326 -0.015645 -0.003651 -0.004714 -0.002967 -0.003831

                                   1 2pz     1 2pz     1 2pz     1 2pz     1 4f0     1 4f2+    1 4f0     1 4f2+ 

   1.5   2    -0.7074   -6.3245  0.999999  0.000091 -0.000064 -0.000112 -0.001350 -0.001742 -0.001290 -0.001665

 HOMO      1.2    -0.707381 =     -19.2488eV
 LUMO      2.3     0.234254 =       6.3744eV
 LUMO-HOMO         0.941635 =      25.6232eV


 **********************************************************************************************************************************
 DATASETS  * FILE   NREC   LENGTH (MB)   RECORD NAMES
              1      20       19.61       500      610      700      900      950      970     1000      129      960     1100   
                                          VAR    BASINP    GEOM    SYMINP    ZMAT    AOBASIS   BASIS     P2S    ABASIS      S 
                                         1400     1410     1420     1200     1210     1080     1600     1650     1300     1700   
                                         EKIN       V       ECP      H0       H01     AOSYM     SMH    MOLCAS    ERIS     OPER   

              2       4        2.76       700     1000      520     4202   
                                         GEOM     BASIS   MCVARS     RHF  

 PROGRAMS   *        TOTAL       RHF       INT
 CPU TIMES  *         0.55      0.05      0.37
 REAL TIME  *         2.13 SEC
 DISK USED  *        24.67 MB      
 **********************************************************************************************************************************


 PROGRAM * MULTI (Direct Multiconfiguration SCF)       Authors: P.J. Knowles, H.-J. Werner (1984)     S.T. Elbert (1988)


 Number of closed-shell orbitals:   1 (   1   0   0   0   0   0   0   0 )
 Number of active  orbitals:        3 (   0   1   1   0   1   0   0   0 )
 Number of external orbitals:      41 (   9   7   7   3   7   3   3   2 )

 State symmetry 1

 Number of electrons:     5    Spin symmetry=Doublet   Space symmetry=3
 Number of states:        1
 Number of CSFs:          1   (1 determinants, 3 intermediate states)

 State symmetry 2

 Number of electrons:     5    Spin symmetry=Doublet   Space symmetry=5
 Number of states:        1
 Number of CSFs:          1   (1 determinants, 3 intermediate states)

 State symmetry 3

 Number of electrons:     5    Spin symmetry=Doublet   Space symmetry=2
 Number of states:        1
 Number of CSFs:          1   (1 determinants, 3 intermediate states)

 Iteration controls:
             1  2  3  4  5  6  7  8  9 10 11 12 13 14 15 16 17 18 19 20 21 22 23 24 25 26 27 28 29 30 31 32 33 34 35 36 37 38 39
 DIAGCI      T  T  T  T  T  T  T  T  T  T  T  T  T  T  T  T  T  T  T  T  T  T  T  T  T  T  T  T  T  T  T  T  T  T  T  T  T  T  T
 WERNER      T  T  T  T  T  T  T  T  T  T  T  T  T  T  T  T  T  T  T  T  T  T  T  T  T  T  T  T  T  T  T  T  T  T  T  T  T  T  T
 INTERNAL    F  T  T  T  T  T  T  T  T  T  T  T  T  T  T  T  T  T  T  T  T  T  T  T  T  T  T  T  T  T  T  T  T  T  T  T  T  T  T

 Molecular orbitals read from record     4202.2  Type=RHF/CANONICAL (state 1.3)
 *** IN SYMMETRY 1 ORBITAL  1 SYMMETRY CONTAMINATION OF 0.652D-02 HAS BEEN REMOVED

 EXTRA SYMMETRY OF MOS IN SYMMETRY 1:   1 1 3 2 1 3 2 3 2 1
 *** IN SYMMETRY 2 ORBITAL  1 SYMMETRY CONTAMINATION OF 0.522D-02 HAS BEEN REMOVED
 EXTRA SYMMETRY OF MOS IN SYMMETRY 2:   1 1 1 3 2 1 3 2
 *** IN SYMMETRY 3 ORBITAL  1 SYMMETRY CONTAMINATION OF 0.137D-01 HAS BEEN REMOVED
 EXTRA SYMMETRY OF MOS IN SYMMETRY 3:   1 1 1 3 2 1 3 2
 *** IN SYMMETRY 5 ORBITAL  1 SYMMETRY CONTAMINATION OF 0.601D-02 HAS BEEN REMOVED
 EXTRA SYMMETRY OF MOS IN SYMMETRY 5:   1 1 1 3 2 1 3 2

 Wavefunction dump at record             5202.2

 Convergence thresholds  0.10E-01 (gradient)  0.10E-05 (energy)  0.10E-02 (step length)

 Weight factors for state symmetry  1:    0.33333
 Weight factors for state symmetry  2:    0.33333
 Weight factors for state symmetry  3:    0.33333

 Number of orbital rotations:       30   (     0 Core/Active      9 Core/Virtual   0 Active/Active     21 Active/Virtual)
 Total number of variables:         33


 ITER. MIC  NCI  NEG     ENERGY(VAR)     ENERGY(PROJ)   ENERGY CHANGE     GRAD(0)  GRAD(ORB)   GRAD(CI)     STEP       TIME

   1   31   12    0     -23.90406416     -23.90587858   -0.00181443    0.06001743 0.00000000 0.00000000  0.34D-01      0.02
   2   15   12    0     -23.90587959     -23.90587962   -0.00000003    0.00038470 0.00000000 0.00000000  0.10D-03      0.04

 ** WVFN ****  CONVERGENCE REACHED, FINAL GRADIENT:  0.12D-07



 Results for state 1.3
 =====================

 !MCSCF STATE 1.3 Energy              -23.905879624435
 Nuclear energy                         0.00000000
 Kinetic energy                        18.53356163
 One electron energy                  -41.03567104
 Two electron energy                   17.12979141
 Virial ratio                           2.28986970

 !MCSCF STATE 1.3 Dipole moment         0.00000000     0.00000000     0.00000000
 Dipole moment /Debye                   0.00000000     0.00000000     0.00000000



 Results for state 1.5
 =====================

 !MCSCF STATE 1.5 Energy              -23.905879624428
 Nuclear energy                         0.00000000
 Kinetic energy                        18.53356163
 One electron energy                  -41.03567104
 Two electron energy                   17.12979141
 Virial ratio                           2.28986970

 !MCSCF STATE 1.5 Dipole moment         0.00000000     0.00000000     0.00000000
 Dipole moment /Debye                   0.00000000     0.00000000     0.00000000



 Results for state 1.2
 =====================

 !MCSCF STATE 1.2 Energy              -23.905879624428
 Nuclear energy                         0.00000000
 Kinetic energy                        18.53356163
 One electron energy                  -41.03567104
 Two electron energy                   17.12979141
 Virial ratio                           2.28986970

 !MCSCF STATE 1.2 Dipole moment         0.00000000     0.00000000     0.00000000
 Dipole moment /Debye                   0.00000000     0.00000000     0.00000000

 State-averaged charge density matrix saved on record  5202.2 (density set 1)

 !MCSCF expec        <1.3|EKIN|1.3>    18.533561631524
 !MCSCF expec        <1.5|EKIN|1.5>    18.533561632738
 !MCSCF expec        <1.2|EKIN|1.2>    18.533561632738

 !MCSCF expec         <1.3|POT|1.3>    -8.841575970972
 !MCSCF expec         <1.5|POT|1.5>    -8.841575971188
 !MCSCF expec         <1.2|POT|1.2>    -8.841575971188


 NATURAL ORBITALS (state averaged)
 =================================

   Orb     Occ        Energy       Coefficients

                                   1 1s      1 1s      1 1s      1 1s      1 3d0     1 3d2+    1 3d0     1 3d2+    1 3d0     1 3d2+ 


   1.1  2.00000    -1.558712     0.999938 -0.000008  0.000021  0.000070  0.000000  0.000000  0.000000  0.000000  0.000000  0.000000

                                   1 2px     1 2px     1 2px     1 2px     1 4f1+    1 4f3+    1 4f1+    1 4f3+ 

   1.2  1.66667    -0.593330     1.006549  0.000392 -0.007629 -0.003780  0.000000  0.000000  0.000000  0.000000

                                   1 2py     1 2py     1 2py     1 2py     1 4f1-    1 4f3-    1 4f1-    1 4f3- 

   1.3  1.66667    -0.593330     1.006549  0.000392 -0.007629 -0.003780  0.000000  0.000000  0.000000  0.000000

                                   1 2pz     1 2pz     1 2pz     1 2pz     1 4f0     1 4f2+    1 4f0     1 4f2+ 

   1.5  1.66667    -0.593330     1.006549  0.000392 -0.007629 -0.003780  0.000000  0.000000  0.000000  0.000000
 

 EXTRA SYMMETRY OF MOS IN SYMMETRY 1:   1 1 3 2 1 2 3 3 2 1

 Natural orbital dump (state averaged) at molpro section  5202.2    (Orbital set 2)


 CI vector for state symmetry 1
 ==============================

 2 a 2           1.0000000

 TOTAL ENERGIES                       -23.90587962

 CI vector for state symmetry 2
 ==============================

 2 2 a           1.0000000

 TOTAL ENERGIES                       -23.90587962

 CI vector for state symmetry 3
 ==============================

 a 2 2           1.0000000

 TOTAL ENERGIES                       -23.90587962



 **********************************************************************************************************************************
 DATASETS  * FILE   NREC   LENGTH (MB)   RECORD NAMES
              1      21       19.66       500      610      700      900      950      970     1000      129      960     1100   
                                          VAR    BASINP    GEOM    SYMINP    ZMAT    AOBASIS   BASIS     P2S    ABASIS      S 
                                         1400     1410     1420     1200     1210     1080     1600     1650     1300     1700   
                                         EKIN       V       ECP      H0       H01     AOSYM     SMH    MOLCAS    ERIS     OPER   
                                         1380   
                                         JKOP   

              2       5        5.26       700     1000      520     4202     5202   
                                         GEOM     BASIS   MCVARS     RHF     MCSCF   

 PROGRAMS   *        TOTAL     MULTI       RHF       INT
 CPU TIMES  *         0.62      0.07      0.05      0.37
 REAL TIME  *         2.88 SEC
 DISK USED  *        34.13 MB      
 **********************************************************************************************************************************


 PROGRAM * RHF-SCF (OPEN SHELL)       Authors: W. Meyer, H.-J. Werner


 NUMBER OF ELECTRONS:       4+    3-    SPACE SYMMETRY=3    SPIN SYMMETRY: Doublet 
 CONVERGENCE THRESHOLDS:    1.00E-05 (Density)    1.00E-07 (Energy)
 MAX. NUMBER OF ITERATIONS:        0
 INTERPOLATION TYPE:            DIIS
 INTERPOLATION STEPS:              2 (START)      1 (STEP)
 LEVEL SHIFTS:                 -0.60 (CLOSED) -0.30 (OPEN) 


 Singly occupied orbitals:      1.3
 Molecular orbitals read from record     5202.2  Type=MCSCF/NATURAL (state averaged)

 Molecular orbital dump at record        2101.2

 ITERATION    DDIFF          GRAD             ENERGY        2-EL.EN.            DIPOLE MOMENTS         DIIS   ORB.
    1      0.000D+00      0.000D+00       -23.90587962     34.259583    0.00000    0.00000    0.00000    0    start

 Final alpha occupancy:   1   1   1   0   1   0   0   0
 Final beta  occupancy:   1   1   0   0   1   0   0   0

 !RHF STATE 1.3 Energy                -23.905879624435
 Nuclear energy                         0.00000000
 One-electron energy                  -41.03567104
 Two-electron energy                   17.12979141
 Virial quotient                       -1.28986970
 !RHF STATE 1.3 Dipole moment           0.00000000     0.00000000     0.00000000
 Dipole moment /Debye                   0.00000000     0.00000000     0.00000000
 

 !RHF expec          <1.3|EKIN|1.3>    18.533561631524
 
 !RHF expec           <1.3|POT|1.3>    -8.841575970972

 ELECTRON ORBITALS
 =================


   Orb  Occ    Energy  Couls-En    Coefficients

                                   1 1s      1 1s      1 1s      1 1s      1 3d0     1 3d2+    1 3d0     1 3d2+    1 3d0     1 3d2+ 


   1.1   2    -1.5587   -7.9869  0.999938 -0.000008  0.000021  0.000070  0.000000  0.000000  0.000000  0.000000  0.000000  0.000000

                                   1 2px     1 2px     1 2px     1 2px     1 4f1+    1 4f3+    1 4f1+    1 4f3+ 

   1.2   2    -0.5933   -6.2292  1.006549  0.000392 -0.007629 -0.003780  0.000000  0.000000  0.000000  0.000000

                                   1 2py     1 2py     1 2py     1 2py     1 4f1-    1 4f3-    1 4f1-    1 4f3- 

   1.3   +    -0.5933   -6.2292  1.006549  0.000392 -0.007629 -0.003780  0.000000  0.000000  0.000000  0.000000

                                   1 2pz     1 2pz     1 2pz     1 2pz     1 4f0     1 4f2+    1 4f0     1 4f2+ 

   1.5   2    -0.5933   -6.2292  1.006549  0.000392 -0.007629 -0.003780  0.000000  0.000000  0.000000  0.000000

 HOMO      1.2    -0.593330 =     -16.1453eV
 LUMO      2.2     0.246709 =       6.7133eV
 LUMO-HOMO         0.840039 =      22.8586eV


 **********************************************************************************************************************************
 DATASETS  * FILE   NREC   LENGTH (MB)   RECORD NAMES
              1      21       19.66       500      610      700      900      950      970     1000      129      960     1100   
                                          VAR    BASINP    GEOM    SYMINP    ZMAT    AOBASIS   BASIS     P2S    ABASIS      S 
                                         1400     1410     1420     1200     1210     1080     1600     1650     1300     1700   
                                         EKIN       V       ECP      H0       H01     AOSYM     SMH    MOLCAS    ERIS     OPER   
                                         1380   
                                         JKOP   

              2       6        7.77       700     1000      520     4202     5202     2101   
                                         GEOM     BASIS   MCVARS     RHF     MCSCF     RHF  

 PROGRAMS   *        TOTAL       RHF     MULTI       RHF       INT
 CPU TIMES  *         0.64      0.01      0.07      0.05      0.37
 REAL TIME  *         3.06 SEC
 DISK USED  *        34.13 MB      
 **********************************************************************************************************************************
 SETTING SCF(I)         =       -23.90587962  AU                              
 SETTING _CC_NORM_MAX   =         2.00000000                                  


 PROGRAM * CI (Multireference internally contracted CI)     Authors: H.-J. Werner, P.J. Knowles, 1987


 Convergence thresholds:  THRVAR = 1.00D-08  THRDEN = 1.00D-06

 Number of optimized states:  1  Roots:   1
 Number of reference states:  1  Roots:   1

 Reference symmetry:                   3   Doublet 
 Number of electrons:                  7
 Maximum number of shells:             3
 Maximum number of spin couplings:     5

 Reference space:        1 conf        1 CSFs
 N elec internal:        4 conf        4 CSFs
 N-1 el internal:       10 conf       16 CSFs
 N-2 el internal:        9 conf       27 CSFs

 Number of electrons in valence space:                      7
 Maximum number of open shell orbitals in reference space:  1
 Maximum number of open shell orbitals in internal spaces:  5


 Number of closed-shell orbitals:   3 (   1   1   0   0   1   0   0   0 )
 Number of active  orbitals:        1 (   0   0   1   0   0   0   0   0 )
 Number of external orbitals:      41 (   9   7   7   3   7   3   3   2 )

 Molecular orbitals read from record     2101.2  Type=RHF/CANONICAL (state 1.3)

 Coulomb and exchange operators available. No transformation done.

 Number of p-space configurations:   1

 Reference wavefunction optimized for reference space (refopt=1)

 State     Reference Energy 
   1         -23.90587962

 Number of blocks in overlap matrix:    15   Smallest eigenvalue:  0.10D+01
 Number of N-2 electron functions:      15
 Number of N-1 electron functions:      16

 Number of internal configurations:                    1
 Number of singly external configurations:            90
 Number of doubly external configurations:          1710
 Total number of contracted configurations:         1801
 Total number of uncontracted configurations:       3091

 Diagonal Coupling coefficients finished.               Storage:     982 words, CPU-Time:      0.00 seconds.
 Energy denominators for pairs finished in 1 passes.    Storage:    2806 words, CPU-time:      0.00 seconds.

  ITER. STATE  ROOT     SQ.NORM     CORR.ENERGY   TOTAL ENERGY   ENERGY CHANGE       DEN1      VAR(S)    VAR(P)      TIME
    1     1     1     1.00000000     0.00000000   -23.90587962    -0.00000000    -0.23855015  0.83D-02  0.35D-01     0.02
    2     1     1     1.03685503    -0.22038300   -24.12626262    -0.22038300    -0.00249921  0.41D-03  0.24D-03     0.03
    3     1     1     1.03837239    -0.22306622   -24.12894585    -0.00268323    -0.00010262  0.14D-04  0.18D-04     0.04
    4     1     1     1.03940780    -0.22319214   -24.12907176    -0.00012591    -0.00000633  0.22D-05  0.61D-06     0.04
    5     1     1     1.03951608    -0.22319879   -24.12907842    -0.00000666    -0.00000030  0.69D-07  0.35D-07     0.04
    6     1     1     1.03952444    -0.22319912   -24.12907874    -0.00000033    -0.00000001  0.28D-08  0.12D-08     0.04


 =====================================
 Analysis of CPU times by interactions
 =====================================

       I      S      P

 I   0.0%
 S   0.0%   0.0%
 P   0.0%   0.0%   0.0%

 Initialization:  50.0%
 Other:           50.0%

 Total CPU:        0.0 seconds
 =====================================



 Reference coefficients greater than 0.0500000
 =============================================
 22/2           0.9808049



 RESULTS FOR STATE 1.3
 =====================

 Coefficient of reference function:   C(0) = 0.98080495 (fixed)   0.98080495 (relaxed)

 Energy contributions of configuration classes

 CLASS          SQ.NORM        ECORR1        ECORR2
 +++++++++++++++++++++++++++++++++++++++++++++++++++
 Internals    0.00000000    0.00000000   -0.00000000
 Singles      0.00853678   -0.02742459   -0.02821536
 Pairs        0.03098766   -0.19577453   -0.19498376
 Total        1.03952444   -0.22319912   -0.22319912
 +++++++++++++++++++++++++++++++++++++++++++++++++++


 Reference energy                     -23.90587962
 Nuclear energy                         0.00000000
 Kinetic energy                        18.68609903
 One electron energy                  -40.77941573
 Two electron energy                   16.65033698
 Virial quotient                       -1.29128497
 Correlation energy                    -0.22319912
 !CI(SD) STATE 1.3 Energy             -24.129078744065

 Properties without orbital relaxation:

 !CI(SD) STATE 1.3 Dipole moment        0.00000000     0.00000000     0.00000000
 Dipole moment /Debye                   0.00000000     0.00000000     0.00000000

 Cluster corrected energies           -24.13790056 (Davidson, fixed reference)
 Cluster corrected energies           -24.13790056 (Davidson, relaxed reference)

 Cluster corrected energies           -24.13503635 (Pople, fixed reference)
 Cluster corrected energies           -24.13503635 (Pople, relaxed reference)

 

 !CI(SD) expec       <1.3|EKIN|1.3>    18.686099027815
 
 !CI(SD) expec        <1.3|POT|1.3>    -8.829718488855


 **********************************************************************************************************************************
 DATASETS  * FILE   NREC   LENGTH (MB)   RECORD NAMES
              1      21       19.66       500      610      700      900      950      970     1000      129      960     1100   
                                          VAR    BASINP    GEOM    SYMINP    ZMAT    AOBASIS   BASIS     P2S    ABASIS      S 
                                         1400     1410     1420     1200     1210     1080     1600     1650     1300     1700   
                                         EKIN       V       ECP      H0       H01     AOSYM     SMH    MOLCAS    ERIS     OPER   
                                         1380   
                                         JKOP   

              2       6        7.77       700     1000      520     4202     5202     2101   
                                         GEOM     BASIS   MCVARS     RHF     MCSCF     RHF  

 PROGRAMS   *        TOTAL        CI       RHF     MULTI       RHF       INT
 CPU TIMES  *         0.73      0.09      0.01      0.07      0.05      0.37
 REAL TIME  *         3.64 SEC
 DISK USED  *        34.13 MB      
 **********************************************************************************************************************************
 SETTING POSTHF(I)      =       -24.12907874  AU                              
                                                                                                                                                                                                                                                                

        SCF            POSTHF        EKIN          POT
    -23.90587962   -24.12907874   18.68609903   -8.82971849
                                                  

 CI/USERDEF energy=    -24.129078744065

        CI              RHF-SCF         MULTI           RHF-SCF 
    -24.12907874    -23.90587962    -23.90587962    -23.90787065
 **********************************************************************************************************************************
 Variable memory released
