
 Primary working directories    : /global/cscratch1/sd/aannabe
 Secondary working directories  : /global/cscratch1/sd/aannabe
 Wavefunction directory         : /global/homes/a/aannabe/wfu/
 Main file repository           : /global/cscratch1/sd/aannabe/

 SHA1      : 2873118e99aab1bc19f5b6fc1784693c06d15c95
 NAME      : 2015.1.8
 ARCHNAME  : linux/x86_64
 FC        : /opt/cray/pe/craype/2.5.5/bin/ftn
 BLASLIB   : -Wl,-_start-group /opt/intel/compilers_and_libraries_2016.3.210/linux/mkl/lib/intel64/libmkl_intel_ilp64.a /opt/intel/compilers_and_libraries_2016.3.210/linux/mkl/lib/intel64/libmkl_intel_thread.a /opt/intel/compilers_and_libraries_2016.3.210/linux/mkl/lib/intel64/libmkl_core.a -Wl,-_end-group
 id        : lbl

 Nodes     nprocs
 nid00474     1

 Using customized tuning parameters: mindgm=8; mindgv=16; mindgc=4; mindgr=1; noblas=0; minvec=7
 default implementation of scratch files=df  

 ***,F
 memory,512,m
 gthresh,twoint=1.e-12
 
 gprint,basis,orbitals
 gexpec,ekin,pot
 
 angstrom
 geometry={
 1                                                                               ! Number of atoms
 F 0.0 0.0 0.0
 }
 
 basis={
 Including file /global/homes/a/aannabe/docs/accurate/ccECP_Kh/pps/F.pp
 Including file /global/homes/a/aannabe/docs/accurate/ccECP_Kh/basis/aug-cc-pVnZ/F_6z.basis
 }
 
 {rhf
  start,atden
  wf,7,3,1
  occ,1,1,1,0,1,0,0,0
  open,1.3
  orbital,4202.2
 }
 {multi
  maxiter,40
  start,4202.2
  occ,1,1,1,0,1,0,0,0
  closed,1,0,0,0,0,0,0
  wf,7,3,1;state,1
  wf,7,5,1;state,1
  wf,7,2,1;state,1
  natorb,ci,print
  orbital,5202.2
 }
 {rhf,nitord=1,maxit=0
  start,5202.2
  wf,7,3,1
  occ,1,1,1,0,1,0,0,0
  open,1.3
 }
 
 scf(i)=energy
 
 _CC_NORM_MAX=2.0
 {ci
 maxit,100
 core
 }
 posthf(i)=energy
 
 table,scf,posthf,ekin,pot
 save,6.csv,new
 
 

 Variables initialized (889), CPU time= 0.01 sec
 Commands  initialized (702), CPU time= 0.00 sec, 572 directives.
 Default parameters read. Elapsed time= 0.15 sec

 Checking input...
 Passed
1


                                         ***  PROGRAM SYSTEM MOLPRO  ***
                                       Copyright, TTI GmbH Stuttgart, 2015
                                    Version 2015.1 linked Sep  7 2016 23:09:38


 **********************************************************************************************************************************
 LABEL *   F                                                                             
  64 bit serial version                                                                  DATE: 30-Oct-18          TIME: 11:32:48  
 **********************************************************************************************************************************

 SHA1:             2873118e99aab1bc19f5b6fc1784693c06d15c95
 **********************************************************************************************************************************

 THRESHOLDS:

 ZERO    =  1.00D-12  ONEINT  =  1.00D-12  TWOINT  =  1.00D-12  PREFAC  =  1.00D-14  LOCALI  =  1.00D-09  EORDER  =  1.00D-04
 ENERGY  =  0.00D+00  ETEST   =  0.00D+00  EDENS   =  0.00D+00  THRDEDEF=  1.00D-06  GRADIENT=  1.00D-02  STEP    =  1.00D-03
 ORBITAL =  1.00D-05  CIVEC   =  1.00D-05  COEFF   =  1.00D-04  PRINTCI =  5.00D-02  PUNCHCI =  9.90D+01  OPTGRAD =  3.00D-04
 OPTENERG=  1.00D-06  OPTSTEP =  3.00D-04  THRGRAD =  1.00D-10  COMPRESS=  1.00D-11  VARMIN  =  1.00D-07  VARMAX  =  1.00D-03
 THRDOUB =  0.00D+00  THRDIV  =  1.00D-05  THRRED  =  1.00D-07  THRPSP  =  1.00D+00  THRDC   =  1.00D-10  THRCS   =  1.00D-10
 THRNRM  =  1.00D-08  THREQ   =  0.00D+00  THRDE   =  1.00D+00  THRREF  =  1.00D-05  SPARFAC =  1.00D+00  THRDLP  =  1.00D-07
 THRDIA  =  1.00D-10  THRDLS  =  1.00D-07  THRGPS  =  0.00D+00  THRKEX  =  0.00D+00  THRDIS  =  2.00D-01  THRVAR  =  1.00D-10
 THRLOC  =  1.00D-06  THRGAP  =  1.00D-06  THRLOCT = -1.00D+00  THRGAPT = -1.00D+00  THRORB  =  1.00D-06  THRMLTP =  0.00D+00
 THRCPQCI=  1.00D-10  KEXTA   =  0.00D+00  THRCOARS=  0.00D+00  SYMTOL  =  1.00D-06  GRADTOL =  1.00D-06  THROVL  =  1.00D-08
 THRORTH =  1.00D-08  GRID    =  1.00D-06  GRIDMAX =  1.00D-03  DTMAX   =  0.00D+00  THROCCDE=  1.00D-01  THROCCDE=  1.00D-01



 ZUNIT=ANG
 

Geometry recognized as XYZ


 Variable memory set to  512000000 words,  buffer space   230000 words

 SETTING BASIS          =    USERDEF


 Recomputing integrals since basis changed


 Using spherical harmonics



 PROGRAM * SEWARD (Integral evaluation for generally contracted gaussian basis sets)     Author: Roland Lindh, 1990

 Geometry written to block  1 of record 700

 Orientation using atomic masses  
 Molecule type: Atom
 Symmetry elements: X,Y,Z
 Rotational constants:       0.0000000      0.0000000      0.0000000 GHz  (calculated with average atomic masses)

 Point group  D2h 



 ATOMIC COORDINATES

 NR  ATOM    CHARGE       X              Y              Z

   1  F       7.00    0.000000000    0.000000000    0.000000000


          F   CORE POTENTIAL

          p POTENTIAL

 POWERS             1              3              2
 EXPONENTIALS   11.39544       10.49202       10.28681    
 COEFFICIENTS   7.000000       79.76808      -49.49901    

          s - p POTENTIAL

 POWERS             2
 EXPONENTIALS   11.39035    
 COEFFICIENTS   51.39347    


 BASIS DATA

   Nr Sym  Nuc  Type         Exponents   Contraction coefficients

    1.1 Ag    1  1s          71.173909    -0.000057
                             33.399038     0.000363
                             15.672819     0.009533
                              7.354620    -0.127065
                              3.451226     0.011527
                              1.619521     0.290584
                              0.759976     0.448567
                              0.356626     0.312306
                              0.167350     0.065625
    2.1 Ag    1  1s           0.093224     1.000000
    3.1 Ag    1  1s           0.233059     1.000000
    4.1 Ag    1  1s           0.592958     1.000000
    5.1 Ag    1  1s           1.314982     1.000000
    6.1 Ag    1  1s           3.027989     1.000000
    7.1 Ag    1  1s           8.912111     1.000000
    8.1 Ag    1  3d0          0.154716     1.000000
    9.1 Ag    1  3d2+         0.154716     1.000000
   10.1 Ag    1  3d0          0.386789     1.000000
   11.1 Ag    1  3d2+         0.386789     1.000000
   12.1 Ag    1  3d0          1.013215     1.000000
   13.1 Ag    1  3d2+         1.013215     1.000000
   14.1 Ag    1  3d0          2.283487     1.000000
   15.1 Ag    1  3d2+         2.283487     1.000000
   16.1 Ag    1  3d0          4.506522     1.000000
   17.1 Ag    1  3d2+         4.506522     1.000000
   18.1 Ag    1  3d0         10.621414     1.000000
   19.1 Ag    1  3d2+        10.621414     1.000000
   20.1 Ag    1  5g0          0.465489     1.000000
   21.1 Ag    1  5g4+         0.465489     1.000000
   22.1 Ag    1  5g2+         0.465489     1.000000
   23.1 Ag    1  5g0          1.163722     1.000000
   24.1 Ag    1  5g4+         1.163722     1.000000
   25.1 Ag    1  5g2+         1.163722     1.000000
   26.1 Ag    1  5g0          2.896899     1.000000
   27.1 Ag    1  5g4+         2.896899     1.000000
   28.1 Ag    1  5g2+         2.896899     1.000000
   29.1 Ag    1  5g0          6.536467     1.000000
   30.1 Ag    1  5g4+         6.536467     1.000000
   31.1 Ag    1  5g2+         6.536467     1.000000
   32.1 Ag    1  7i6+         1.430488     1.000000
   33.1 Ag    1  7i4+         1.430488     1.000000
   34.1 Ag    1  7i2+         1.430488     1.000000
   35.1 Ag    1  7i0          1.430488     1.000000
   36.1 Ag    1  7i6+         3.576219     1.000000
   37.1 Ag    1  7i4+         3.576219     1.000000
   38.1 Ag    1  7i2+         3.576219     1.000000
   39.1 Ag    1  7i0          3.576219     1.000000
    1.2 B3u   1  2px         27.863051     0.003758
                             13.662475     0.043495
                              6.699310     0.093050
                              3.284965     0.177293
                              1.610762     0.261759
                              0.789827     0.289687
                              0.387287     0.243341
                              0.189904     0.125496
                              0.093118     0.026843
    2.2 B3u   1  2px          0.059586     1.000000
    3.2 B3u   1  2px          0.148966     1.000000
    4.2 B3u   1  2px          0.395349     1.000000
    5.2 B3u   1  2px          0.954550     1.000000
    6.2 B3u   1  2px          2.351442     1.000000
    7.2 B3u   1  2px          3.775099     1.000000
    8.2 B3u   1  4f1+         0.249200     1.000000
    9.2 B3u   1  4f3+         0.249200     1.000000
   10.2 B3u   1  4f1+         0.622999     1.000000
   11.2 B3u   1  4f3+         0.622999     1.000000
   12.2 B3u   1  4f1+         1.574750     1.000000
   13.2 B3u   1  4f3+         1.574750     1.000000
   14.2 B3u   1  4f1+         3.355094     1.000000
   15.2 B3u   1  4f3+         3.355094     1.000000
   16.2 B3u   1  4f1+         7.444477     1.000000
   17.2 B3u   1  4f3+         7.444477     1.000000
   18.2 B3u   1  6h1+         0.782293     1.000000
   19.2 B3u   1  6h3+         0.782293     1.000000
   20.2 B3u   1  6h5+         0.782293     1.000000
   21.2 B3u   1  6h1+         1.955732     1.000000
   22.2 B3u   1  6h3+         1.955732     1.000000
   23.2 B3u   1  6h5+         1.955732     1.000000
   24.2 B3u   1  6h1+         4.954963     1.000000
   25.2 B3u   1  6h3+         4.954963     1.000000
   26.2 B3u   1  6h5+         4.954963     1.000000
    1.3 B2u   1  2py         27.863051     0.003758
                             13.662475     0.043495
                              6.699310     0.093050
                              3.284965     0.177293
                              1.610762     0.261759
                              0.789827     0.289687
                              0.387287     0.243341
                              0.189904     0.125496
                              0.093118     0.026843
    2.3 B2u   1  2py          0.059586     1.000000
    3.3 B2u   1  2py          0.148966     1.000000
    4.3 B2u   1  2py          0.395349     1.000000
    5.3 B2u   1  2py          0.954550     1.000000
    6.3 B2u   1  2py          2.351442     1.000000
    7.3 B2u   1  2py          3.775099     1.000000
    8.3 B2u   1  4f1-         0.249200     1.000000
    9.3 B2u   1  4f3-         0.249200     1.000000
   10.3 B2u   1  4f1-         0.622999     1.000000
   11.3 B2u   1  4f3-         0.622999     1.000000
   12.3 B2u   1  4f1-         1.574750     1.000000
   13.3 B2u   1  4f3-         1.574750     1.000000
   14.3 B2u   1  4f1-         3.355094     1.000000
   15.3 B2u   1  4f3-         3.355094     1.000000
   16.3 B2u   1  4f1-         7.444477     1.000000
   17.3 B2u   1  4f3-         7.444477     1.000000
   18.3 B2u   1  6h1-         0.782293     1.000000
   19.3 B2u   1  6h3-         0.782293     1.000000
   20.3 B2u   1  6h5-         0.782293     1.000000
   21.3 B2u   1  6h1-         1.955732     1.000000
   22.3 B2u   1  6h3-         1.955732     1.000000
   23.3 B2u   1  6h5-         1.955732     1.000000
   24.3 B2u   1  6h1-         4.954963     1.000000
   25.3 B2u   1  6h3-         4.954963     1.000000
   26.3 B2u   1  6h5-         4.954963     1.000000
    1.4 B1g   1  3d2-         0.154716     1.000000
    2.4 B1g   1  3d2-         0.386789     1.000000
    3.4 B1g   1  3d2-         1.013215     1.000000
    4.4 B1g   1  3d2-         2.283487     1.000000
    5.4 B1g   1  3d2-         4.506522     1.000000
    6.4 B1g   1  3d2-        10.621414     1.000000
    7.4 B1g   1  5g2-         0.465489     1.000000
    8.4 B1g   1  5g4-         0.465489     1.000000
    9.4 B1g   1  5g2-         1.163722     1.000000
   10.4 B1g   1  5g4-         1.163722     1.000000
   11.4 B1g   1  5g2-         2.896899     1.000000
   12.4 B1g   1  5g4-         2.896899     1.000000
   13.4 B1g   1  5g2-         6.536467     1.000000
   14.4 B1g   1  5g4-         6.536467     1.000000
   15.4 B1g   1  7i2-         1.430488     1.000000
   16.4 B1g   1  7i6-         1.430488     1.000000
   17.4 B1g   1  7i4-         1.430488     1.000000
   18.4 B1g   1  7i2-         3.576219     1.000000
   19.4 B1g   1  7i6-         3.576219     1.000000
   20.4 B1g   1  7i4-         3.576219     1.000000
    1.5 B1u   1  2pz         27.863051     0.003758
                             13.662475     0.043495
                              6.699310     0.093050
                              3.284965     0.177293
                              1.610762     0.261759
                              0.789827     0.289687
                              0.387287     0.243341
                              0.189904     0.125496
                              0.093118     0.026843
    2.5 B1u   1  2pz          0.059586     1.000000
    3.5 B1u   1  2pz          0.148966     1.000000
    4.5 B1u   1  2pz          0.395349     1.000000
    5.5 B1u   1  2pz          0.954550     1.000000
    6.5 B1u   1  2pz          2.351442     1.000000
    7.5 B1u   1  2pz          3.775099     1.000000
    8.5 B1u   1  4f0          0.249200     1.000000
    9.5 B1u   1  4f2+         0.249200     1.000000
   10.5 B1u   1  4f0          0.622999     1.000000
   11.5 B1u   1  4f2+         0.622999     1.000000
   12.5 B1u   1  4f0          1.574750     1.000000
   13.5 B1u   1  4f2+         1.574750     1.000000
   14.5 B1u   1  4f0          3.355094     1.000000
   15.5 B1u   1  4f2+         3.355094     1.000000
   16.5 B1u   1  4f0          7.444477     1.000000
   17.5 B1u   1  4f2+         7.444477     1.000000
   18.5 B1u   1  6h2+         0.782293     1.000000
   19.5 B1u   1  6h4+         0.782293     1.000000
   20.5 B1u   1  6h0          0.782293     1.000000
   21.5 B1u   1  6h2+         1.955732     1.000000
   22.5 B1u   1  6h4+         1.955732     1.000000
   23.5 B1u   1  6h0          1.955732     1.000000
   24.5 B1u   1  6h2+         4.954963     1.000000
   25.5 B1u   1  6h4+         4.954963     1.000000
   26.5 B1u   1  6h0          4.954963     1.000000
    1.6 B2g   1  3d1+         0.154716     1.000000
    2.6 B2g   1  3d1+         0.386789     1.000000
    3.6 B2g   1  3d1+         1.013215     1.000000
    4.6 B2g   1  3d1+         2.283487     1.000000
    5.6 B2g   1  3d1+         4.506522     1.000000
    6.6 B2g   1  3d1+        10.621414     1.000000
    7.6 B2g   1  5g1+         0.465489     1.000000
    8.6 B2g   1  5g3+         0.465489     1.000000
    9.6 B2g   1  5g1+         1.163722     1.000000
   10.6 B2g   1  5g3+         1.163722     1.000000
   11.6 B2g   1  5g1+         2.896899     1.000000
   12.6 B2g   1  5g3+         2.896899     1.000000
   13.6 B2g   1  5g1+         6.536467     1.000000
   14.6 B2g   1  5g3+         6.536467     1.000000
   15.6 B2g   1  7i5+         1.430488     1.000000
   16.6 B2g   1  7i3+         1.430488     1.000000
   17.6 B2g   1  7i1+         1.430488     1.000000
   18.6 B2g   1  7i5+         3.576219     1.000000
   19.6 B2g   1  7i3+         3.576219     1.000000
   20.6 B2g   1  7i1+         3.576219     1.000000
    1.7 B3g   1  3d1-         0.154716     1.000000
    2.7 B3g   1  3d1-         0.386789     1.000000
    3.7 B3g   1  3d1-         1.013215     1.000000
    4.7 B3g   1  3d1-         2.283487     1.000000
    5.7 B3g   1  3d1-         4.506522     1.000000
    6.7 B3g   1  3d1-        10.621414     1.000000
    7.7 B3g   1  5g1-         0.465489     1.000000
    8.7 B3g   1  5g3-         0.465489     1.000000
    9.7 B3g   1  5g1-         1.163722     1.000000
   10.7 B3g   1  5g3-         1.163722     1.000000
   11.7 B3g   1  5g1-         2.896899     1.000000
   12.7 B3g   1  5g3-         2.896899     1.000000
   13.7 B3g   1  5g1-         6.536467     1.000000
   14.7 B3g   1  5g3-         6.536467     1.000000
   15.7 B3g   1  7i5-         1.430488     1.000000
   16.7 B3g   1  7i3-         1.430488     1.000000
   17.7 B3g   1  7i1-         1.430488     1.000000
   18.7 B3g   1  7i5-         3.576219     1.000000
   19.7 B3g   1  7i3-         3.576219     1.000000
   20.7 B3g   1  7i1-         3.576219     1.000000
    1.8 Au    1  4f2-         0.249200     1.000000
    2.8 Au    1  4f2-         0.622999     1.000000
    3.8 Au    1  4f2-         1.574750     1.000000
    4.8 Au    1  4f2-         3.355094     1.000000
    5.8 Au    1  4f2-         7.444477     1.000000
    6.8 Au    1  6h4-         0.782293     1.000000
    7.8 Au    1  6h2-         0.782293     1.000000
    8.8 Au    1  6h4-         1.955732     1.000000
    9.8 Au    1  6h2-         1.955732     1.000000
   10.8 Au    1  6h4-         4.954963     1.000000
   11.8 Au    1  6h2-         4.954963     1.000000

 NUCLEAR CHARGE:                    7
 NUMBER OF PRIMITIVE AOS:         325
 NUMBER OF SYMMETRY AOS:          220
 NUMBER OF CONTRACTIONS:          188   (  39Ag  +  26B3u +  26B2u +  20B1g +  26B1u +  20B2g +  20B3g +  11Au  )
 NUMBER OF CORE ORBITALS:           0   (   0Ag  +   0B3u +   0B2u +   0B1g +   0B1u +   0B2g +   0B3g +   0Au  )
 NUMBER OF VALENCE ORBITALS:        4   (   1Ag  +   1B3u +   1B2u +   0B1g +   1B1u +   0B2g +   0B3g +   0Au  )


 NUCLEAR REPULSION ENERGY    0.00000000

 EXTRA SYMMETRY OF AOS IN SYMMETRY 1:   1 1 1 1 1 1 1 2 3 2   3 2 3 2 3 2 3 2 3 4   5 6 4 5 6 4 5 6 4 5   6 7 8 910 7 8 910
 EXTRA SYMMETRY OF AOS IN SYMMETRY 2:   1 1 1 1 1 1 1 2 3 2   3 2 3 2 3 2 3 4 5 6   4 5 6 4 5 6
 EXTRA SYMMETRY OF AOS IN SYMMETRY 3:   1 1 1 1 1 1 1 2 3 2   3 2 3 2 3 2 3 4 5 6   4 5 6 4 5 6
 EXTRA SYMMETRY OF AOS IN SYMMETRY 4:   1 1 1 1 1 1 2 3 2 3   2 3 2 3 4 5 6 4 5 6
 EXTRA SYMMETRY OF AOS IN SYMMETRY 5:   1 1 1 1 1 1 1 2 3 2   3 2 3 2 3 2 3 4 5 6   4 5 6 4 5 6
 EXTRA SYMMETRY OF AOS IN SYMMETRY 6:   1 1 1 1 1 1 2 3 2 3   2 3 2 3 4 5 6 4 5 6
 EXTRA SYMMETRY OF AOS IN SYMMETRY 7:   1 1 1 1 1 1 2 3 2 3   2 3 2 3 4 5 6 4 5 6
 EXTRA SYMMETRY OF AOS IN SYMMETRY 8:   1 1 1 1 1 2 3 2 3 2   3

 Eigenvalues of metric

         1 0.413E-04 0.449E-02 0.233E-01 0.233E-01 0.316E-01 0.115E+00 0.115E+00 0.138E+00
         2 0.151E-02 0.119E-01 0.490E-01 0.650E-01 0.650E-01 0.191E+00 0.254E+00 0.254E+00
         3 0.151E-02 0.119E-01 0.490E-01 0.650E-01 0.650E-01 0.191E+00 0.254E+00 0.254E+00
         4 0.233E-01 0.115E+00 0.161E+00 0.161E+00 0.340E+00 0.499E+00 0.499E+00 0.533E+00
         5 0.151E-02 0.119E-01 0.490E-01 0.650E-01 0.650E-01 0.191E+00 0.254E+00 0.254E+00
         6 0.233E-01 0.115E+00 0.161E+00 0.161E+00 0.340E+00 0.499E+00 0.499E+00 0.533E+00
         7 0.233E-01 0.115E+00 0.161E+00 0.161E+00 0.340E+00 0.499E+00 0.499E+00 0.533E+00
         8 0.650E-01 0.254E+00 0.317E+00 0.317E+00 0.687E+00 0.913E+00 0.913E+00 0.150E+01


 Contracted 2-electron integrals neglected if value below      1.0D-12
 AO integral compression algorithm  1   Integral accuracy      1.0D-12

     122.683 MB (compressed) written to integral file ( 48.4%)


 NUMBER OF SORTED TWO-ELECTRON INTEGRALS:   20212815.     BUFFER LENGTH:  32768
 NUMBER OF SEGMENTS:   2  SEGMENT LENGTH:   15998787      RECORD LENGTH: 524288

 Memory used in sort:      16.56 MW

 SORT1 READ    31710950. AND WROTE    13213985. INTEGRALS IN     39 RECORDS. CPU TIME:     1.23 SEC, REAL TIME:     1.64 SEC
 SORT2 READ    13213985. AND WROTE    20212815. INTEGRALS IN    468 RECORDS. CPU TIME:     0.76 SEC, REAL TIME:     1.37 SEC

 FILE SIZES:   FILE 1:   142.6 MBYTE,  FILE 4:   163.6 MBYTE,   TOTAL:    306.2 MBYTE

 OPERATOR DM      FOR CENTER  0  COORDINATES:    0.000000    0.000000    0.000000
 OPERATOR EKIN    FOR CENTER  0  COORDINATES:    0.000000    0.000000    0.000000
 OPERATOR POT     FOR CENTER  0  COORDINATES:    0.000000    0.000000    0.000000


 **********************************************************************************************************************************
 DATASETS  * FILE   NREC   LENGTH (MB)   RECORD NAMES
              1      20       98.81       500      610      700      900      950      970     1000      129      960     1100   
                                          VAR    BASINP    GEOM    SYMINP    ZMAT    AOBASIS   BASIS     P2S    ABASIS      S 
                                         1400     1410     1420     1200     1210     1080     1600     1650     1300     1700   
                                         EKIN       V       ECP      H0       H01     AOSYM     SMH    MOLCAS    ERIS     OPER   

 PROGRAMS   *        TOTAL       INT
 CPU TIMES  *         9.31      9.17
 REAL TIME  *        12.74 SEC
 DISK USED  *       306.53 MB      
 **********************************************************************************************************************************


 PROGRAM * RHF-SCF (OPEN SHELL)       Authors: W. Meyer, H.-J. Werner


 NUMBER OF ELECTRONS:       4+    3-    SPACE SYMMETRY=3    SPIN SYMMETRY: Doublet 
 CONVERGENCE THRESHOLDS:    1.00E-05 (Density)    1.00E-07 (Energy)
 MAX. NUMBER OF ITERATIONS:       60
 INTERPOLATION TYPE:            DIIS
 INTERPOLATION STEPS:              2 (START)      1 (STEP)
 LEVEL SHIFTS:                 -0.60 (CLOSED) -0.30 (OPEN) 


 Singly occupied orbitals:      1.3

   Atom=F  basis=ECP2MWB_GUESS     lmin=0  lmax=1

 Orbital guess generated from atomic densities. Full valence occupancy:    1   1   1   0   1   0   0   0


 Molecular orbital dump at record        4202.2

 ITERATION    DDIFF          GRAD             ENERGY        2-EL.EN.            DIPOLE MOMENTS         DIIS   ORB.
    1      0.000D+00      0.000D+00       -23.90137940     33.727011    0.00000    0.00000    0.00000    0    start
    2      0.000D+00      0.965D-02       -23.90748774     34.273252    0.00000    0.00000    0.00000    1    diag,B
    3      0.232D-02      0.221D-02       -23.90786316     34.234139    0.00000    0.00000    0.00000    2    diag,B
    4      0.808D-03      0.584D-03       -23.90795489     34.247385    0.00000    0.00000    0.00000    3    diag,B
    5      0.276D-03      0.200D-03       -23.90796740     34.248534    0.00000    0.00000    0.00000    4    diag,B
    6      0.138D-03      0.330D-04       -23.90796771     34.247949    0.00000    0.00000    0.00000    5    diag,B
    7      0.252D-04      0.766D-05       -23.90796773     34.247724    0.00000    0.00000    0.00000    6    fixocc
    8      0.683D-05      0.130D-05       -23.90796773     34.247707    0.00000    0.00000    0.00000    0    orth

 Final alpha occupancy:   1   1   1   0   1   0   0   0
 Final beta  occupancy:   1   1   0   0   1   0   0   0

 !RHF STATE 1.3 Energy                -23.907967728265
 Nuclear energy                         0.00000000
 One-electron energy                  -41.03182102
 Two-electron energy                   17.12385329
 Virial quotient                       -1.29006710
 !RHF STATE 1.3 Dipole moment           0.00000000     0.00000000     0.00000000
 Dipole moment /Debye                   0.00000000     0.00000000     0.00000000
 

 !RHF expec          <1.3|EKIN|1.3>    18.532344286227
 
 !RHF expec           <1.3|POT|1.3>    -8.840899364502

 ELECTRON ORBITALS
 =================


   Orb  Occ    Energy  Couls-En    Coefficients

                                   1 1s      1 1s      1 1s      1 1s      1 1s      1 1s      1 1s      1 3d0     1 3d2+    1 3d0  
                                   1 3d2+    1 3d0     1 3d2+    1 3d0     1 3d2+    1 3d0     1 3d2+    1 3d0     1 3d2+    1 5g0  
                                   1 5g4+    1 5g2+    1 5g0     1 5g4+    1 5g2+    1 5g0     1 5g4+    1 5g2+    1 5g0     1 5g4+ 
                                   1 5g2+    1 7i6+    1 7i4+    1 7i2+    1 7i0     1 7i6+    1 7i4+    1 7i2+    1 7i0  

   1.1   2    -1.5590   -7.9872  1.002556  0.000530 -0.001506 -0.000289 -0.001693  0.000277  0.000170  0.000382  0.000662  0.001346
                                 0.002332  0.000468  0.000811  0.000018  0.000031  0.000269  0.000466  0.000131  0.000226 -0.000005
                                -0.000010 -0.000008 -0.000003 -0.000005 -0.000004 -0.000000 -0.000000 -0.000000 -0.000000 -0.000001
                                -0.000000 -0.000000 -0.000000 -0.000000 -0.000000 -0.000000 -0.000000 -0.000000 -0.000000

                                   1 2px     1 2px     1 2px     1 2px     1 2px     1 2px     1 2px     1 4f1+    1 4f3+    1 4f1+ 
                                   1 4f3+    1 4f1+    1 4f3+    1 4f1+    1 4f3+    1 4f1+    1 4f3+    1 6h1+    1 6h3+    1 6h5+ 
                                   1 6h1+    1 6h3+    1 6h5+    1 6h1+    1 6h3+    1 6h5+ 

   1.2   2    -0.7074   -6.3245  1.000045  0.000123 -0.000306  0.000116 -0.000041  0.000072 -0.000053 -0.000161 -0.000625 -0.000485
                                -0.001878 -0.000448 -0.001737 -0.000168 -0.000651 -0.000063 -0.000242  0.000001  0.000004  0.000008
                                 0.000001  0.000003  0.000007  0.000000  0.000001  0.000002

                                   1 2py     1 2py     1 2py     1 2py     1 2py     1 2py     1 2py     1 4f1-    1 4f3-    1 4f1- 
                                   1 4f3-    1 4f1-    1 4f3-    1 4f1-    1 4f3-    1 4f1-    1 4f3-    1 6h1-    1 6h3-    1 6h5- 
                                   1 6h1-    1 6h3-    1 6h5-    1 6h1-    1 6h3-    1 6h5- 

   1.3   +    -0.8366   -6.5434  1.023872 -0.002986 -0.033075 -0.019700  0.007640  0.003601  0.000707 -0.000707 -0.000913 -0.002826
                                -0.003648 -0.002888 -0.003728 -0.001130 -0.001459 -0.000413 -0.000533  0.000021  0.000023  0.000031
                                 0.000021  0.000023  0.000030  0.000006  0.000007  0.000009

                                   1 2pz     1 2pz     1 2pz     1 2pz     1 2pz     1 2pz     1 2pz     1 4f0     1 4f2+    1 4f0  
                                   1 4f2+    1 4f0     1 4f2+    1 4f0     1 4f2+    1 4f0     1 4f2+    1 6h2+    1 6h4+    1 6h0  
                                   1 6h2+    1 6h4+    1 6h0     1 6h2+    1 6h4+    1 6h0  

   1.5   2    -0.7074   -6.3245  1.000045  0.000123 -0.000306  0.000116 -0.000041  0.000072 -0.000053 -0.000395 -0.000511 -0.001188
                                -0.001533 -0.001099 -0.001418 -0.000412 -0.000532 -0.000153 -0.000198  0.000006  0.000005  0.000005
                                 0.000005  0.000004  0.000004  0.000001  0.000001  0.000001

 HOMO      1.2    -0.707377 =     -19.2487eV
 LUMO      2.3     0.133029 =       3.6199eV
 LUMO-HOMO         0.840406 =      22.8686eV


 **********************************************************************************************************************************
 DATASETS  * FILE   NREC   LENGTH (MB)   RECORD NAMES
              1      20       98.81       500      610      700      900      950      970     1000      129      960     1100   
                                          VAR    BASINP    GEOM    SYMINP    ZMAT    AOBASIS   BASIS     P2S    ABASIS      S 
                                         1400     1410     1420     1200     1210     1080     1600     1650     1300     1700   
                                         EKIN       V       ECP      H0       H01     AOSYM     SMH    MOLCAS    ERIS     OPER   

              2       4        2.92       700     1000      520     4202   
                                         GEOM     BASIS   MCVARS     RHF  

 PROGRAMS   *        TOTAL       RHF       INT
 CPU TIMES  *        10.05      0.74      9.17
 REAL TIME  *        13.65 SEC
 DISK USED  *       306.53 MB      
 **********************************************************************************************************************************


 PROGRAM * MULTI (Direct Multiconfiguration SCF)       Authors: P.J. Knowles, H.-J. Werner (1984)     S.T. Elbert (1988)


 Number of closed-shell orbitals:   1 (   1   0   0   0   0   0   0   0 )
 Number of active  orbitals:        3 (   0   1   1   0   1   0   0   0 )
 Number of external orbitals:     184 (  38  25  25  20  25  20  20  11 )

 State symmetry 1

 Number of electrons:     5    Spin symmetry=Doublet   Space symmetry=3
 Number of states:        1
 Number of CSFs:          1   (1 determinants, 3 intermediate states)

 State symmetry 2

 Number of electrons:     5    Spin symmetry=Doublet   Space symmetry=5
 Number of states:        1
 Number of CSFs:          1   (1 determinants, 3 intermediate states)

 State symmetry 3

 Number of electrons:     5    Spin symmetry=Doublet   Space symmetry=2
 Number of states:        1
 Number of CSFs:          1   (1 determinants, 3 intermediate states)

 Iteration controls:
             1  2  3  4  5  6  7  8  9 10 11 12 13 14 15 16 17 18 19 20 21 22 23 24 25 26 27 28 29 30 31 32 33 34 35 36 37 38 39
 DIAGCI      T  T  T  T  T  T  T  T  T  T  T  T  T  T  T  T  T  T  T  T  T  T  T  T  T  T  T  T  T  T  T  T  T  T  T  T  T  T  T
 WERNER      T  T  T  T  T  T  T  T  T  T  T  T  T  T  T  T  T  T  T  T  T  T  T  T  T  T  T  T  T  T  T  T  T  T  T  T  T  T  T
 INTERNAL    F  T  T  T  T  T  T  T  T  T  T  T  T  T  T  T  T  T  T  T  T  T  T  T  T  T  T  T  T  T  T  T  T  T  T  T  T  T  T

 Molecular orbitals read from record     4202.2  Type=RHF/CANONICAL (state 1.3)
 *** IN SYMMETRY 1 ORBITAL  1 SYMMETRY CONTAMINATION OF 0.708D-02 HAS BEEN REMOVED

 EXTRA SYMMETRY OF MOS IN SYMMETRY 1:   1 1 3 2 1 3 2 5 4 6   1 3 2 5 4 6 3 2 1 7   9 810 5 4 6 3 2 1 7   9 810 5 4 6 3 2 1
 *** IN SYMMETRY 2 ORBITAL  1 SYMMETRY CONTAMINATION OF 0.644D-02 HAS BEEN REMOVED
 EXTRA SYMMETRY OF MOS IN SYMMETRY 2:   1 1 1 3 2 1 3 2 6 5   4 1 3 2 1 6 5 4 3 2   1 6 5 4 3 2
 *** IN SYMMETRY 3 ORBITAL  1 SYMMETRY CONTAMINATION OF 0.166D-01 HAS BEEN REMOVED
 EXTRA SYMMETRY OF MOS IN SYMMETRY 3:   1 1 1 3 2 1 3 2 6 4   5 1 3 2 1 6 4 5 3 2   1 6 4 5 3 2
 EXTRA SYMMETRY OF MOS IN SYMMETRY 4:   1 1 3 2 1 3 2 1 5 6   4 3 2 1 5 6 4 3 2 1
 *** IN SYMMETRY 5 ORBITAL  1 SYMMETRY CONTAMINATION OF 0.741D-02 HAS BEEN REMOVED
 EXTRA SYMMETRY OF MOS IN SYMMETRY 5:   1 1 1 3 2 1 3 2 4 5   6 1 3 2 1 4 5 6 3 2   1 4 5 6 3 2
 EXTRA SYMMETRY OF MOS IN SYMMETRY 6:   1 1 3 2 1 3 2 1 4 5   6 3 2 1 4 5 6 3 2 1
 EXTRA SYMMETRY OF MOS IN SYMMETRY 7:   1 1 2 3 1 2 3 1 6 4   5 2 3 1 6 4 5 2 3 1
 EXTRA SYMMETRY OF MOS IN SYMMETRY 8:   1 1 2 3 1 2 3 1 2 3   1

 Wavefunction dump at record             5202.2

 Convergence thresholds  0.10E-01 (gradient)  0.10E-05 (energy)  0.10E-02 (step length)

 Weight factors for state symmetry  1:    0.33333
 Weight factors for state symmetry  2:    0.33333
 Weight factors for state symmetry  3:    0.33333

 Number of orbital rotations:      113   (     0 Core/Active     38 Core/Virtual   0 Active/Active     75 Active/Virtual)
 Total number of variables:        116


 ITER. MIC  NCI  NEG     ENERGY(VAR)     ENERGY(PROJ)   ENERGY CHANGE     GRAD(0)  GRAD(ORB)   GRAD(CI)     STEP       TIME

   1   33   12    0     -23.90403356     -23.90588265   -0.00184909    0.06596129 0.00000000 0.00000000  0.34D-01      0.28
   2   15   12    0     -23.90588378     -23.90588381   -0.00000003    0.00039429 0.00000000 0.00000000  0.10D-03      0.47

 ** WVFN ****  CONVERGENCE REACHED, FINAL GRADIENT:  0.13D-07



 Results for state 1.3
 =====================

 !MCSCF STATE 1.3 Energy              -23.905883813808
 Nuclear energy                         0.00000000
 Kinetic energy                        18.53060521
 One electron energy                  -41.03585808
 Two electron energy                   17.12997427
 Virial ratio                           2.29007572

 !MCSCF STATE 1.3 Dipole moment         0.00000000     0.00000000     0.00000000
 Dipole moment /Debye                   0.00000000     0.00000000     0.00000000



 Results for state 1.5
 =====================

 !MCSCF STATE 1.5 Energy              -23.905883813796
 Nuclear energy                         0.00000000
 Kinetic energy                        18.53060521
 One electron energy                  -41.03585809
 Two electron energy                   17.12997427
 Virial ratio                           2.29007572

 !MCSCF STATE 1.5 Dipole moment         0.00000000     0.00000000     0.00000000
 Dipole moment /Debye                   0.00000000     0.00000000     0.00000000



 Results for state 1.2
 =====================

 !MCSCF STATE 1.2 Energy              -23.905883813796
 Nuclear energy                         0.00000000
 Kinetic energy                        18.53060521
 One electron energy                  -41.03585809
 Two electron energy                   17.12997427
 Virial ratio                           2.29007572

 !MCSCF STATE 1.2 Dipole moment         0.00000000     0.00000000     0.00000000
 Dipole moment /Debye                   0.00000000     0.00000000     0.00000000

 State-averaged charge density matrix saved on record  5202.2 (density set 1)

 !MCSCF expec        <1.3|EKIN|1.3>    18.530605211405
 !MCSCF expec        <1.5|EKIN|1.5>    18.530605212894
 !MCSCF expec        <1.2|EKIN|1.2>    18.530605212894

 !MCSCF expec         <1.3|POT|1.3>    -8.841200754508
 !MCSCF expec         <1.5|POT|1.5>    -8.841200754783
 !MCSCF expec         <1.2|POT|1.2>    -8.841200754783


 NATURAL ORBITALS (state averaged)
 =================================

   Orb     Occ        Energy       Coefficients

                                   1 1s      1 1s      1 1s      1 1s      1 1s      1 1s      1 1s      1 3d0     1 3d2+    1 3d0  
                                   1 3d2+    1 3d0     1 3d2+    1 3d0     1 3d2+    1 3d0     1 3d2+    1 3d0     1 3d2+    1 5g0  
                                   1 5g4+    1 5g2+    1 5g0     1 5g4+    1 5g2+    1 5g0     1 5g4+    1 5g2+    1 5g0     1 5g4+ 
                                   1 5g2+    1 7i6+    1 7i4+    1 7i2+    1 7i0     1 7i6+    1 7i4+    1 7i2+    1 7i0  

   1.1  2.00000    -1.558686     1.002575  0.000508 -0.001406 -0.000312 -0.001772  0.000291  0.000174  0.000000  0.000000  0.000000
                                 0.000000  0.000000  0.000000  0.000000  0.000000  0.000000  0.000000  0.000000  0.000000  0.000000
                                 0.000000  0.000000  0.000000  0.000000  0.000000  0.000000  0.000000  0.000000  0.000000  0.000000
                                 0.000000  0.000000  0.000000  0.000000  0.000000  0.000000  0.000000  0.000000  0.000000

                                   1 2px     1 2px     1 2px     1 2px     1 2px     1 2px     1 2px     1 4f1+    1 4f3+    1 4f1+ 
                                   1 4f3+    1 4f1+    1 4f3+    1 4f1+    1 4f3+    1 4f1+    1 4f3+    1 6h1+    1 6h3+    1 6h5+ 
                                   1 6h1+    1 6h3+    1 6h5+    1 6h1+    1 6h3+    1 6h5+ 

   1.2  1.66667    -0.593302     1.004919 -0.000749 -0.007084 -0.003388  0.001408  0.000698  0.000097  0.000000  0.000000  0.000000
                                 0.000000  0.000000  0.000000  0.000000  0.000000  0.000000  0.000000  0.000000  0.000000  0.000000
                                 0.000000  0.000000  0.000000  0.000000  0.000000  0.000000

                                   1 2py     1 2py     1 2py     1 2py     1 2py     1 2py     1 2py     1 4f1-    1 4f3-    1 4f1- 
                                   1 4f3-    1 4f1-    1 4f3-    1 4f1-    1 4f3-    1 4f1-    1 4f3-    1 6h1-    1 6h3-    1 6h5- 
                                   1 6h1-    1 6h3-    1 6h5-    1 6h1-    1 6h3-    1 6h5- 

   1.3  1.66667    -0.593302     1.004919 -0.000749 -0.007084 -0.003388  0.001408  0.000698  0.000097  0.000000  0.000000  0.000000
                                 0.000000  0.000000  0.000000  0.000000  0.000000  0.000000  0.000000  0.000000  0.000000  0.000000
                                 0.000000  0.000000  0.000000  0.000000  0.000000  0.000000

                                   1 2pz     1 2pz     1 2pz     1 2pz     1 2pz     1 2pz     1 2pz     1 4f0     1 4f2+    1 4f0  
                                   1 4f2+    1 4f0     1 4f2+    1 4f0     1 4f2+    1 4f0     1 4f2+    1 6h2+    1 6h4+    1 6h0  
                                   1 6h2+    1 6h4+    1 6h0     1 6h2+    1 6h4+    1 6h0  

   1.5  1.66667    -0.593302     1.004919 -0.000749 -0.007084 -0.003388  0.001408  0.000698  0.000097  0.000000  0.000000  0.000000
                                 0.000000  0.000000  0.000000  0.000000  0.000000  0.000000  0.000000  0.000000  0.000000  0.000000
                                 0.000000  0.000000  0.000000  0.000000  0.000000  0.000000
 

 EXTRA SYMMETRY OF MOS IN SYMMETRY 1:   1 1 3 2 1 3 2 5 6 4   1 3 2 5 6 4 3 2 1 7   8 910 4 6 5 2 3 1 9  10 8 7 4 6 5 2 3 1
 EXTRA SYMMETRY OF MOS IN SYMMETRY 2:   1 1 1 3 2 1 3 2 6 5   4 1 3 2 1 6 5 4 2 3   1 4 5 6 2 3
 EXTRA SYMMETRY OF MOS IN SYMMETRY 3:   1 1 1 2 3 1 2 3 6 4   5 1 2 3 1 6 4 5 2 3   1 5 4 6 2 3
 EXTRA SYMMETRY OF MOS IN SYMMETRY 4:   1 1 3 2 1 3 2 1 5 6   4 2 3 1 4 6 5 2 3 1
 EXTRA SYMMETRY OF MOS IN SYMMETRY 5:   1 1 1 3 2 1 3 2 5 4   6 1 3 2 1 5 4 6 2 3   1 6 4 5 2 3
 EXTRA SYMMETRY OF MOS IN SYMMETRY 6:   1 1 3 2 1 3 2 1 4 5   6 2 3 1 6 5 4 2 3 1
 EXTRA SYMMETRY OF MOS IN SYMMETRY 7:   1 1 3 2 1 2 3 1 4 6   5 3 2 1 5 6 4 3 2 1
 EXTRA SYMMETRY OF MOS IN SYMMETRY 8:   1 1 2 3 1 2 3 1 3 2   1

 Natural orbital dump (state averaged) at molpro section  5202.2    (Orbital set 2)


 CI vector for state symmetry 1
 ==============================

 2 a 2           1.0000000

 TOTAL ENERGIES                       -23.90588381

 CI vector for state symmetry 2
 ==============================

 2 2 a           1.0000000

 TOTAL ENERGIES                       -23.90588381

 CI vector for state symmetry 3
 ==============================

 a 2 2           1.0000000

 TOTAL ENERGIES                       -23.90588381



 **********************************************************************************************************************************
 DATASETS  * FILE   NREC   LENGTH (MB)   RECORD NAMES
              1      21       99.45       500      610      700      900      950      970     1000      129      960     1100   
                                          VAR    BASINP    GEOM    SYMINP    ZMAT    AOBASIS   BASIS     P2S    ABASIS      S 
                                         1400     1410     1420     1200     1210     1080     1600     1650     1300     1700   
                                         EKIN       V       ECP      H0       H01     AOSYM     SMH    MOLCAS    ERIS     OPER   
                                         1380   
                                         JKOP   

              2       5        5.60       700     1000      520     4202     5202   
                                         GEOM     BASIS   MCVARS     RHF     MCSCF   

 PROGRAMS   *        TOTAL     MULTI       RHF       INT
 CPU TIMES  *        10.73      0.68      0.74      9.17
 REAL TIME  *        15.56 SEC
 DISK USED  *       306.53 MB      
 **********************************************************************************************************************************


 PROGRAM * RHF-SCF (OPEN SHELL)       Authors: W. Meyer, H.-J. Werner


 NUMBER OF ELECTRONS:       4+    3-    SPACE SYMMETRY=3    SPIN SYMMETRY: Doublet 
 CONVERGENCE THRESHOLDS:    1.00E-05 (Density)    1.00E-07 (Energy)
 MAX. NUMBER OF ITERATIONS:        0
 INTERPOLATION TYPE:            DIIS
 INTERPOLATION STEPS:              2 (START)      1 (STEP)
 LEVEL SHIFTS:                 -0.60 (CLOSED) -0.30 (OPEN) 


 Singly occupied orbitals:      1.3
 Molecular orbitals read from record     5202.2  Type=MCSCF/NATURAL (state averaged)

 Molecular orbital dump at record        2101.2

 ITERATION    DDIFF          GRAD             ENERGY        2-EL.EN.            DIPOLE MOMENTS         DIIS   ORB.
    1      0.000D+00      0.000D+00       -23.90588381     34.259949    0.00000    0.00000    0.00000    0    start

 Final alpha occupancy:   1   1   1   0   1   0   0   0
 Final beta  occupancy:   1   1   0   0   1   0   0   0

 !RHF STATE 1.3 Energy                -23.905883813808
 Nuclear energy                         0.00000000
 One-electron energy                  -41.03585808
 Two-electron energy                   17.12997427
 Virial quotient                       -1.29007572
 !RHF STATE 1.3 Dipole moment           0.00000000     0.00000000     0.00000000
 Dipole moment /Debye                   0.00000000     0.00000000     0.00000000
 

 !RHF expec          <1.3|EKIN|1.3>    18.530605211405
 
 !RHF expec           <1.3|POT|1.3>    -8.841200754508

 ELECTRON ORBITALS
 =================


   Orb  Occ    Energy  Couls-En    Coefficients

                                   1 1s      1 1s      1 1s      1 1s      1 1s      1 1s      1 1s      1 3d0     1 3d2+    1 3d0  
                                   1 3d2+    1 3d0     1 3d2+    1 3d0     1 3d2+    1 3d0     1 3d2+    1 3d0     1 3d2+    1 5g0  
                                   1 5g4+    1 5g2+    1 5g0     1 5g4+    1 5g2+    1 5g0     1 5g4+    1 5g2+    1 5g0     1 5g4+ 
                                   1 5g2+    1 7i6+    1 7i4+    1 7i2+    1 7i0     1 7i6+    1 7i4+    1 7i2+    1 7i0  

   1.1   2    -1.5587   -7.9868  1.002575  0.000508 -0.001406 -0.000312 -0.001772  0.000291  0.000174  0.000000  0.000000  0.000000
                                 0.000000  0.000000  0.000000  0.000000  0.000000  0.000000  0.000000  0.000000  0.000000  0.000000
                                 0.000000  0.000000  0.000000  0.000000  0.000000  0.000000  0.000000  0.000000  0.000000  0.000000
                                 0.000000  0.000000  0.000000  0.000000  0.000000  0.000000  0.000000  0.000000  0.000000

                                   1 2px     1 2px     1 2px     1 2px     1 2px     1 2px     1 2px     1 4f1+    1 4f3+    1 4f1+ 
                                   1 4f3+    1 4f1+    1 4f3+    1 4f1+    1 4f3+    1 4f1+    1 4f3+    1 6h1+    1 6h3+    1 6h5+ 
                                   1 6h1+    1 6h3+    1 6h5+    1 6h1+    1 6h3+    1 6h5+ 

   1.2   2    -0.5933   -6.2292  1.004919 -0.000749 -0.007084 -0.003388  0.001408  0.000698  0.000097  0.000000  0.000000  0.000000
                                 0.000000  0.000000  0.000000  0.000000  0.000000  0.000000  0.000000  0.000000  0.000000  0.000000
                                 0.000000  0.000000  0.000000  0.000000  0.000000  0.000000

                                   1 2py     1 2py     1 2py     1 2py     1 2py     1 2py     1 2py     1 4f1-    1 4f3-    1 4f1- 
                                   1 4f3-    1 4f1-    1 4f3-    1 4f1-    1 4f3-    1 4f1-    1 4f3-    1 6h1-    1 6h3-    1 6h5- 
                                   1 6h1-    1 6h3-    1 6h5-    1 6h1-    1 6h3-    1 6h5- 

   1.3   +    -0.5933   -6.2292  1.004919 -0.000749 -0.007084 -0.003388  0.001408  0.000698  0.000097  0.000000  0.000000  0.000000
                                 0.000000  0.000000  0.000000  0.000000  0.000000  0.000000  0.000000  0.000000  0.000000  0.000000
                                 0.000000  0.000000  0.000000  0.000000  0.000000  0.000000

                                   1 2pz     1 2pz     1 2pz     1 2pz     1 2pz     1 2pz     1 2pz     1 4f0     1 4f2+    1 4f0  
                                   1 4f2+    1 4f0     1 4f2+    1 4f0     1 4f2+    1 4f0     1 4f2+    1 6h2+    1 6h4+    1 6h0  
                                   1 6h2+    1 6h4+    1 6h0     1 6h2+    1 6h4+    1 6h0  

   1.5   2    -0.5933   -6.2292  1.004919 -0.000749 -0.007084 -0.003388  0.001408  0.000698  0.000097  0.000000  0.000000  0.000000
                                 0.000000  0.000000  0.000000  0.000000  0.000000  0.000000  0.000000  0.000000  0.000000  0.000000
                                 0.000000  0.000000  0.000000  0.000000  0.000000  0.000000

 HOMO      1.2    -0.593302 =     -16.1446eV
 LUMO      2.2     0.138545 =       3.7700eV
 LUMO-HOMO         0.731847 =      19.9146eV


 **********************************************************************************************************************************
 DATASETS  * FILE   NREC   LENGTH (MB)   RECORD NAMES
              1      21       99.45       500      610      700      900      950      970     1000      129      960     1100   
                                          VAR    BASINP    GEOM    SYMINP    ZMAT    AOBASIS   BASIS     P2S    ABASIS      S 
                                         1400     1410     1420     1200     1210     1080     1600     1650     1300     1700   
                                         EKIN       V       ECP      H0       H01     AOSYM     SMH    MOLCAS    ERIS     OPER   
                                         1380   
                                         JKOP   

              2       6        8.31       700     1000      520     4202     5202     2101   
                                         GEOM     BASIS   MCVARS     RHF     MCSCF     RHF  

 PROGRAMS   *        TOTAL       RHF     MULTI       RHF       INT
 CPU TIMES  *        10.81      0.07      0.68      0.74      9.17
 REAL TIME  *        15.72 SEC
 DISK USED  *       306.53 MB      
 **********************************************************************************************************************************
 SETTING SCF(I)         =       -23.90588381  AU                              
 SETTING _CC_NORM_MAX   =         2.00000000                                  


 PROGRAM * CI (Multireference internally contracted CI)     Authors: H.-J. Werner, P.J. Knowles, 1987


 Convergence thresholds:  THRVAR = 1.00D-08  THRDEN = 1.00D-06

 Number of optimized states:  1  Roots:   1
 Number of reference states:  1  Roots:   1

 Reference symmetry:                   3   Doublet 
 Number of electrons:                  7
 Maximum number of shells:             3
 Maximum number of spin couplings:     5

 Reference space:        1 conf        1 CSFs
 N elec internal:        4 conf        4 CSFs
 N-1 el internal:       10 conf       16 CSFs
 N-2 el internal:        9 conf       27 CSFs

 Number of electrons in valence space:                      7
 Maximum number of open shell orbitals in reference space:  1
 Maximum number of open shell orbitals in internal spaces:  5


 Number of closed-shell orbitals:   3 (   1   1   0   0   1   0   0   0 )
 Number of active  orbitals:        1 (   0   0   1   0   0   0   0   0 )
 Number of external orbitals:     184 (  38  25  25  20  25  20  20  11 )

 Molecular orbitals read from record     2101.2  Type=RHF/CANONICAL (state 1.3)

 Coulomb and exchange operators available. No transformation done.

 Number of p-space configurations:   1

 Reference wavefunction optimized for reference space (refopt=1)

 State     Reference Energy 
   1         -23.90588381

 Number of blocks in overlap matrix:    15   Smallest eigenvalue:  0.10D+01
 Number of N-2 electron functions:      15
 Number of N-1 electron functions:      16

 Number of internal configurations:                    1
 Number of singly external configurations:           378
 Number of doubly external configurations:         32616
 Total number of contracted configurations:        32995
 Total number of uncontracted configurations:      58879

 Diagonal Coupling coefficients finished.               Storage:     982 words, CPU-Time:      0.00 seconds.
 Energy denominators for pairs finished in 1 passes.    Storage:   32095 words, CPU-time:      0.00 seconds.

  ITER. STATE  ROOT     SQ.NORM     CORR.ENERGY   TOTAL ENERGY   ENERGY CHANGE       DEN1      VAR(S)    VAR(P)      TIME
    1     1     1     1.00000000     0.00000000   -23.90588381    -0.00000000    -0.26604282  0.82D-02  0.34D-01     0.02
    2     1     1     1.03670060    -0.24680158   -24.15268539    -0.24680158    -0.00233556  0.27D-03  0.21D-03     0.33
    3     1     1     1.03828357    -0.24937009   -24.15525391    -0.00256851    -0.00009965  0.14D-04  0.14D-04     0.64
    4     1     1     1.03922165    -0.24949441   -24.15537823    -0.00012432    -0.00000496  0.83D-06  0.52D-06     0.96
    5     1     1     1.03933405    -0.24950027   -24.15538408    -0.00000585    -0.00000018  0.39D-07  0.21D-07     1.28
    6     1     1     1.03933586    -0.24950048   -24.15538429    -0.00000021    -0.00000001  0.15D-08  0.12D-08     1.59


 =====================================
 Analysis of CPU times by interactions
 =====================================

       I      S      P

 I   0.0%
 S   0.0%   0.6%
 P   0.0%   0.6%   2.5%

 Initialization:   1.2%
 Other:           95.0%

 Total CPU:        1.6 seconds
 =====================================



 Reference coefficients greater than 0.0500000
 =============================================
 22/2           0.9808939



 RESULTS FOR STATE 1.3
 =====================

 Coefficient of reference function:   C(0) = 0.98089392 (fixed)   0.98089392 (relaxed)

 Energy contributions of configuration classes

 CLASS          SQ.NORM        ECORR1        ECORR2
 +++++++++++++++++++++++++++++++++++++++++++++++++++
 Internals    0.00000000    0.00000000   -0.00000000
 Singles      0.00802738   -0.02741698   -0.02830851
 Pairs        0.03130848   -0.22208350   -0.22119197
 Total        1.03933586   -0.24950048   -0.24950048
 +++++++++++++++++++++++++++++++++++++++++++++++++++


 Reference energy                     -23.90588381
 Nuclear energy                         0.00000000
 Kinetic energy                        18.74836844
 One electron energy                  -40.79076664
 Two electron energy                   16.63538235
 Virial quotient                       -1.28839927
 Correlation energy                    -0.24950048
 !CI(SD) STATE 1.3 Energy             -24.155384291897

 Properties without orbital relaxation:

 !CI(SD) STATE 1.3 Dipole moment        0.00000000     0.00000000     0.00000000
 Dipole moment /Debye                   0.00000000     0.00000000     0.00000000

 Cluster corrected energies           -24.16519861 (Davidson, fixed reference)
 Cluster corrected energies           -24.16519861 (Davidson, relaxed reference)

 Cluster corrected energies           -24.16201176 (Pople, fixed reference)
 Cluster corrected energies           -24.16201176 (Pople, relaxed reference)

 

 !CI(SD) expec       <1.3|EKIN|1.3>    18.748368438979
 
 !CI(SD) expec        <1.3|POT|1.3>    -8.839585351896


 **********************************************************************************************************************************
 DATASETS  * FILE   NREC   LENGTH (MB)   RECORD NAMES
              1      21       99.45       500      610      700      900      950      970     1000      129      960     1100   
                                          VAR    BASINP    GEOM    SYMINP    ZMAT    AOBASIS   BASIS     P2S    ABASIS      S 
                                         1400     1410     1420     1200     1210     1080     1600     1650     1300     1700   
                                         EKIN       V       ECP      H0       H01     AOSYM     SMH    MOLCAS    ERIS     OPER   
                                         1380   
                                         JKOP   

              2       6        8.31       700     1000      520     4202     5202     2101   
                                         GEOM     BASIS   MCVARS     RHF     MCSCF     RHF  

 PROGRAMS   *        TOTAL        CI       RHF     MULTI       RHF       INT
 CPU TIMES  *        12.45      1.63      0.07      0.68      0.74      9.17
 REAL TIME  *        18.07 SEC
 DISK USED  *       306.53 MB      
 **********************************************************************************************************************************
 SETTING POSTHF(I)      =       -24.15538429  AU                              
                                                                                                                                                                                                                                                                

        SCF            POSTHF        EKIN          POT
    -23.90588381   -24.15538429   18.74836844   -8.83958535
                                                  

 CI/USERDEF energy=    -24.155384291897

        CI              RHF-SCF         MULTI           RHF-SCF 
    -24.15538429    -23.90588381    -23.90588381    -23.90796773
 **********************************************************************************************************************************
 Variable memory released
