TACC:  Starting up job 2983012 
TACC:  Starting parallel tasks... 
  Input file(s): Ca.log.qmc.in-wfj.xml 

=====================================================
                    QMCPACK 3.6.0

       (c) Copyright 2003-  QMCPACK developers

                    Please cite:
 J. Kim et al. J. Phys. Cond. Mat. 30 195901 (2018)
      https://doi.org/10.1088/1361-648X/aab9c3

  Git branch: develop
  Last git commit: 278b2da505fe49852d465a6e4d7961918d794c87
  Last git commit date: Thu Feb 14 11:22:02 2019 -0500
  Last git commit subject: Merge pull request #1379 from ye-luo/raise-boost-version
=====================================================
  Global options 

  MPI Nodes             = 1024
  MPI Nodes per group   = 1024
  MPI Group ID          = 0
  OMP 1st level threads = 1
  OMP nested threading disabled or only 1 thread on the 2nd level

  Precision used in this calculation, see definitions in the manual:
  Base precision      = double
  Full precision      = double

  Structure-of-arrays (SoA) optimization enabled

  Input XML = Ca.log.qmc.in-wfj.xml

  Project = Ca.log
  date    = 2019-02-21 13:51:19 CST
  host    = c456-002.stampede2.tacc.utexas.edu

 Random Number
 -------------
  Offset for the random number seeds based on time: 311

  Range of prime numbers to use as seeds over processors and threads = 2081-11027


 Particle Set 
 ------------
  Name: ion0
  All the species have the same mass 1
  Particle set size: 1

 Particle Set 
 ------------
  Name: e
  All the species have the same mass 1
  Particle set size: 10

 Wavefunction setup: 
 ------------------- 
  Name: psi0
  LCAO: SoaAtomicBasisSet<MultiQuintic,0>

  Distance table for similar particles (A-A):
    source/target: e
    Using structure-of-arrays (SoA) data layout
    Distance computations use open boundary conditions in 3D.


  Distance table for dissimilar particles (A-B):
    source: ion0  target: e
    Using structure-of-arrays (SoA) data layout
    Distance computations use open boundary conditions in 3D.

Reading BasisSet from HDF5 file:Ca.log.orbs.h5
<input node="atomicBasisSet" name="Gaussian" expandYlm="Gamess" angular="cartesian" elementType="Ca" normalized="no" type="Numerical" expM="0" />
  AO BasisSet for Ca
   Angular momentum expanded in cartesian functions x^lx y^ly z^lz according to Gamess
   Grid is created by the input paremters in h5
    Using log grid ri = 1e-06 rf = 100 npts = 1001
   R(n,l,m,s) 0 0 0 0
   R(n,l,m,s) 1 0 0 0
   R(n,l,m,s) 2 1 0 0
   R(n,l,m,s) 3 1 0 0
   R(n,l,m,s) 4 2 0 0
   R(n,l,m,s) 5 0 0 0
   R(n,l,m,s) 6 0 0 0
   R(n,l,m,s) 7 1 0 0
   R(n,l,m,s) 8 1 0 0
   R(n,l,m,s) 9 2 0 0
   R(n,l,m,s) 10 0 0 0
   R(n,l,m,s) 11 0 0 0
   R(n,l,m,s) 12 1 0 0
   R(n,l,m,s) 13 1 0 0
   R(n,l,m,s) 14 2 0 0
Expanding Ylm (angular function) according to Gamess using cartesian gaussians
Adding 1 cartesian gaussian orbitals for l= 0
Adding 1 cartesian gaussian orbitals for l= 0
Adding 3 cartesian gaussian orbitals for l= 1
Adding 3 cartesian gaussian orbitals for l= 1
Adding 6 cartesian gaussian orbitals for l= 2
Adding 1 cartesian gaussian orbitals for l= 0
Adding 1 cartesian gaussian orbitals for l= 0
Adding 3 cartesian gaussian orbitals for l= 1
Adding 3 cartesian gaussian orbitals for l= 1
Adding 6 cartesian gaussian orbitals for l= 2
Adding 1 cartesian gaussian orbitals for l= 0
Adding 1 cartesian gaussian orbitals for l= 0
Adding 3 cartesian gaussian orbitals for l= 1
Adding 3 cartesian gaussian orbitals for l= 1
Adding 6 cartesian gaussian orbitals for l= 2
  Setting cutoff radius 22.9087

   Maximum Angular Momentum  = 2
   Number of Radial functors = 15
   Basis size                = 42

  Created SPOSet builder named 'LCAOBSet' of type molecularorbital
Reuse SPOSetBuilder "LCAOBSet" type MolecularOrbital
  Building SPOSet '' with '' basis set.
Reuse SPOSetBuilder "LCAOBSet" type MolecularOrbital
  Building SPOSet '' with '' basis set.
  Creating a determinant updet group=0 sposet=updet
  Reusing a SPO set updet
Using DiracDeterminant
Using rank-1 Sherman-Morrison Fahy update

  Creating a determinant downdet group=1 sposet=downdet
  Reusing a SPO set downdet
Using DiracDeterminant
Using rank-1 Sherman-Morrison Fahy update

  FermionWF = SlaterDet
  RadialJastrowBuilder adds a functor with cusp = -0.25
 size = 10 parameters 
 cusp = -0.25
 rcut = 15
Parameter     Name      Value
uu_0 0 1 1  ON 0
uu_1 0 1 1  ON 1
uu_2 0 1 1  ON 2
uu_3 0 1 1  ON 3
uu_4 0 1 1  ON 4
uu_5 0 1 1  ON 5
uu_6 0 1 1  ON 6
uu_7 0 1 1  ON 7
uu_8 0 1 1  ON 8
uu_9 0 1 1  ON 9
  RadialJastrowBuilder adds a functor with cusp = -0.5
 size = 10 parameters 
 cusp = -0.5
 rcut = 15
Parameter     Name      Value
ud_0 0 1 1  ON 0
ud_1 0 1 1  ON 1
ud_2 0 1 1  ON 2
ud_3 0 1 1  ON 3
ud_4 0 1 1  ON 4
ud_5 0 1 1  ON 5
ud_6 0 1 1  ON 6
ud_7 0 1 1  ON 7
ud_8 0 1 1  ON 8
ud_9 0 1 1  ON 9
 size = 10 parameters 
 cusp = 0
 rcut = 15
Parameter     Name      Value
eCa_0 0 1 1  ON 0
eCa_1 0 1 1  ON 1
eCa_2 0 1 1  ON 2
eCa_3 0 1 1  ON 3
eCa_4 0 1 1  ON 4
eCa_5 0 1 1  ON 5
eCa_6 0 1 1  ON 6
eCa_7 0 1 1  ON 7
eCa_8 0 1 1  ON 8
eCa_9 0 1 1  ON 9
Expected 26 parameters, but found 0 in PolynomialFunctor3D.
Expected 26 parameters, but found 0 in PolynomialFunctor3D.
  QMCHamiltonian::addOperator Kinetic to H, physical Hamiltonian 
  QMCHamiltonian::addOperator ElecElec to H, physical Hamiltonian 
QMCHamiltonian::addOperatorType added type coulomb named ElecElec
  CoulombAA for ion0 is not created.  Number of particles == 1 and nonPeriodic

  ECPotential builder for pseudopotential 

  Adding pseudopotential for Ca
   Linear grid  ri=0 rf=10 npts = 10001
    ECPComponentBuilder::buildSemiLocalAndLocal 
    Assuming Hartree unit
   Number of angular momentum channels 3
   Maximum angular momentum channel 2
   Creating a Linear Grid Rmax=1.865
  Using global grid with delta = 0.001
   Making L=2 a local potential with a radial cutoff of 9.999
    Non-local pseudopotential parameters
    Maximum angular mementum = 1
    Number of non-local channels = 2
       l(0)=0
       l(1)=1
    Cutoff radius = 1.865
    Spherical grids and weights: 
                        1                 0                 0       0.08333333333
                       -1   1.224646799e-16                 0       0.08333333333
             0.4472135955       0.894427191                 0       0.08333333333
            -0.4472135955      0.7236067977      0.5257311121       0.08333333333
             0.4472135955      0.2763932023      0.8506508084       0.08333333333
            -0.4472135955     -0.2763932023      0.8506508084       0.08333333333
             0.4472135955     -0.7236067977      0.5257311121       0.08333333333
            -0.4472135955      -0.894427191   1.095357397e-16       0.08333333333
             0.4472135955     -0.7236067977     -0.5257311121       0.08333333333
            -0.4472135955     -0.2763932023     -0.8506508084       0.08333333333
             0.4472135955      0.2763932023     -0.8506508084       0.08333333333
            -0.4472135955      0.7236067977     -0.5257311121       0.08333333333
    Maximum cutoff radius 1.865
  QMCHamiltonian::addOperator LocalECP to H, physical Hamiltonian 

  Using NonLocalECP potential 
    Maximum grid on a sphere for NonLocalECPotential: 12
  QMCHamiltonian::addOperator NonLocalECP to H, physical Hamiltonian 
QMCHamiltonian::addOperatorType added type pseudo named PseudoPot

  QMCHamiltonian::add2WalkerProperty added
    4 to P::PropertyList 
    0 to P::Collectables 
    starting Index of the observables in P::PropertyList = 9
ParticleSetPool::randomize 
<init source="ion0" target="e">
</init>
  Initialization Execution time = 1.657 secs
=========================================================
 Summary of QMC systems 
=========================================================
ParticleSetPool has: 

  ParticleSet e : 0 5 10 

    10

    u  9.6685247172e-02 -2.6792371047e+00  2.0118209732e+00
    u  5.0566180158e-01 -1.2779667170e+00 -1.7827355013e-02
    u -1.1464061661e+00 -1.6297980293e+00 -2.1266866797e+00
    u  3.7596011666e-01 -5.3739448541e-01 -1.1537890102e+00
    u -1.9291925830e+00 -1.8366524616e-01  1.6971848662e+00
    d -3.8838514461e+00  2.4878721832e+00 -2.1530221175e+00
    d -5.1011621199e-01  7.0647462150e-01  1.2143306035e+00
    d  4.0162799998e-01  8.0375947043e-02  5.6440019623e-01
    d -1.2963878642e+00  1.1998512681e+00  1.5070190156e+00
    d  8.5862076891e-01  1.3041023698e+00 -3.3224713176e+00

  ParticleSet ion0 : 0 1 

    1

    Ca  0.0000000000e+00  0.0000000000e+00  0.0000000000e+00

  Hamiltonian h0
  Kinetic         Kinetic energy
  ElecElec        CoulombAA source/target e

  LocalECP        LocalECPotential: ion0
  NonLocalECP     NonLocalECPotential: ion0

=========================================================
  Start VMC
  File Root Ca.log.s000 append = no 
=========================================================
  Adding 1 walkers to 0 existing sets
  Total number of walkers: 1.0240000000e+03
  Total weight: 1.0240000000e+03
  Resetting Properties of the walkers 1 x 13

<vmc function="put">
  qmc_counter=0  my_counter=0
  time step      = 1.5000000000e-01
  blocks         = 200
  steps          = 1
  substeps       = 5
  current        = 0
  target samples = 1.0240000000e+03
  walkers/mpi    = 1

  stepsbetweensamples = 200
<parameter name="blocks" condition="int">200</parameter>
<parameter name="blocks_between_recompute" condition="int">0</parameter>
<parameter name="check_properties" condition="int">100</parameter>
<parameter name="checkproperties" condition="int">100</parameter>
<parameter name="current" condition="int">0</parameter>
<parameter name="dmcwalkersperthread" condition="real">1.0000000000e+00</parameter>
<parameter name="maxcpusecs" condition="real">3.6000000000e+05</parameter>
<parameter name="record_configs" condition="int">0</parameter>
<parameter name="record_walkers" condition="int">200</parameter>
<parameter name="recordconfigs" condition="int">0</parameter>
<parameter name="recordwalkers" condition="int">200</parameter>
<parameter name="rewind" condition="int">0</parameter>
<parameter name="samples" condition="real">1.0240000000e+03</parameter>
<parameter name="samplesperthread" condition="real">1.0000000000e+00</parameter>
<parameter name="steps" condition="int">1</parameter>
<parameter name="stepsbetweensamples" condition="int">200</parameter>
<parameter name="store_configs" condition="int">0</parameter>
<parameter name="storeconfigs" condition="int">0</parameter>
<parameter name="sub_steps" condition="int">5</parameter>
<parameter name="substeps" condition="int">5</parameter>
<parameter name="tau" condition="au">1.5000000000e-01</parameter>
<parameter name="time_step" condition="au">1.5000000000e-01</parameter>
<parameter name="timestep" condition="au">1.5000000000e-01</parameter>
<parameter name="use_drift" condition="string">no</parameter>
<parameter name="usedrift" condition="string">no</parameter>
<parameter name="walkers" condition="int">1</parameter>
<parameter name="warmup_steps" condition="int">100</parameter>
<parameter name="warmupsteps" condition="int">100</parameter>
  DumpConfig==false Nothing (configurations, state) will be saved.
  Walker Samples are dumped every 200 steps.
</vmc>
  Initial partition of walkers 0 1 

  Using Particle by Particle moves
  Walker moves without drift
  Total Sample Size   =1024
  Walker distribution on root = 0 1 
  Using Locality Approximation
===== Memory Usage after the buffer registration =====
Available memory on node 0, free + buffers : 82729 MB
Memory footprint by rank 0 on node 0       : 74 MB
==================================================
  Anonymous Buffer size per walker : 4352 Bytes.
MEMORY increase 0 MB VMC::resetRun
====================================================
  SimpleFixedNodeBranch::finalize after a VMC block
    QMC counter        = 0
    time step          = 0.15
    reference energy   = -36.4257
    reference variance = 1.07619
====================================================
  QMC Execution time = 2.3964e+00 secs
Loop execution max-interations = 5

=========================================================
  Start QMCFixedSampleLinearOptimize
  File Root Ca.log.s001 append = no 
=========================================================
  Skip QMCDriver::putQMCInfo 
  Resetting Properties of the walkers 1 x 13

=========================================================
  Start VMC
  File Root Ca.log.s001 append = no 
=========================================================
  Using the current 1 walkers.
  Total number of walkers: 1.0240e+03
  Total weight: 1.0240e+03
  Resetting Properties of the walkers 1 x 13

<vmc function="put">
  qmc_counter=0  my_counter=0
  time step      = 1.5000e-01
  blocks         = 200
  steps          = 2
  substeps       = 5
  current        = 0
  target samples = 2.5600e+05
  walkers/mpi    = 1

  stepsbetweensamples = 1
<parameter name="blocks" condition="int">200</parameter>
<parameter name="blocks_between_recompute" condition="int">0</parameter>
<parameter name="check_properties" condition="int">100</parameter>
<parameter name="checkproperties" condition="int">100</parameter>
<parameter name="current" condition="int">0</parameter>
<parameter name="dmcwalkersperthread" condition="real">2.5000e+02</parameter>
<parameter name="maxcpusecs" condition="real">3.6000e+05</parameter>
<parameter name="record_configs" condition="int">0</parameter>
<parameter name="record_walkers" condition="int">1</parameter>
<parameter name="recordconfigs" condition="int">0</parameter>
<parameter name="recordwalkers" condition="int">1</parameter>
<parameter name="rewind" condition="int">0</parameter>
<parameter name="samples" condition="real">2.5600e+05</parameter>
<parameter name="samplesperthread" condition="real">2.5000e+02</parameter>
<parameter name="steps" condition="int">2</parameter>
<parameter name="stepsbetweensamples" condition="int">1</parameter>
<parameter name="store_configs" condition="int">0</parameter>
<parameter name="storeconfigs" condition="int">0</parameter>
<parameter name="sub_steps" condition="int">5</parameter>
<parameter name="substeps" condition="int">5</parameter>
<parameter name="tau" condition="au">1.5000e-01</parameter>
<parameter name="time_step" condition="au">1.5000e-01</parameter>
<parameter name="timestep" condition="au">1.5000e-01</parameter>
<parameter name="use_drift" condition="string">no</parameter>
<parameter name="usedrift" condition="string">no</parameter>
<parameter name="walkers" condition="int">1</parameter>
<parameter name="warmup_steps" condition="int">0</parameter>
<parameter name="warmupsteps" condition="int">0</parameter>
  DumpConfig==false Nothing (configurations, state) will be saved.
  Walker Samples are dumped every 1 steps.
</vmc>
    Restarting, cummulative properties:
      energy     = -3.6426e+01
      variance   = 0.0000e+00
      r2accepted = 1.0000e-10
      r2proposed = 1.0000e-10
 Using QMCCostFunction::QMCCostFunction
  EstimatorManagerBase::add replace LocalEnergy estimator.
<optimization-report>
<vmc stage="main" blocks="200">
  Cannot make clones again. Use existing 1 clones
  Initial partition of walkers 0 1 

  Using Particle by Particle moves
  Walker moves without drift
  Total Sample Size   =256000
  Walker distribution on root = 0 1 
  Using Locality Approximation
===== Memory Usage after the buffer registration =====
Available memory on node 0, free + buffers : 82710 MB
Memory footprint by rank 0 on node 0       : 74 MB
==================================================
  Anonymous Buffer size per walker : 4352 Bytes.
MEMORY increase 0 MB VMC::resetRun
====================================================
  SimpleFixedNodeBranch::finalize after a VMC block
    QMC counter        = 1
    time step          = 0.15
    reference energy   = -36.5099
    reference variance = 1.0317
====================================================
  Execution time = 1.5722e+00
</vmc>
<opt stage="setup">
  <log>
   Reading configurations from h5FileRoot Ca.log.s001
  QMCCostFunction is created with 1 threads.
  Using Nonlocal PP in Opt: NonLocalECP
   Number of samples loaded to each thread : 250 
  VMC Eavg = -3.6461e+01
  VMC Evar = 1.0972e+00
  Total weights = 2.5600e+05
  Execution time = 1.8712e-01
  </log>
</opt>
<opt stage="main" walkers="256000">
  <log>

*****************************************
Building overlap and Hamiltonian matrices
*****************************************

Among totally 30 optimized parameters, largest LM parameter change : 7.8451e-01 at parameter 20

******************************************************************************
Init Cost =   1.0972e+00    New Cost =   4.9869e-01  Delta Cost =  -5.9853e-01
******************************************************************************

The new set of parameters is valid. Updating the trial wave function!

*****************************************************************************
Applying the update for shift_i =   1.0000e-02     and shift_s =   2.5000e-01
*****************************************************************************
  Execution time = 2.6049e+00
  </log>
  <optVariables href="Ca.log.s001.opt.xml">
uu_0 1.7818e-01 1 1  ON 0
uu_1 7.2749e-03 1 1  ON 1
uu_2 -4.2401e-02 1 1  ON 2
uu_3 -5.4387e-02 1 1  ON 3
uu_4 -4.8497e-02 1 1  ON 4
uu_5 -3.3412e-02 1 1  ON 5
uu_6 -7.8996e-03 1 1  ON 6
uu_7 8.2644e-03 1 1  ON 7
uu_8 1.4558e-02 1 1  ON 8
uu_9 1.4969e-03 1 1  ON 9
ud_0 2.8788e-01 1 1  ON 10
ud_1 4.3100e-02 1 1  ON 11
ud_2 -6.8254e-03 1 1  ON 12
ud_3 -3.7071e-02 1 1  ON 13
ud_4 -4.1350e-02 1 1  ON 14
ud_5 -4.7487e-02 1 1  ON 15
ud_6 -4.3507e-02 1 1  ON 16
ud_7 -4.3031e-02 1 1  ON 17
ud_8 -3.3655e-02 1 1  ON 18
ud_9 -2.4033e-02 1 1  ON 19
eCa_0 -7.8451e-01 1 1  ON 20
eCa_1 -2.6059e-01 1 1  ON 21
eCa_2 1.1768e-01 1 1  ON 22
eCa_3 2.5462e-01 1 1  ON 23
eCa_4 2.8341e-01 1 1  ON 24
eCa_5 2.2418e-01 1 1  ON 25
eCa_6 1.2379e-01 1 1  ON 26
eCa_7 4.5398e-02 1 1  ON 27
eCa_8 5.3807e-03 1 1  ON 28
eCa_9 -3.2167e-03 1 1  ON 29
  </optVariables>
   Restore the number of walkers to 1, removing 0 walkers.
</opt>
</optimization-report>
  QMC Execution time = 2.6345e+00 secs
  Reusing QMCFixedSampleLinearOptimize
 Using QMCCostFunction::QMCCostFunction

=========================================================
  Start QMCFixedSampleLinearOptimize
  File Root Ca.log.s002 append = no 
=========================================================
  Skip QMCDriver::putQMCInfo 
  Resetting Properties of the walkers 1 x 13

=========================================================
  Start VMC
  File Root Ca.log.s002 append = no 
=========================================================
Using existing walkers 
  Resetting Properties of the walkers 1 x 13

<vmc function="put">
  qmc_counter=1  my_counter=1
  time step      = 1.5000e-01
  blocks         = 200
  steps          = 2
  substeps       = 5
  current        = 0
  target samples = 2.5600e+05
  walkers/mpi    = 1

  stepsbetweensamples = 1
<parameter name="blocks" condition="int">200</parameter>
<parameter name="blocks_between_recompute" condition="int">0</parameter>
<parameter name="check_properties" condition="int">100</parameter>
<parameter name="checkproperties" condition="int">100</parameter>
<parameter name="current" condition="int">0</parameter>
<parameter name="dmcwalkersperthread" condition="real">2.5000e+02</parameter>
<parameter name="maxcpusecs" condition="real">3.6000e+05</parameter>
<parameter name="record_configs" condition="int">0</parameter>
<parameter name="record_walkers" condition="int">1</parameter>
<parameter name="recordconfigs" condition="int">0</parameter>
<parameter name="recordwalkers" condition="int">1</parameter>
<parameter name="rewind" condition="int">0</parameter>
<parameter name="samples" condition="real">2.5600e+05</parameter>
<parameter name="samplesperthread" condition="real">2.5000e+02</parameter>
<parameter name="steps" condition="int">2</parameter>
<parameter name="stepsbetweensamples" condition="int">1</parameter>
<parameter name="store_configs" condition="int">0</parameter>
<parameter name="storeconfigs" condition="int">0</parameter>
<parameter name="sub_steps" condition="int">5</parameter>
<parameter name="substeps" condition="int">5</parameter>
<parameter name="tau" condition="au">1.5000e-01</parameter>
<parameter name="time_step" condition="au">1.5000e-01</parameter>
<parameter name="timestep" condition="au">1.5000e-01</parameter>
<parameter name="use_drift" condition="string">no</parameter>
<parameter name="usedrift" condition="string">no</parameter>
<parameter name="walkers" condition="int">1</parameter>
<parameter name="warmup_steps" condition="int">0</parameter>
<parameter name="warmupsteps" condition="int">0</parameter>
  DumpConfig==false Nothing (configurations, state) will be saved.
  Walker Samples are dumped every 1 steps.
</vmc>
  EstimatorManagerBase::add replace LocalEnergy estimator.
  EstimatorManagerBase::add replace LocalEnergy estimator.
<optimization-report>
<vmc stage="main" blocks="200">
  Cannot make clones again. Use existing 1 clones
  Initial partition of walkers 0 1 
  Using Particle by Particle moves
  Walker moves without drift
  Total Sample Size   =256000
  Walker distribution on root = 0 1 
  Using Locality Approximation
===== Memory Usage after the buffer registration =====
Available memory on node 0, free + buffers : 82697 MB
Memory footprint by rank 0 on node 0       : 76 MB
==================================================
====================================================
  SimpleFixedNodeBranch::finalize after a VMC block
    QMC counter        = 2
    time step          = 0.15
    reference energy   = -36.5876
    reference variance = 0.530117
====================================================
  Execution time = 2.9343e+00
</vmc>
<opt stage="setup">
  <log>
   Reading configurations from h5FileRoot Ca.log.s002
  QMCCostFunction is created with 1 threads.
  Using Nonlocal PP in Opt: NonLocalECP
   Number of samples loaded to each thread : 250 
  VMC Eavg = -3.6620e+01
  VMC Evar = 4.3252e-01
  Total weights = 2.5600e+05
  Execution time = 8.0074e-01
  </log>
</opt>
<opt stage="main" walkers="256000">
  <log>

*****************************************
Building overlap and Hamiltonian matrices
*****************************************

Among totally 30 optimized parameters, largest LM parameter change : 4.9116e-01 at parameter 20

******************************************************************************
Init Cost =   4.3252e-01    New Cost =   4.6995e-01  Delta Cost =   3.7431e-02
******************************************************************************

The new set of parameters is valid. Updating the trial wave function!

*****************************************************************************
Applying the update for shift_i =   1.0000e-02     and shift_s =   6.2500e-02
*****************************************************************************
  Execution time = 4.5532e+00
  </log>
  <optVariables href="Ca.log.s002.opt.xml">
uu_0 2.5364e-01 1 1  ON 0
uu_1 1.9480e-02 1 1  ON 1
uu_2 -6.5575e-02 1 1  ON 2
uu_3 -9.3392e-02 1 1  ON 3
uu_4 -8.5859e-02 1 1  ON 4
uu_5 -6.0700e-02 1 1  ON 5
uu_6 -1.2829e-02 1 1  ON 6
uu_7 2.4651e-02 1 1  ON 7
uu_8 3.2429e-02 1 1  ON 8
uu_9 1.3701e-02 1 1  ON 9
ud_0 4.2470e-01 1 1  ON 10
ud_1 1.0041e-01 1 1  ON 11
ud_2 6.7232e-03 1 1  ON 12
ud_3 -5.0251e-02 1 1  ON 13
ud_4 -6.6239e-02 1 1  ON 14
ud_5 -8.4611e-02 1 1  ON 15
ud_6 -8.3693e-02 1 1  ON 16
ud_7 -8.4609e-02 1 1  ON 17
ud_8 -6.9030e-02 1 1  ON 18
ud_9 -3.8764e-02 1 1  ON 19
eCa_0 -1.2757e+00 1 1  ON 20
eCa_1 -5.2355e-01 1 1  ON 21
eCa_2 1.1038e-01 1 1  ON 22
eCa_3 4.1089e-01 1 1  ON 23
eCa_4 5.0298e-01 1 1  ON 24
eCa_5 4.2870e-01 1 1  ON 25
eCa_6 2.5764e-01 1 1  ON 26
eCa_7 8.7109e-02 1 1  ON 27
eCa_8 1.2825e-02 1 1  ON 28
eCa_9 -3.2926e-03 1 1  ON 29
  </optVariables>
   Restore the number of walkers to 1, removing 0 walkers.
</opt>
</optimization-report>
  QMC Execution time = 4.5613e+00 secs
  Reusing QMCFixedSampleLinearOptimize
 Using QMCCostFunction::QMCCostFunction

=========================================================
  Start QMCFixedSampleLinearOptimize
  File Root Ca.log.s003 append = no 
=========================================================
  Skip QMCDriver::putQMCInfo 
  Resetting Properties of the walkers 1 x 13

=========================================================
  Start VMC
  File Root Ca.log.s003 append = no 
=========================================================
Using existing walkers 
  Resetting Properties of the walkers 1 x 13

<vmc function="put">
  qmc_counter=2  my_counter=2
  time step      = 1.5000e-01
  blocks         = 200
  steps          = 2
  substeps       = 5
  current        = 0
  target samples = 2.5600e+05
  walkers/mpi    = 1

  stepsbetweensamples = 1
<parameter name="blocks" condition="int">200</parameter>
<parameter name="blocks_between_recompute" condition="int">0</parameter>
<parameter name="check_properties" condition="int">100</parameter>
<parameter name="checkproperties" condition="int">100</parameter>
<parameter name="current" condition="int">0</parameter>
<parameter name="dmcwalkersperthread" condition="real">2.5000e+02</parameter>
<parameter name="maxcpusecs" condition="real">3.6000e+05</parameter>
<parameter name="record_configs" condition="int">0</parameter>
<parameter name="record_walkers" condition="int">1</parameter>
<parameter name="recordconfigs" condition="int">0</parameter>
<parameter name="recordwalkers" condition="int">1</parameter>
<parameter name="rewind" condition="int">0</parameter>
<parameter name="samples" condition="real">2.5600e+05</parameter>
<parameter name="samplesperthread" condition="real">2.5000e+02</parameter>
<parameter name="steps" condition="int">2</parameter>
<parameter name="stepsbetweensamples" condition="int">1</parameter>
<parameter name="store_configs" condition="int">0</parameter>
<parameter name="storeconfigs" condition="int">0</parameter>
<parameter name="sub_steps" condition="int">5</parameter>
<parameter name="substeps" condition="int">5</parameter>
<parameter name="tau" condition="au">1.5000e-01</parameter>
<parameter name="time_step" condition="au">1.5000e-01</parameter>
<parameter name="timestep" condition="au">1.5000e-01</parameter>
<parameter name="use_drift" condition="string">no</parameter>
<parameter name="usedrift" condition="string">no</parameter>
<parameter name="walkers" condition="int">1</parameter>
<parameter name="warmup_steps" condition="int">0</parameter>
<parameter name="warmupsteps" condition="int">0</parameter>
  DumpConfig==false Nothing (configurations, state) will be saved.
  Walker Samples are dumped every 1 steps.
</vmc>
  EstimatorManagerBase::add replace LocalEnergy estimator.
  EstimatorManagerBase::add replace LocalEnergy estimator.
<optimization-report>
<vmc stage="main" blocks="200">
  Cannot make clones again. Use existing 1 clones
  Initial partition of walkers 0 1 
  Using Particle by Particle moves
  Walker moves without drift
  Total Sample Size   =256000
  Walker distribution on root = 0 1 
  Using Locality Approximation
===== Memory Usage after the buffer registration =====
Available memory on node 0, free + buffers : 82695 MB
Memory footprint by rank 0 on node 0       : 77 MB
==================================================
====================================================
  SimpleFixedNodeBranch::finalize after a VMC block
    QMC counter        = 3
    time step          = 0.15
    reference energy   = -36.6744
    reference variance = 0.398152
====================================================
  Execution time = 2.8032e+00
</vmc>
<opt stage="setup">
  <log>
   Reading configurations from h5FileRoot Ca.log.s003
  QMCCostFunction is created with 1 threads.
  Using Nonlocal PP in Opt: NonLocalECP
   Number of samples loaded to each thread : 250 
  VMC Eavg = -3.6652e+01
  VMC Evar = 4.5339e-01
  Total weights = 2.5600e+05
  Execution time = 8.3955e-01
  </log>
</opt>
<opt stage="main" walkers="256000">
  <log>

*****************************************
Building overlap and Hamiltonian matrices
*****************************************

Among totally 30 optimized parameters, largest LM parameter change : 2.6062e-01 at parameter 20

******************************************************************************
Init Cost =   4.5339e-01    New Cost =   4.8793e-01  Delta Cost =   3.4537e-02
******************************************************************************

The new set of parameters is valid. Updating the trial wave function!

*****************************************************************************
Applying the update for shift_i =   1.0000e-02     and shift_s =   1.5625e-02
*****************************************************************************
  Execution time = 4.3109e+00
  </log>
  <optVariables href="Ca.log.s003.opt.xml">
uu_0 2.8972e-01 1 1  ON 0
uu_1 3.7548e-02 1 1  ON 1
uu_2 -6.3011e-02 1 1  ON 2
uu_3 -1.0286e-01 1 1  ON 3
uu_4 -1.0350e-01 1 1  ON 4
uu_5 -7.9774e-02 1 1  ON 5
uu_6 -2.4838e-02 1 1  ON 6
uu_7 3.3317e-02 1 1  ON 7
uu_8 4.4668e-02 1 1  ON 8
uu_9 1.1636e-02 1 1  ON 9
ud_0 4.7898e-01 1 1  ON 10
ud_1 1.3519e-01 1 1  ON 11
ud_2 2.5209e-02 1 1  ON 12
ud_3 -4.5875e-02 1 1  ON 13
ud_4 -7.5172e-02 1 1  ON 14
ud_5 -9.7145e-02 1 1  ON 15
ud_6 -9.8498e-02 1 1  ON 16
ud_7 -8.7182e-02 1 1  ON 17
ud_8 -8.4149e-02 1 1  ON 18
ud_9 -6.3024e-02 1 1  ON 19
eCa_0 -1.5363e+00 1 1  ON 20
eCa_1 -7.0653e-01 1 1  ON 21
eCa_2 3.0806e-02 1 1  ON 22
eCa_3 4.4719e-01 1 1  ON 23
eCa_4 6.2956e-01 1 1  ON 24
eCa_5 6.0154e-01 1 1  ON 25
eCa_6 3.8962e-01 1 1  ON 26
eCa_7 1.4322e-01 1 1  ON 27
eCa_8 2.1206e-02 1 1  ON 28
eCa_9 -6.6694e-03 1 1  ON 29
  </optVariables>
   Restore the number of walkers to 1, removing 0 walkers.
</opt>
</optimization-report>
  QMC Execution time = 4.3193e+00 secs
  Reusing QMCFixedSampleLinearOptimize
 Using QMCCostFunction::QMCCostFunction

=========================================================
  Start QMCFixedSampleLinearOptimize
  File Root Ca.log.s004 append = no 
=========================================================
  Skip QMCDriver::putQMCInfo 
  Resetting Properties of the walkers 1 x 13

=========================================================
  Start VMC
  File Root Ca.log.s004 append = no 
=========================================================
Using existing walkers 
  Resetting Properties of the walkers 1 x 13

<vmc function="put">
  qmc_counter=3  my_counter=3
  time step      = 1.5000e-01
  blocks         = 200
  steps          = 2
  substeps       = 5
  current        = 0
  target samples = 2.5600e+05
  walkers/mpi    = 1

  stepsbetweensamples = 1
<parameter name="blocks" condition="int">200</parameter>
<parameter name="blocks_between_recompute" condition="int">0</parameter>
<parameter name="check_properties" condition="int">100</parameter>
<parameter name="checkproperties" condition="int">100</parameter>
<parameter name="current" condition="int">0</parameter>
<parameter name="dmcwalkersperthread" condition="real">2.5000e+02</parameter>
<parameter name="maxcpusecs" condition="real">3.6000e+05</parameter>
<parameter name="record_configs" condition="int">0</parameter>
<parameter name="record_walkers" condition="int">1</parameter>
<parameter name="recordconfigs" condition="int">0</parameter>
<parameter name="recordwalkers" condition="int">1</parameter>
<parameter name="rewind" condition="int">0</parameter>
<parameter name="samples" condition="real">2.5600e+05</parameter>
<parameter name="samplesperthread" condition="real">2.5000e+02</parameter>
<parameter name="steps" condition="int">2</parameter>
<parameter name="stepsbetweensamples" condition="int">1</parameter>
<parameter name="store_configs" condition="int">0</parameter>
<parameter name="storeconfigs" condition="int">0</parameter>
<parameter name="sub_steps" condition="int">5</parameter>
<parameter name="substeps" condition="int">5</parameter>
<parameter name="tau" condition="au">1.5000e-01</parameter>
<parameter name="time_step" condition="au">1.5000e-01</parameter>
<parameter name="timestep" condition="au">1.5000e-01</parameter>
<parameter name="use_drift" condition="string">no</parameter>
<parameter name="usedrift" condition="string">no</parameter>
<parameter name="walkers" condition="int">1</parameter>
<parameter name="warmup_steps" condition="int">0</parameter>
<parameter name="warmupsteps" condition="int">0</parameter>
  DumpConfig==false Nothing (configurations, state) will be saved.
  Walker Samples are dumped every 1 steps.
</vmc>
  EstimatorManagerBase::add replace LocalEnergy estimator.
  EstimatorManagerBase::add replace LocalEnergy estimator.
<optimization-report>
<vmc stage="main" blocks="200">
  Cannot make clones again. Use existing 1 clones
  Initial partition of walkers 0 1 
  Using Particle by Particle moves
  Walker moves without drift
  Total Sample Size   =256000
  Walker distribution on root = 0 1 
  Using Locality Approximation
===== Memory Usage after the buffer registration =====
Available memory on node 0, free + buffers : 82694 MB
Memory footprint by rank 0 on node 0       : 79 MB
==================================================
====================================================
  SimpleFixedNodeBranch::finalize after a VMC block
    QMC counter        = 4
    time step          = 0.15
    reference energy   = -36.6874
    reference variance = 0.395662
====================================================
  Execution time = 2.5343e+00
</vmc>
<opt stage="setup">
  <log>
   Reading configurations from h5FileRoot Ca.log.s004
  QMCCostFunction is created with 1 threads.
  Using Nonlocal PP in Opt: NonLocalECP
   Number of samples loaded to each thread : 250 
  VMC Eavg = -3.6653e+01
  VMC Evar = 4.8692e-01
  Total weights = 2.5600e+05
  Execution time = 6.7475e-01
  </log>
</opt>
<opt stage="main" walkers="256000">
  <log>

*****************************************
Building overlap and Hamiltonian matrices
*****************************************

Among totally 30 optimized parameters, largest LM parameter change : 1.5844e-01 at parameter 20

******************************************************************************
Init Cost =   4.8692e-01    New Cost =   4.9984e-01  Delta Cost =   1.2923e-02
******************************************************************************

The new set of parameters is valid. Updating the trial wave function!

*****************************************************************************
Applying the update for shift_i =   1.0000e-02     and shift_s =   3.9062e-03
*****************************************************************************
  Execution time = 3.7034e+00
  </log>
  <optVariables href="Ca.log.s004.opt.xml">
uu_0 3.0713e-01 1 1  ON 0
uu_1 4.8553e-02 1 1  ON 1
uu_2 -5.5873e-02 1 1  ON 2
uu_3 -1.0452e-01 1 1  ON 3
uu_4 -1.1351e-01 1 1  ON 4
uu_5 -9.6939e-02 1 1  ON 5
uu_6 -4.1560e-02 1 1  ON 6
uu_7 2.8169e-02 1 1  ON 7
uu_8 6.0612e-02 1 1  ON 8
uu_9 2.0165e-02 1 1  ON 9
ud_0 5.0035e-01 1 1  ON 10
ud_1 1.5128e-01 1 1  ON 11
ud_2 3.5460e-02 1 1  ON 12
ud_3 -4.6878e-02 1 1  ON 13
ud_4 -8.2880e-02 1 1  ON 14
ud_5 -1.1080e-01 1 1  ON 15
ud_6 -1.1223e-01 1 1  ON 16
ud_7 -1.0433e-01 1 1  ON 17
ud_8 -8.6499e-02 1 1  ON 18
ud_9 -6.3501e-02 1 1  ON 19
eCa_0 -1.6947e+00 1 1  ON 20
eCa_1 -8.4382e-01 1 1  ON 21
eCa_2 -5.7841e-02 1 1  ON 22
eCa_3 4.4233e-01 1 1  ON 23
eCa_4 6.9840e-01 1 1  ON 24
eCa_5 7.2748e-01 1 1  ON 25
eCa_6 5.1410e-01 1 1  ON 26
eCa_7 1.9977e-01 1 1  ON 27
eCa_8 3.8177e-02 1 1  ON 28
eCa_9 -7.3893e-03 1 1  ON 29
  </optVariables>
   Restore the number of walkers to 1, removing 0 walkers.
</opt>
</optimization-report>
  QMC Execution time = 3.7904e+00 secs
  Reusing QMCFixedSampleLinearOptimize
 Using QMCCostFunction::QMCCostFunction

=========================================================
  Start QMCFixedSampleLinearOptimize
  File Root Ca.log.s005 append = no 
=========================================================
  Skip QMCDriver::putQMCInfo 
  Resetting Properties of the walkers 1 x 13

=========================================================
  Start VMC
  File Root Ca.log.s005 append = no 
=========================================================
Using existing walkers 
  Resetting Properties of the walkers 1 x 13

<vmc function="put">
  qmc_counter=4  my_counter=4
  time step      = 1.5000e-01
  blocks         = 200
  steps          = 2
  substeps       = 5
  current        = 0
  target samples = 2.5600e+05
  walkers/mpi    = 1

  stepsbetweensamples = 1
<parameter name="blocks" condition="int">200</parameter>
<parameter name="blocks_between_recompute" condition="int">0</parameter>
<parameter name="check_properties" condition="int">100</parameter>
<parameter name="checkproperties" condition="int">100</parameter>
<parameter name="current" condition="int">0</parameter>
<parameter name="dmcwalkersperthread" condition="real">2.5000e+02</parameter>
<parameter name="maxcpusecs" condition="real">3.6000e+05</parameter>
<parameter name="record_configs" condition="int">0</parameter>
<parameter name="record_walkers" condition="int">1</parameter>
<parameter name="recordconfigs" condition="int">0</parameter>
<parameter name="recordwalkers" condition="int">1</parameter>
<parameter name="rewind" condition="int">0</parameter>
<parameter name="samples" condition="real">2.5600e+05</parameter>
<parameter name="samplesperthread" condition="real">2.5000e+02</parameter>
<parameter name="steps" condition="int">2</parameter>
<parameter name="stepsbetweensamples" condition="int">1</parameter>
<parameter name="store_configs" condition="int">0</parameter>
<parameter name="storeconfigs" condition="int">0</parameter>
<parameter name="sub_steps" condition="int">5</parameter>
<parameter name="substeps" condition="int">5</parameter>
<parameter name="tau" condition="au">1.5000e-01</parameter>
<parameter name="time_step" condition="au">1.5000e-01</parameter>
<parameter name="timestep" condition="au">1.5000e-01</parameter>
<parameter name="use_drift" condition="string">no</parameter>
<parameter name="usedrift" condition="string">no</parameter>
<parameter name="walkers" condition="int">1</parameter>
<parameter name="warmup_steps" condition="int">0</parameter>
<parameter name="warmupsteps" condition="int">0</parameter>
  DumpConfig==false Nothing (configurations, state) will be saved.
  Walker Samples are dumped every 1 steps.
</vmc>
  EstimatorManagerBase::add replace LocalEnergy estimator.
  EstimatorManagerBase::add replace LocalEnergy estimator.
<optimization-report>
<vmc stage="main" blocks="200">
  Cannot make clones again. Use existing 1 clones
  Initial partition of walkers 0 1 
  Using Particle by Particle moves
  Walker moves without drift
  Total Sample Size   =256000
  Walker distribution on root = 0 1 
  Using Locality Approximation
===== Memory Usage after the buffer registration =====
Available memory on node 0, free + buffers : 82691 MB
Memory footprint by rank 0 on node 0       : 81 MB
==================================================
====================================================
  SimpleFixedNodeBranch::finalize after a VMC block
    QMC counter        = 5
    time step          = 0.15
    reference energy   = -36.66
    reference variance = 0.407365
====================================================
  Execution time = 3.0466e+00
</vmc>
<opt stage="setup">
  <log>
   Reading configurations from h5FileRoot Ca.log.s005
  QMCCostFunction is created with 1 threads.
  Using Nonlocal PP in Opt: NonLocalECP
   Number of samples loaded to each thread : 250 
  VMC Eavg = -3.6659e+01
  VMC Evar = 4.9572e-01
  Total weights = 2.5600e+05
  Execution time = 4.9361e-01
  </log>
</opt>
<opt stage="main" walkers="256000">
  <log>

*****************************************
Building overlap and Hamiltonian matrices
*****************************************

Among totally 30 optimized parameters, largest LM parameter change : 1.1809e-01 at parameter 20

******************************************************************************
Init Cost =   4.9572e-01    New Cost =   5.0106e-01  Delta Cost =   5.3349e-03
******************************************************************************

The new set of parameters is valid. Updating the trial wave function!

*****************************************************************************
Applying the update for shift_i =   1.0000e-02     and shift_s =   3.9062e-03
*****************************************************************************
  Execution time = 3.9187e+00
  </log>
  <optVariables href="Ca.log.s005.opt.xml">
uu_0 3.1712e-01 1 1  ON 0
uu_1 5.7671e-02 1 1  ON 1
uu_2 -5.0459e-02 1 1  ON 2
uu_3 -1.0445e-01 1 1  ON 3
uu_4 -1.2110e-01 1 1  ON 4
uu_5 -1.0948e-01 1 1  ON 5
uu_6 -5.3972e-02 1 1  ON 6
uu_7 2.6113e-02 1 1  ON 7
uu_8 6.9416e-02 1 1  ON 8
uu_9 2.7261e-02 1 1  ON 9
ud_0 5.1517e-01 1 1  ON 10
ud_1 1.6493e-01 1 1  ON 11
ud_2 4.4835e-02 1 1  ON 12
ud_3 -4.1173e-02 1 1  ON 13
ud_4 -8.2096e-02 1 1  ON 14
ud_5 -1.1840e-01 1 1  ON 15
ud_6 -1.2351e-01 1 1  ON 16
ud_7 -1.0856e-01 1 1  ON 17
ud_8 -8.7414e-02 1 1  ON 18
ud_9 -6.5122e-02 1 1  ON 19
eCa_0 -1.8128e+00 1 1  ON 20
eCa_1 -9.4732e-01 1 1  ON 21
eCa_2 -1.3270e-01 1 1  ON 22
eCa_3 4.1844e-01 1 1  ON 23
eCa_4 7.3142e-01 1 1  ON 24
eCa_5 8.2786e-01 1 1  ON 25
eCa_6 6.2819e-01 1 1  ON 26
eCa_7 2.6464e-01 1 1  ON 27
eCa_8 4.9561e-02 1 1  ON 28
eCa_9 -7.8374e-03 1 1  ON 29
  </optVariables>
   Restore the number of walkers to 1, removing 0 walkers.
</opt>
</optimization-report>
  QMC Execution time = 3.9464e+00 secs
Loop execution max-interations = 5
  Reusing QMCFixedSampleLinearOptimize
 Using QMCCostFunction::QMCCostFunction

=========================================================
  Start QMCFixedSampleLinearOptimize
  File Root Ca.log.s006 append = no 
=========================================================
  Skip QMCDriver::putQMCInfo 
  Resetting Properties of the walkers 1 x 13

=========================================================
  Start VMC
  File Root Ca.log.s006 append = no 
=========================================================
  Using the current 1 walkers.
  Total number of walkers: 1.0240e+03
  Total weight: 1.0240e+03
  Resetting Properties of the walkers 1 x 13

<vmc function="put">
  qmc_counter=0  my_counter=5
  time step      = 1.5000e-01
  blocks         = 200
  steps          = 2
  substeps       = 5
  current        = 0
  target samples = 2.5600e+05
  walkers/mpi    = 1

  stepsbetweensamples = 1
<parameter name="blocks" condition="int">200</parameter>
<parameter name="blocks_between_recompute" condition="int">0</parameter>
<parameter name="check_properties" condition="int">100</parameter>
<parameter name="checkproperties" condition="int">100</parameter>
<parameter name="current" condition="int">0</parameter>
<parameter name="dmcwalkersperthread" condition="real">2.5000e+02</parameter>
<parameter name="maxcpusecs" condition="real">3.6000e+05</parameter>
<parameter name="record_configs" condition="int">0</parameter>
<parameter name="record_walkers" condition="int">1</parameter>
<parameter name="recordconfigs" condition="int">0</parameter>
<parameter name="recordwalkers" condition="int">1</parameter>
<parameter name="rewind" condition="int">0</parameter>
<parameter name="samples" condition="real">2.5600e+05</parameter>
<parameter name="samplesperthread" condition="real">2.5000e+02</parameter>
<parameter name="steps" condition="int">2</parameter>
<parameter name="stepsbetweensamples" condition="int">1</parameter>
<parameter name="store_configs" condition="int">0</parameter>
<parameter name="storeconfigs" condition="int">0</parameter>
<parameter name="sub_steps" condition="int">5</parameter>
<parameter name="substeps" condition="int">5</parameter>
<parameter name="tau" condition="au">1.5000e-01</parameter>
<parameter name="time_step" condition="au">1.5000e-01</parameter>
<parameter name="timestep" condition="au">1.5000e-01</parameter>
<parameter name="use_drift" condition="string">no</parameter>
<parameter name="usedrift" condition="string">no</parameter>
<parameter name="walkers" condition="int">1</parameter>
<parameter name="warmup_steps" condition="int">0</parameter>
<parameter name="warmupsteps" condition="int">0</parameter>
  DumpConfig==false Nothing (configurations, state) will be saved.
  Walker Samples are dumped every 1 steps.
</vmc>
  EstimatorManagerBase::add replace LocalEnergy estimator.
  EstimatorManagerBase::add replace LocalEnergy estimator.
<optimization-report>
<vmc stage="main" blocks="200">
  Cannot make clones again. Use existing 1 clones
  Initial partition of walkers 0 1 
  Using Particle by Particle moves
  Walker moves without drift
  Total Sample Size   =256000
  Walker distribution on root = 0 1 
  Using Locality Approximation
===== Memory Usage after the buffer registration =====
Available memory on node 0, free + buffers : 82689 MB
Memory footprint by rank 0 on node 0       : 83 MB
==================================================
====================================================
  SimpleFixedNodeBranch::finalize after a VMC block
    QMC counter        = 6
    time step          = 0.15
    reference energy   = -36.6577
    reference variance = 0.480523
====================================================
  Execution time = 2.3822e+00
</vmc>
<opt stage="setup">
  <log>
   Reading configurations from h5FileRoot Ca.log.s006
  QMCCostFunction is created with 1 threads.
  Using Nonlocal PP in Opt: NonLocalECP
   Number of samples loaded to each thread : 250 
  VMC Eavg = -3.6658e+01
  VMC Evar = 4.9101e-01
  Total weights = 2.5600e+05
  Execution time = 3.7964e-01
  </log>
</opt>
<opt stage="main" walkers="256000">
  <log>

*****************************************
Building overlap and Hamiltonian matrices
*****************************************

Among totally 30 optimized parameters, largest LM parameter change : 9.3381e-02 at parameter 26

******************************************************************************
Init Cost =   4.9101e-01    New Cost =   4.9587e-01  Delta Cost =   4.8629e-03
******************************************************************************

The new set of parameters is valid. Updating the trial wave function!

*****************************************************************************
Applying the update for shift_i =   1.0000e-02     and shift_s =   3.9062e-03
*****************************************************************************
  Execution time = 3.0745e+00
  </log>
  <optVariables href="Ca.log.s006.opt.xml">
uu_0 3.3021e-01 1 1  ON 0
uu_1 6.6752e-02 1 1  ON 1
uu_2 -4.1648e-02 1 1  ON 2
uu_3 -1.0206e-01 1 1  ON 3
uu_4 -1.2447e-01 1 1  ON 4
uu_5 -1.2009e-01 1 1  ON 5
uu_6 -7.1415e-02 1 1  ON 6
uu_7 1.2540e-02 1 1  ON 7
uu_8 7.8061e-02 1 1  ON 8
uu_9 4.2108e-02 1 1  ON 9
ud_0 5.3178e-01 1 1  ON 10
ud_1 1.7995e-01 1 1  ON 11
ud_2 5.8709e-02 1 1  ON 12
ud_3 -3.0238e-02 1 1  ON 13
ud_4 -7.8196e-02 1 1  ON 14
ud_5 -1.2248e-01 1 1  ON 15
ud_6 -1.3184e-01 1 1  ON 16
ud_7 -1.1399e-01 1 1  ON 17
ud_8 -9.2573e-02 1 1  ON 18
ud_9 -6.6851e-02 1 1  ON 19
eCa_0 -1.8970e+00 1 1  ON 20
eCa_1 -1.0233e+00 1 1  ON 21
eCa_2 -1.9355e-01 1 1  ON 22
eCa_3 3.8942e-01 1 1  ON 23
eCa_4 7.4183e-01 1 1  ON 24
eCa_5 8.8964e-01 1 1  ON 25
eCa_6 7.2157e-01 1 1  ON 26
eCa_7 3.3460e-01 1 1  ON 27
eCa_8 6.7287e-02 1 1  ON 28
eCa_9 -7.4935e-03 1 1  ON 29
  </optVariables>
   Restore the number of walkers to 1, removing 0 walkers.
</opt>
</optimization-report>
  QMC Execution time = 3.8767e+00 secs
  Reusing QMCFixedSampleLinearOptimize
 Using QMCCostFunction::QMCCostFunction

=========================================================
  Start QMCFixedSampleLinearOptimize
  File Root Ca.log.s007 append = no 
=========================================================
  Skip QMCDriver::putQMCInfo 
  Resetting Properties of the walkers 1 x 13

=========================================================
  Start VMC
  File Root Ca.log.s007 append = no 
=========================================================
Using existing walkers 
  Resetting Properties of the walkers 1 x 13

<vmc function="put">
  qmc_counter=1  my_counter=6
  time step      = 1.5000e-01
  blocks         = 200
  steps          = 2
  substeps       = 5
  current        = 0
  target samples = 2.5600e+05
  walkers/mpi    = 1

  stepsbetweensamples = 1
<parameter name="blocks" condition="int">200</parameter>
<parameter name="blocks_between_recompute" condition="int">0</parameter>
<parameter name="check_properties" condition="int">100</parameter>
<parameter name="checkproperties" condition="int">100</parameter>
<parameter name="current" condition="int">0</parameter>
<parameter name="dmcwalkersperthread" condition="real">2.5000e+02</parameter>
<parameter name="maxcpusecs" condition="real">3.6000e+05</parameter>
<parameter name="record_configs" condition="int">0</parameter>
<parameter name="record_walkers" condition="int">1</parameter>
<parameter name="recordconfigs" condition="int">0</parameter>
<parameter name="recordwalkers" condition="int">1</parameter>
<parameter name="rewind" condition="int">0</parameter>
<parameter name="samples" condition="real">2.5600e+05</parameter>
<parameter name="samplesperthread" condition="real">2.5000e+02</parameter>
<parameter name="steps" condition="int">2</parameter>
<parameter name="stepsbetweensamples" condition="int">1</parameter>
<parameter name="store_configs" condition="int">0</parameter>
<parameter name="storeconfigs" condition="int">0</parameter>
<parameter name="sub_steps" condition="int">5</parameter>
<parameter name="substeps" condition="int">5</parameter>
<parameter name="tau" condition="au">1.5000e-01</parameter>
<parameter name="time_step" condition="au">1.5000e-01</parameter>
<parameter name="timestep" condition="au">1.5000e-01</parameter>
<parameter name="use_drift" condition="string">no</parameter>
<parameter name="usedrift" condition="string">no</parameter>
<parameter name="walkers" condition="int">1</parameter>
<parameter name="warmup_steps" condition="int">0</parameter>
<parameter name="warmupsteps" condition="int">0</parameter>
  DumpConfig==false Nothing (configurations, state) will be saved.
  Walker Samples are dumped every 1 steps.
</vmc>
  EstimatorManagerBase::add replace LocalEnergy estimator.
  EstimatorManagerBase::add replace LocalEnergy estimator.
<optimization-report>
<vmc stage="main" blocks="200">
  Cannot make clones again. Use existing 1 clones
  Initial partition of walkers 0 1 
  Using Particle by Particle moves
  Walker moves without drift
  Total Sample Size   =256000
  Walker distribution on root = 0 1 
  Using Locality Approximation
===== Memory Usage after the buffer registration =====
Available memory on node 0, free + buffers : 82687 MB
Memory footprint by rank 0 on node 0       : 84 MB
==================================================
====================================================
  SimpleFixedNodeBranch::finalize after a VMC block
    QMC counter        = 7
    time step          = 0.15
    reference energy   = -36.6836
    reference variance = 0.51006
====================================================
  Execution time = 2.2766e+00
</vmc>
<opt stage="setup">
  <log>
   Reading configurations from h5FileRoot Ca.log.s007
  QMCCostFunction is created with 1 threads.
  Using Nonlocal PP in Opt: NonLocalECP
   Number of samples loaded to each thread : 250 
  VMC Eavg = -3.6658e+01
  VMC Evar = 5.0469e-01
  Total weights = 2.5600e+05
  Execution time = 3.1262e-01
  </log>
</opt>
<opt stage="main" walkers="256000">
  <log>

*****************************************
Building overlap and Hamiltonian matrices
*****************************************

Among totally 30 optimized parameters, largest LM parameter change : 8.7253e-02 at parameter 26

******************************************************************************
Init Cost =   5.0469e-01    New Cost =   5.0698e-01  Delta Cost =   2.2856e-03
******************************************************************************

The new set of parameters is valid. Updating the trial wave function!

*****************************************************************************
Applying the update for shift_i =   1.0000e-02     and shift_s =   3.9062e-03
*****************************************************************************
  Execution time = 2.8570e+00
  </log>
  <optVariables href="Ca.log.s007.opt.xml">
uu_0 3.3136e-01 1 1  ON 0
uu_1 6.8278e-02 1 1  ON 1
uu_2 -4.2672e-02 1 1  ON 2
uu_3 -1.0362e-01 1 1  ON 3
uu_4 -1.2717e-01 1 1  ON 4
uu_5 -1.3010e-01 1 1  ON 5
uu_6 -8.4000e-02 1 1  ON 6
uu_7 4.6915e-03 1 1  ON 7
uu_8 8.0359e-02 1 1  ON 8
uu_9 5.4857e-02 1 1  ON 9
ud_0 5.4049e-01 1 1  ON 10
ud_1 1.8819e-01 1 1  ON 11
ud_2 6.5555e-02 1 1  ON 12
ud_3 -2.5468e-02 1 1  ON 13
ud_4 -7.5867e-02 1 1  ON 14
ud_5 -1.2383e-01 1 1  ON 15
ud_6 -1.3810e-01 1 1  ON 16
ud_7 -1.2507e-01 1 1  ON 17
ud_8 -1.0030e-01 1 1  ON 18
ud_9 -6.8829e-02 1 1  ON 19
eCa_0 -1.9625e+00 1 1  ON 20
eCa_1 -1.0848e+00 1 1  ON 21
eCa_2 -2.4512e-01 1 1  ON 22
eCa_3 3.5847e-01 1 1  ON 23
eCa_4 7.3996e-01 1 1  ON 24
eCa_5 9.2633e-01 1 1  ON 25
eCa_6 8.0882e-01 1 1  ON 26
eCa_7 4.0131e-01 1 1  ON 27
eCa_8 8.1735e-02 1 1  ON 28
eCa_9 -4.6272e-03 1 1  ON 29
  </optVariables>
   Restore the number of walkers to 1, removing 0 walkers.
</opt>
</optimization-report>
  QMC Execution time = 2.9150e+00 secs
  Reusing QMCFixedSampleLinearOptimize
 Using QMCCostFunction::QMCCostFunction

=========================================================
  Start QMCFixedSampleLinearOptimize
  File Root Ca.log.s008 append = no 
=========================================================
  Skip QMCDriver::putQMCInfo 
  Resetting Properties of the walkers 1 x 13

=========================================================
  Start VMC
  File Root Ca.log.s008 append = no 
=========================================================
Using existing walkers 
  Resetting Properties of the walkers 1 x 13

<vmc function="put">
  qmc_counter=2  my_counter=7
  time step      = 1.5000e-01
  blocks         = 200
  steps          = 2
  substeps       = 5
  current        = 0
  target samples = 2.5600e+05
  walkers/mpi    = 1

  stepsbetweensamples = 1
<parameter name="blocks" condition="int">200</parameter>
<parameter name="blocks_between_recompute" condition="int">0</parameter>
<parameter name="check_properties" condition="int">100</parameter>
<parameter name="checkproperties" condition="int">100</parameter>
<parameter name="current" condition="int">0</parameter>
<parameter name="dmcwalkersperthread" condition="real">2.5000e+02</parameter>
<parameter name="maxcpusecs" condition="real">3.6000e+05</parameter>
<parameter name="record_configs" condition="int">0</parameter>
<parameter name="record_walkers" condition="int">1</parameter>
<parameter name="recordconfigs" condition="int">0</parameter>
<parameter name="recordwalkers" condition="int">1</parameter>
<parameter name="rewind" condition="int">0</parameter>
<parameter name="samples" condition="real">2.5600e+05</parameter>
<parameter name="samplesperthread" condition="real">2.5000e+02</parameter>
<parameter name="steps" condition="int">2</parameter>
<parameter name="stepsbetweensamples" condition="int">1</parameter>
<parameter name="store_configs" condition="int">0</parameter>
<parameter name="storeconfigs" condition="int">0</parameter>
<parameter name="sub_steps" condition="int">5</parameter>
<parameter name="substeps" condition="int">5</parameter>
<parameter name="tau" condition="au">1.5000e-01</parameter>
<parameter name="time_step" condition="au">1.5000e-01</parameter>
<parameter name="timestep" condition="au">1.5000e-01</parameter>
<parameter name="use_drift" condition="string">no</parameter>
<parameter name="usedrift" condition="string">no</parameter>
<parameter name="walkers" condition="int">1</parameter>
<parameter name="warmup_steps" condition="int">0</parameter>
<parameter name="warmupsteps" condition="int">0</parameter>
  DumpConfig==false Nothing (configurations, state) will be saved.
  Walker Samples are dumped every 1 steps.
</vmc>
  EstimatorManagerBase::add replace LocalEnergy estimator.
  EstimatorManagerBase::add replace LocalEnergy estimator.
<optimization-report>
<vmc stage="main" blocks="200">
  Cannot make clones again. Use existing 1 clones
  Initial partition of walkers 0 1 
  Using Particle by Particle moves
  Walker moves without drift
  Total Sample Size   =256000
  Walker distribution on root = 0 1 
  Using Locality Approximation
===== Memory Usage after the buffer registration =====
Available memory on node 0, free + buffers : 82686 MB
Memory footprint by rank 0 on node 0       : 86 MB
==================================================
====================================================
  SimpleFixedNodeBranch::finalize after a VMC block
    QMC counter        = 8
    time step          = 0.15
    reference energy   = -36.6309
    reference variance = 0.470354
====================================================
  Execution time = 1.9323e+00
</vmc>
<opt stage="setup">
  <log>
   Reading configurations from h5FileRoot Ca.log.s008
  QMCCostFunction is created with 1 threads.
  Using Nonlocal PP in Opt: NonLocalECP
   Number of samples loaded to each thread : 250 
  VMC Eavg = -3.6659e+01
  VMC Evar = 4.9695e-01
  Total weights = 2.5600e+05
  Execution time = 2.7666e-01
  </log>
</opt>
<opt stage="main" walkers="256000">
  <log>

*****************************************
Building overlap and Hamiltonian matrices
*****************************************

Among totally 30 optimized parameters, largest LM parameter change : 6.7410e-02 at parameter 26

******************************************************************************
Init Cost =   4.9695e-01    New Cost =   4.9777e-01  Delta Cost =   8.2088e-04
******************************************************************************

The new set of parameters is valid. Updating the trial wave function!

*****************************************************************************
Applying the update for shift_i =   1.0000e-02     and shift_s =   3.9062e-03
*****************************************************************************
  Execution time = 2.4493e+00
  </log>
  <optVariables href="Ca.log.s008.opt.xml">
uu_0 3.3911e-01 1 1  ON 0
uu_1 7.5312e-02 1 1  ON 1
uu_2 -3.5837e-02 1 1  ON 2
uu_3 -9.9232e-02 1 1  ON 3
uu_4 -1.2717e-01 1 1  ON 4
uu_5 -1.3174e-01 1 1  ON 5
uu_6 -9.5134e-02 1 1  ON 6
uu_7 -9.8639e-03 1 1  ON 7
uu_8 7.4350e-02 1 1  ON 8
uu_9 6.4444e-02 1 1  ON 9
ud_0 5.4849e-01 1 1  ON 10
ud_1 1.9620e-01 1 1  ON 11
ud_2 7.2318e-02 1 1  ON 12
ud_3 -1.9997e-02 1 1  ON 13
ud_4 -7.0469e-02 1 1  ON 14
ud_5 -1.2060e-01 1 1  ON 15
ud_6 -1.3736e-01 1 1  ON 16
ud_7 -1.3171e-01 1 1  ON 17
ud_8 -1.0610e-01 1 1  ON 18
ud_9 -6.9570e-02 1 1  ON 19
eCa_0 -2.0197e+00 1 1  ON 20
eCa_1 -1.1391e+00 1 1  ON 21
eCa_2 -2.8740e-01 1 1  ON 22
eCa_3 3.3311e-01 1 1  ON 23
eCa_4 7.4162e-01 1 1  ON 24
eCa_5 9.6174e-01 1 1  ON 25
eCa_6 8.7623e-01 1 1  ON 26
eCa_7 4.6109e-01 1 1  ON 27
eCa_8 9.6456e-02 1 1  ON 28
eCa_9 -2.0130e-03 1 1  ON 29
  </optVariables>
   Restore the number of walkers to 1, removing 0 walkers.
</opt>
</optimization-report>
  QMC Execution time = 2.5070e+00 secs
  Reusing QMCFixedSampleLinearOptimize
 Using QMCCostFunction::QMCCostFunction

=========================================================
  Start QMCFixedSampleLinearOptimize
  File Root Ca.log.s009 append = no 
=========================================================
  Skip QMCDriver::putQMCInfo 
  Resetting Properties of the walkers 1 x 13

=========================================================
  Start VMC
  File Root Ca.log.s009 append = no 
=========================================================
Using existing walkers 
  Resetting Properties of the walkers 1 x 13

<vmc function="put">
  qmc_counter=3  my_counter=8
  time step      = 1.5000e-01
  blocks         = 200
  steps          = 2
  substeps       = 5
  current        = 0
  target samples = 2.5600e+05
  walkers/mpi    = 1

  stepsbetweensamples = 1
<parameter name="blocks" condition="int">200</parameter>
<parameter name="blocks_between_recompute" condition="int">0</parameter>
<parameter name="check_properties" condition="int">100</parameter>
<parameter name="checkproperties" condition="int">100</parameter>
<parameter name="current" condition="int">0</parameter>
<parameter name="dmcwalkersperthread" condition="real">2.5000e+02</parameter>
<parameter name="maxcpusecs" condition="real">3.6000e+05</parameter>
<parameter name="record_configs" condition="int">0</parameter>
<parameter name="record_walkers" condition="int">1</parameter>
<parameter name="recordconfigs" condition="int">0</parameter>
<parameter name="recordwalkers" condition="int">1</parameter>
<parameter name="rewind" condition="int">0</parameter>
<parameter name="samples" condition="real">2.5600e+05</parameter>
<parameter name="samplesperthread" condition="real">2.5000e+02</parameter>
<parameter name="steps" condition="int">2</parameter>
<parameter name="stepsbetweensamples" condition="int">1</parameter>
<parameter name="store_configs" condition="int">0</parameter>
<parameter name="storeconfigs" condition="int">0</parameter>
<parameter name="sub_steps" condition="int">5</parameter>
<parameter name="substeps" condition="int">5</parameter>
<parameter name="tau" condition="au">1.5000e-01</parameter>
<parameter name="time_step" condition="au">1.5000e-01</parameter>
<parameter name="timestep" condition="au">1.5000e-01</parameter>
<parameter name="use_drift" condition="string">no</parameter>
<parameter name="usedrift" condition="string">no</parameter>
<parameter name="walkers" condition="int">1</parameter>
<parameter name="warmup_steps" condition="int">0</parameter>
<parameter name="warmupsteps" condition="int">0</parameter>
  DumpConfig==false Nothing (configurations, state) will be saved.
  Walker Samples are dumped every 1 steps.
</vmc>
  EstimatorManagerBase::add replace LocalEnergy estimator.
  EstimatorManagerBase::add replace LocalEnergy estimator.
<optimization-report>
<vmc stage="main" blocks="200">
  Cannot make clones again. Use existing 1 clones
  Initial partition of walkers 0 1 
  Using Particle by Particle moves
  Walker moves without drift
  Total Sample Size   =256000
  Walker distribution on root = 0 1 
  Using Locality Approximation
===== Memory Usage after the buffer registration =====
Available memory on node 0, free + buffers : 82683 MB
Memory footprint by rank 0 on node 0       : 88 MB
==================================================
====================================================
  SimpleFixedNodeBranch::finalize after a VMC block
    QMC counter        = 9
    time step          = 0.15
    reference energy   = -36.6449
    reference variance = 0.4966
====================================================
  Execution time = 1.9781e+00
</vmc>
<opt stage="setup">
  <log>
   Reading configurations from h5FileRoot Ca.log.s009
  QMCCostFunction is created with 1 threads.
  Using Nonlocal PP in Opt: NonLocalECP
   Number of samples loaded to each thread : 250 
  VMC Eavg = -3.6659e+01
  VMC Evar = 5.0521e-01
  Total weights = 2.5600e+05
  Execution time = 2.4451e-01
  </log>
</opt>
<opt stage="main" walkers="256000">
  <log>

*****************************************
Building overlap and Hamiltonian matrices
*****************************************

Among totally 30 optimized parameters, largest LM parameter change : 5.3388e-02 at parameter 27

******************************************************************************
Init Cost =   5.0521e-01    New Cost =   5.0878e-01  Delta Cost =   3.5660e-03
******************************************************************************

The new set of parameters is valid. Updating the trial wave function!

*****************************************************************************
Applying the update for shift_i =   1.0000e-02     and shift_s =   3.9062e-03
*****************************************************************************
  Execution time = 2.4521e+00
  </log>
  <optVariables href="Ca.log.s009.opt.xml">
uu_0 3.4419e-01 1 1  ON 0
uu_1 7.8667e-02 1 1  ON 1
uu_2 -3.3120e-02 1 1  ON 2
uu_3 -9.7567e-02 1 1  ON 3
uu_4 -1.2748e-01 1 1  ON 4
uu_5 -1.3624e-01 1 1  ON 5
uu_6 -1.0378e-01 1 1  ON 6
uu_7 -2.4919e-02 1 1  ON 7
uu_8 7.2903e-02 1 1  ON 8
uu_9 7.3934e-02 1 1  ON 9
ud_0 5.5864e-01 1 1  ON 10
ud_1 2.0509e-01 1 1  ON 11
ud_2 8.0404e-02 1 1  ON 12
ud_3 -1.4600e-02 1 1  ON 13
ud_4 -6.6941e-02 1 1  ON 14
ud_5 -1.2046e-01 1 1  ON 15
ud_6 -1.4455e-01 1 1  ON 16
ud_7 -1.4058e-01 1 1  ON 17
ud_8 -1.1188e-01 1 1  ON 18
ud_9 -7.4208e-02 1 1  ON 19
eCa_0 -2.0682e+00 1 1  ON 20
eCa_1 -1.1820e+00 1 1  ON 21
eCa_2 -3.2225e-01 1 1  ON 22
eCa_3 3.1301e-01 1 1  ON 23
eCa_4 7.3591e-01 1 1  ON 24
eCa_5 9.8360e-01 1 1  ON 25
eCa_6 9.2930e-01 1 1  ON 26
eCa_7 5.1447e-01 1 1  ON 27
eCa_8 1.1608e-01 1 1  ON 28
eCa_9 1.5122e-03 1 1  ON 29
  </optVariables>
   Restore the number of walkers to 1, removing 0 walkers.
</opt>
</optimization-report>
  QMC Execution time = 2.5625e+00 secs
  Reusing QMCFixedSampleLinearOptimize
 Using QMCCostFunction::QMCCostFunction

=========================================================
  Start QMCFixedSampleLinearOptimize
  File Root Ca.log.s010 append = no 
=========================================================
  Skip QMCDriver::putQMCInfo 
  Resetting Properties of the walkers 1 x 13

=========================================================
  Start VMC
  File Root Ca.log.s010 append = no 
=========================================================
Using existing walkers 
  Resetting Properties of the walkers 1 x 13

<vmc function="put">
  qmc_counter=4  my_counter=9
  time step      = 1.5000e-01
  blocks         = 200
  steps          = 2
  substeps       = 5
  current        = 0
  target samples = 2.5600e+05
  walkers/mpi    = 1

  stepsbetweensamples = 1
<parameter name="blocks" condition="int">200</parameter>
<parameter name="blocks_between_recompute" condition="int">0</parameter>
<parameter name="check_properties" condition="int">100</parameter>
<parameter name="checkproperties" condition="int">100</parameter>
<parameter name="current" condition="int">0</parameter>
<parameter name="dmcwalkersperthread" condition="real">2.5000e+02</parameter>
<parameter name="maxcpusecs" condition="real">3.6000e+05</parameter>
<parameter name="record_configs" condition="int">0</parameter>
<parameter name="record_walkers" condition="int">1</parameter>
<parameter name="recordconfigs" condition="int">0</parameter>
<parameter name="recordwalkers" condition="int">1</parameter>
<parameter name="rewind" condition="int">0</parameter>
<parameter name="samples" condition="real">2.5600e+05</parameter>
<parameter name="samplesperthread" condition="real">2.5000e+02</parameter>
<parameter name="steps" condition="int">2</parameter>
<parameter name="stepsbetweensamples" condition="int">1</parameter>
<parameter name="store_configs" condition="int">0</parameter>
<parameter name="storeconfigs" condition="int">0</parameter>
<parameter name="sub_steps" condition="int">5</parameter>
<parameter name="substeps" condition="int">5</parameter>
<parameter name="tau" condition="au">1.5000e-01</parameter>
<parameter name="time_step" condition="au">1.5000e-01</parameter>
<parameter name="timestep" condition="au">1.5000e-01</parameter>
<parameter name="use_drift" condition="string">no</parameter>
<parameter name="usedrift" condition="string">no</parameter>
<parameter name="walkers" condition="int">1</parameter>
<parameter name="warmup_steps" condition="int">0</parameter>
<parameter name="warmupsteps" condition="int">0</parameter>
  DumpConfig==false Nothing (configurations, state) will be saved.
  Walker Samples are dumped every 1 steps.
</vmc>
  EstimatorManagerBase::add replace LocalEnergy estimator.
  EstimatorManagerBase::add replace LocalEnergy estimator.
<optimization-report>
<vmc stage="main" blocks="200">
  Cannot make clones again. Use existing 1 clones
  Initial partition of walkers 0 1 
  Using Particle by Particle moves
  Walker moves without drift
  Total Sample Size   =256000
  Walker distribution on root = 0 1 
  Using Locality Approximation
===== Memory Usage after the buffer registration =====
Available memory on node 0, free + buffers : 82682 MB
Memory footprint by rank 0 on node 0       : 89 MB
==================================================
====================================================
  SimpleFixedNodeBranch::finalize after a VMC block
    QMC counter        = 10
    time step          = 0.15
    reference energy   = -36.6766
    reference variance = 0.395485
====================================================
  Execution time = 2.0046e+00
</vmc>
<opt stage="setup">
  <log>
   Reading configurations from h5FileRoot Ca.log.s010
  QMCCostFunction is created with 1 threads.
  Using Nonlocal PP in Opt: NonLocalECP
   Number of samples loaded to each thread : 250 
  VMC Eavg = -3.6659e+01
  VMC Evar = 4.9670e-01
  Total weights = 2.5600e+05
  Execution time = 2.2298e-01
  </log>
</opt>
<opt stage="main" walkers="256000">
  <log>

*****************************************
Building overlap and Hamiltonian matrices
*****************************************

Among totally 30 optimized parameters, largest LM parameter change : 6.1362e-02 at parameter 27

******************************************************************************
Init Cost =   4.9670e-01    New Cost =   4.9549e-01  Delta Cost =  -1.2077e-03
******************************************************************************

The new set of parameters is valid. Updating the trial wave function!

*****************************************************************************
Applying the update for shift_i =   1.0000e-02     and shift_s =   3.9062e-03
*****************************************************************************
  Execution time = 2.4433e+00
  </log>
  <optVariables href="Ca.log.s010.opt.xml">
uu_0 3.4018e-01 1 1  ON 0
uu_1 7.5366e-02 1 1  ON 1
uu_2 -3.6023e-02 1 1  ON 2
uu_3 -1.0065e-01 1 1  ON 3
uu_4 -1.2861e-01 1 1  ON 4
uu_5 -1.3934e-01 1 1  ON 5
uu_6 -1.0892e-01 1 1  ON 6
uu_7 -2.3759e-02 1 1  ON 7
uu_8 7.4705e-02 1 1  ON 8
uu_9 8.7614e-02 1 1  ON 9
ud_0 5.6200e-01 1 1  ON 10
ud_1 2.0939e-01 1 1  ON 11
ud_2 8.4732e-02 1 1  ON 12
ud_3 -1.1253e-02 1 1  ON 13
ud_4 -6.7838e-02 1 1  ON 14
ud_5 -1.2429e-01 1 1  ON 15
ud_6 -1.4950e-01 1 1  ON 16
ud_7 -1.4963e-01 1 1  ON 17
ud_8 -1.1393e-01 1 1  ON 18
ud_9 -7.1162e-02 1 1  ON 19
eCa_0 -2.1050e+00 1 1  ON 20
eCa_1 -1.2213e+00 1 1  ON 21
eCa_2 -3.5739e-01 1 1  ON 22
eCa_3 2.7884e-01 1 1  ON 23
eCa_4 7.2565e-01 1 1  ON 24
eCa_5 9.9610e-01 1 1  ON 25
eCa_6 9.8062e-01 1 1  ON 26
eCa_7 5.7583e-01 1 1  ON 27
eCa_8 1.4189e-01 1 1  ON 28
eCa_9 7.7841e-03 1 1  ON 29
  </optVariables>
   Restore the number of walkers to 1, removing 0 walkers.
</opt>
</optimization-report>
  QMC Execution time = 2.4510e+00 secs
Loop execution max-interations = 10
  Reusing QMCFixedSampleLinearOptimize
 Using QMCCostFunction::QMCCostFunction

=========================================================
  Start QMCFixedSampleLinearOptimize
  File Root Ca.log.s011 append = no 
=========================================================
  Skip QMCDriver::putQMCInfo 
  Resetting Properties of the walkers 1 x 13

=========================================================
  Start VMC
  File Root Ca.log.s011 append = no 
=========================================================
  Using the current 1 walkers.
  Total number of walkers: 1.0240e+03
  Total weight: 1.0240e+03
  Resetting Properties of the walkers 1 x 13

<vmc function="put">
  qmc_counter=0  my_counter=10
  time step      = 1.5000e-01
  blocks         = 200
  steps          = 3
  substeps       = 5
  current        = 0
  target samples = 5.1200e+05
  walkers/mpi    = 1

  stepsbetweensamples = 1
<parameter name="blocks" condition="int">200</parameter>
<parameter name="blocks_between_recompute" condition="int">0</parameter>
<parameter name="check_properties" condition="int">100</parameter>
<parameter name="checkproperties" condition="int">100</parameter>
<parameter name="current" condition="int">0</parameter>
<parameter name="dmcwalkersperthread" condition="real">5.0000e+02</parameter>
<parameter name="maxcpusecs" condition="real">3.6000e+05</parameter>
<parameter name="record_configs" condition="int">0</parameter>
<parameter name="record_walkers" condition="int">1</parameter>
<parameter name="recordconfigs" condition="int">0</parameter>
<parameter name="recordwalkers" condition="int">1</parameter>
<parameter name="rewind" condition="int">0</parameter>
<parameter name="samples" condition="real">5.1200e+05</parameter>
<parameter name="samplesperthread" condition="real">5.0000e+02</parameter>
<parameter name="steps" condition="int">3</parameter>
<parameter name="stepsbetweensamples" condition="int">1</parameter>
<parameter name="store_configs" condition="int">0</parameter>
<parameter name="storeconfigs" condition="int">0</parameter>
<parameter name="sub_steps" condition="int">5</parameter>
<parameter name="substeps" condition="int">5</parameter>
<parameter name="tau" condition="au">1.5000e-01</parameter>
<parameter name="time_step" condition="au">1.5000e-01</parameter>
<parameter name="timestep" condition="au">1.5000e-01</parameter>
<parameter name="use_drift" condition="string">no</parameter>
<parameter name="usedrift" condition="string">no</parameter>
<parameter name="walkers" condition="int">1</parameter>
<parameter name="warmup_steps" condition="int">0</parameter>
<parameter name="warmupsteps" condition="int">0</parameter>
  DumpConfig==false Nothing (configurations, state) will be saved.
  Walker Samples are dumped every 1 steps.
</vmc>
  EstimatorManagerBase::add replace LocalEnergy estimator.
  EstimatorManagerBase::add replace LocalEnergy estimator.
<optimization-report>
<vmc stage="main" blocks="200">
  Cannot make clones again. Use existing 1 clones
  Initial partition of walkers 0 1 
  Using Particle by Particle moves
  Walker moves without drift
  Total Sample Size   =512000
  Walker distribution on root = 0 1 
  Using Locality Approximation
===== Memory Usage after the buffer registration =====
Available memory on node 0, free + buffers : 82680 MB
Memory footprint by rank 0 on node 0       : 91 MB
==================================================
====================================================
  SimpleFixedNodeBranch::finalize after a VMC block
    QMC counter        = 11
    time step          = 0.15
    reference energy   = -36.6575
    reference variance = 0.56116
====================================================
  Execution time = 2.2371e+00
</vmc>
<opt stage="setup">
  <log>
   Reading configurations from h5FileRoot Ca.log.s011
  QMCCostFunction is created with 1 threads.
  Using Nonlocal PP in Opt: NonLocalECP
   Number of samples loaded to each thread : 500 
  VMC Eavg = -3.6661e+01
  VMC Evar = 5.0588e-01
  Total weights = 5.1200e+05
  Execution time = 4.0483e-01
  </log>
</opt>
<opt stage="main" walkers="512000">
  <log>

*****************************************
Building overlap and Hamiltonian matrices
*****************************************

Among totally 30 optimized parameters, largest LM parameter change : 5.8999e-02 at parameter 27

******************************************************************************
Init Cost =  -3.4803e+01    New Cost =  -3.4803e+01  Delta Cost =  -1.7175e-04
******************************************************************************

The new set of parameters is valid. Updating the trial wave function!

*****************************************************************************
Applying the update for shift_i =   1.0000e-02     and shift_s =   3.9062e-03
*****************************************************************************
  Execution time = 3.0202e+00
  </log>
  <optVariables href="Ca.log.s011.opt.xml">
uu_0 3.3924e-01 1 1  ON 0
uu_1 7.5110e-02 1 1  ON 1
uu_2 -3.7268e-02 1 1  ON 2
uu_3 -1.0295e-01 1 1  ON 3
uu_4 -1.3360e-01 1 1  ON 4
uu_5 -1.4728e-01 1 1  ON 5
uu_6 -1.1736e-01 1 1  ON 6
uu_7 -2.7764e-02 1 1  ON 7
uu_8 7.4968e-02 1 1  ON 8
uu_9 1.0387e-01 1 1  ON 9
ud_0 5.6258e-01 1 1  ON 10
ud_1 2.0978e-01 1 1  ON 11
ud_2 8.4897e-02 1 1  ON 12
ud_3 -1.1362e-02 1 1  ON 13
ud_4 -6.7189e-02 1 1  ON 14
ud_5 -1.2248e-01 1 1  ON 15
ud_6 -1.5288e-01 1 1  ON 16
ud_7 -1.5121e-01 1 1  ON 17
ud_8 -1.1673e-01 1 1  ON 18
ud_9 -7.4238e-02 1 1  ON 19
eCa_0 -2.1421e+00 1 1  ON 20
eCa_1 -1.2557e+00 1 1  ON 21
eCa_2 -3.8854e-01 1 1  ON 22
eCa_3 2.5842e-01 1 1  ON 23
eCa_4 7.1181e-01 1 1  ON 24
eCa_5 1.0013e+00 1 1  ON 25
eCa_6 1.0222e+00 1 1  ON 26
eCa_7 6.3483e-01 1 1  ON 27
eCa_8 1.6503e-01 1 1  ON 28
eCa_9 1.4054e-02 1 1  ON 29
  </optVariables>
   Restore the number of walkers to 1, removing 0 walkers.
</opt>
</optimization-report>
  QMC Execution time = 3.0964e+00 secs
  Reusing QMCFixedSampleLinearOptimize
 Using QMCCostFunction::QMCCostFunction

=========================================================
  Start QMCFixedSampleLinearOptimize
  File Root Ca.log.s012 append = no 
=========================================================
  Skip QMCDriver::putQMCInfo 
  Resetting Properties of the walkers 1 x 13

=========================================================
  Start VMC
  File Root Ca.log.s012 append = no 
=========================================================
Using existing walkers 
  Resetting Properties of the walkers 1 x 13

<vmc function="put">
  qmc_counter=1  my_counter=11
  time step      = 1.5000e-01
  blocks         = 200
  steps          = 3
  substeps       = 5
  current        = 0
  target samples = 5.1200e+05
  walkers/mpi    = 1

  stepsbetweensamples = 1
<parameter name="blocks" condition="int">200</parameter>
<parameter name="blocks_between_recompute" condition="int">0</parameter>
<parameter name="check_properties" condition="int">100</parameter>
<parameter name="checkproperties" condition="int">100</parameter>
<parameter name="current" condition="int">0</parameter>
<parameter name="dmcwalkersperthread" condition="real">5.0000e+02</parameter>
<parameter name="maxcpusecs" condition="real">3.6000e+05</parameter>
<parameter name="record_configs" condition="int">0</parameter>
<parameter name="record_walkers" condition="int">1</parameter>
<parameter name="recordconfigs" condition="int">0</parameter>
<parameter name="recordwalkers" condition="int">1</parameter>
<parameter name="rewind" condition="int">0</parameter>
<parameter name="samples" condition="real">5.1200e+05</parameter>
<parameter name="samplesperthread" condition="real">5.0000e+02</parameter>
<parameter name="steps" condition="int">3</parameter>
<parameter name="stepsbetweensamples" condition="int">1</parameter>
<parameter name="store_configs" condition="int">0</parameter>
<parameter name="storeconfigs" condition="int">0</parameter>
<parameter name="sub_steps" condition="int">5</parameter>
<parameter name="substeps" condition="int">5</parameter>
<parameter name="tau" condition="au">1.5000e-01</parameter>
<parameter name="time_step" condition="au">1.5000e-01</parameter>
<parameter name="timestep" condition="au">1.5000e-01</parameter>
<parameter name="use_drift" condition="string">no</parameter>
<parameter name="usedrift" condition="string">no</parameter>
<parameter name="walkers" condition="int">1</parameter>
<parameter name="warmup_steps" condition="int">0</parameter>
<parameter name="warmupsteps" condition="int">0</parameter>
  DumpConfig==false Nothing (configurations, state) will be saved.
  Walker Samples are dumped every 1 steps.
</vmc>
  EstimatorManagerBase::add replace LocalEnergy estimator.
  EstimatorManagerBase::add replace LocalEnergy estimator.
<optimization-report>
<vmc stage="main" blocks="200">
  Cannot make clones again. Use existing 1 clones
[...]
</vmc>
<opt stage="setup">
  <log>
   Reading configurations from h5FileRoot Ca.log.s017
  QMCCostFunction is created with 1 threads.
  Using Nonlocal PP in Opt: NonLocalECP
   Number of samples loaded to each thread : 500 
  VMC Eavg = -3.6660e+01
  VMC Evar = 5.0637e-01
  Total weights = 5.1200e+05
  Execution time = 3.5180e-01
  </log>
</opt>
<opt stage="main" walkers="512000">
  <log>

*****************************************
Building overlap and Hamiltonian matrices
*****************************************

Among totally 30 optimized parameters, largest LM parameter change : 3.8387e-02 at parameter 27

******************************************************************************
Init Cost =  -3.4802e+01    New Cost =  -3.4802e+01  Delta Cost =  -8.6226e-05
******************************************************************************

The new set of parameters is valid. Updating the trial wave function!

*****************************************************************************
Applying the update for shift_i =   1.0000e-02     and shift_s =   3.9062e-03
*****************************************************************************
  Execution time = 2.9751e+00
  </log>
  <optVariables href="Ca.log.s017.opt.xml">
uu_0 3.5318e-01 1 1  ON 0
uu_1 8.9091e-02 1 1  ON 1
uu_2 -2.5616e-02 1 1  ON 2
uu_3 -9.3965e-02 1 1  ON 3
uu_4 -1.3154e-01 1 1  ON 4
uu_5 -1.5349e-01 1 1  ON 5
uu_6 -1.4299e-01 1 1  ON 6
uu_7 -7.4383e-02 1 1  ON 7
uu_8 4.8791e-02 1 1  ON 8
uu_9 1.0788e-01 1 1  ON 9
ud_0 5.9111e-01 1 1  ON 10
ud_1 2.3784e-01 1 1  ON 11
ud_2 1.1211e-01 1 1  ON 12
ud_3 1.4472e-02 1 1  ON 13
ud_4 -4.5241e-02 1 1  ON 14
ud_5 -1.1049e-01 1 1  ON 15
ud_6 -1.5475e-01 1 1  ON 16
ud_7 -1.6688e-01 1 1  ON 17
ud_8 -1.3615e-01 1 1  ON 18
ud_9 -1.0247e-01 1 1  ON 19
eCa_0 -2.2966e+00 1 1  ON 20
eCa_1 -1.4075e+00 1 1  ON 21
eCa_2 -5.2331e-01 1 1  ON 22
eCa_3 1.5232e-01 1 1  ON 23
eCa_4 6.5019e-01 1 1  ON 24
eCa_5 1.0262e+00 1 1  ON 25
eCa_6 1.1758e+00 1 1  ON 26
eCa_7 9.0406e-01 1 1  ON 27
eCa_8 3.0531e-01 1 1  ON 28
eCa_9 3.3264e-02 1 1  ON 29
  </optVariables>
   Restore the number of walkers to 1, removing 0 walkers.
</opt>
</optimization-report>
  QMC Execution time = 3.0565e+00 secs
  Reusing QMCFixedSampleLinearOptimize
 Using QMCCostFunction::QMCCostFunction

=========================================================
  Start QMCFixedSampleLinearOptimize
  File Root Ca.log.s018 append = no 
=========================================================
  Skip QMCDriver::putQMCInfo 
  Resetting Properties of the walkers 1 x 13

=========================================================
  Start VMC
  File Root Ca.log.s018 append = no 
=========================================================
Using existing walkers 
  Resetting Properties of the walkers 1 x 13

<vmc function="put">
  qmc_counter=7  my_counter=17
  time step      = 1.5000e-01
  blocks         = 200
  steps          = 3
  substeps       = 5
  current        = 0
  target samples = 5.1200e+05
  walkers/mpi    = 1

  stepsbetweensamples = 1
<parameter name="blocks" condition="int">200</parameter>
<parameter name="blocks_between_recompute" condition="int">0</parameter>
<parameter name="check_properties" condition="int">100</parameter>
<parameter name="checkproperties" condition="int">100</parameter>
<parameter name="current" condition="int">0</parameter>
<parameter name="dmcwalkersperthread" condition="real">5.0000e+02</parameter>
<parameter name="maxcpusecs" condition="real">3.6000e+05</parameter>
<parameter name="record_configs" condition="int">0</parameter>
<parameter name="record_walkers" condition="int">1</parameter>
<parameter name="recordconfigs" condition="int">0</parameter>
<parameter name="recordwalkers" condition="int">1</parameter>
<parameter name="rewind" condition="int">0</parameter>
<parameter name="samples" condition="real">5.1200e+05</parameter>
<parameter name="samplesperthread" condition="real">5.0000e+02</parameter>
<parameter name="steps" condition="int">3</parameter>
<parameter name="stepsbetweensamples" condition="int">1</parameter>
<parameter name="store_configs" condition="int">0</parameter>
<parameter name="storeconfigs" condition="int">0</parameter>
<parameter name="sub_steps" condition="int">5</parameter>
<parameter name="substeps" condition="int">5</parameter>
<parameter name="tau" condition="au">1.5000e-01</parameter>
<parameter name="time_step" condition="au">1.5000e-01</parameter>
<parameter name="timestep" condition="au">1.5000e-01</parameter>
<parameter name="use_drift" condition="string">no</parameter>
<parameter name="usedrift" condition="string">no</parameter>
<parameter name="walkers" condition="int">1</parameter>
<parameter name="warmup_steps" condition="int">0</parameter>
<parameter name="warmupsteps" condition="int">0</parameter>
  DumpConfig==false Nothing (configurations, state) will be saved.
  Walker Samples are dumped every 1 steps.
</vmc>
  EstimatorManagerBase::add replace LocalEnergy estimator.
  EstimatorManagerBase::add replace LocalEnergy estimator.
<optimization-report>
<vmc stage="main" blocks="200">
  Cannot make clones again. Use existing 1 clones
  Initial partition of walkers 0 1 
  Using Particle by Particle moves
  Walker moves without drift
  Total Sample Size   =512000
  Walker distribution on root = 0 1 
  Using Locality Approximation
===== Memory Usage after the buffer registration =====
Available memory on node 0, free + buffers : 82628 MB
Memory footprint by rank 0 on node 0       : 104 MB
==================================================
====================================================
  SimpleFixedNodeBranch::finalize after a VMC block
    QMC counter        = 18
    time step          = 0.15
    reference energy   = -36.6973
    reference variance = 0.471297
====================================================
  Execution time = 2.2085e+00
</vmc>
<opt stage="setup">
  <log>
   Reading configurations from h5FileRoot Ca.log.s018
  QMCCostFunction is created with 1 threads.
  Using Nonlocal PP in Opt: NonLocalECP
   Number of samples loaded to each thread : 500 
  VMC Eavg = -3.6659e+01
  VMC Evar = 5.0250e-01
  Total weights = 5.1200e+05
  Execution time = 4.6913e-01
  </log>
</opt>
<opt stage="main" walkers="512000">
  <log>

*****************************************
Building overlap and Hamiltonian matrices
*****************************************

Among totally 30 optimized parameters, largest LM parameter change : 4.1611e-02 at parameter 27

******************************************************************************
Init Cost =  -3.4801e+01    New Cost =  -3.4801e+01  Delta Cost =  -4.2167e-05
******************************************************************************

The new set of parameters is valid. Updating the trial wave function!

*****************************************************************************
Applying the update for shift_i =   1.0000e-02     and shift_s =   3.9062e-03
*****************************************************************************
  Execution time = 3.1405e+00
  </log>
  <optVariables href="Ca.log.s018.opt.xml">
uu_0 3.5573e-01 1 1  ON 0
uu_1 9.0197e-02 1 1  ON 1
uu_2 -2.4924e-02 1 1  ON 2
uu_3 -9.3454e-02 1 1  ON 3
uu_4 -1.3235e-01 1 1  ON 4
uu_5 -1.5521e-01 1 1  ON 5
uu_6 -1.4506e-01 1 1  ON 6
uu_7 -7.8458e-02 1 1  ON 7
uu_8 4.5852e-02 1 1  ON 8
uu_9 1.0869e-01 1 1  ON 9
ud_0 5.9244e-01 1 1  ON 10
ud_1 2.3919e-01 1 1  ON 11
ud_2 1.1272e-01 1 1  ON 12
ud_3 1.5630e-02 1 1  ON 13
ud_4 -4.5929e-02 1 1  ON 14
ud_5 -1.1143e-01 1 1  ON 15
ud_6 -1.5573e-01 1 1  ON 16
ud_7 -1.6726e-01 1 1  ON 17
ud_8 -1.3479e-01 1 1  ON 18
ud_9 -1.0088e-01 1 1  ON 19
eCa_0 -2.3197e+00 1 1  ON 20
eCa_1 -1.4274e+00 1 1  ON 21
eCa_2 -5.3993e-01 1 1  ON 22
eCa_3 1.3862e-01 1 1  ON 23
eCa_4 6.4171e-01 1 1  ON 24
eCa_5 1.0232e+00 1 1  ON 25
eCa_6 1.1903e+00 1 1  ON 26
eCa_7 9.4567e-01 1 1  ON 27
eCa_8 3.3128e-01 1 1  ON 28
eCa_9 3.6501e-02 1 1  ON 29
  </optVariables>
   Restore the number of walkers to 1, removing 0 walkers.
</opt>
</optimization-report>
  QMC Execution time = 3.1493e+00 secs
  Reusing QMCFixedSampleLinearOptimize
 Using QMCCostFunction::QMCCostFunction

=========================================================
  Start QMCFixedSampleLinearOptimize
  File Root Ca.log.s019 append = no 
=========================================================
  Skip QMCDriver::putQMCInfo 
  Resetting Properties of the walkers 1 x 13

=========================================================
  Start VMC
  File Root Ca.log.s019 append = no 
=========================================================
Using existing walkers 
  Resetting Properties of the walkers 1 x 13

<vmc function="put">
  qmc_counter=8  my_counter=18
  time step      = 1.5000e-01
  blocks         = 200
  steps          = 3
  substeps       = 5
  current        = 0
  target samples = 5.1200e+05
  walkers/mpi    = 1

  stepsbetweensamples = 1
<parameter name="blocks" condition="int">200</parameter>
<parameter name="blocks_between_recompute" condition="int">0</parameter>
<parameter name="check_properties" condition="int">100</parameter>
<parameter name="checkproperties" condition="int">100</parameter>
<parameter name="current" condition="int">0</parameter>
<parameter name="dmcwalkersperthread" condition="real">5.0000e+02</parameter>
<parameter name="maxcpusecs" condition="real">3.6000e+05</parameter>
<parameter name="record_configs" condition="int">0</parameter>
<parameter name="record_walkers" condition="int">1</parameter>
<parameter name="recordconfigs" condition="int">0</parameter>
<parameter name="recordwalkers" condition="int">1</parameter>
<parameter name="rewind" condition="int">0</parameter>
<parameter name="samples" condition="real">5.1200e+05</parameter>
<parameter name="samplesperthread" condition="real">5.0000e+02</parameter>
<parameter name="steps" condition="int">3</parameter>
<parameter name="stepsbetweensamples" condition="int">1</parameter>
<parameter name="store_configs" condition="int">0</parameter>
<parameter name="storeconfigs" condition="int">0</parameter>
<parameter name="sub_steps" condition="int">5</parameter>
<parameter name="substeps" condition="int">5</parameter>
<parameter name="tau" condition="au">1.5000e-01</parameter>
<parameter name="time_step" condition="au">1.5000e-01</parameter>
<parameter name="timestep" condition="au">1.5000e-01</parameter>
<parameter name="use_drift" condition="string">no</parameter>
<parameter name="usedrift" condition="string">no</parameter>
<parameter name="walkers" condition="int">1</parameter>
<parameter name="warmup_steps" condition="int">0</parameter>
<parameter name="warmupsteps" condition="int">0</parameter>
  DumpConfig==false Nothing (configurations, state) will be saved.
  Walker Samples are dumped every 1 steps.
</vmc>
  EstimatorManagerBase::add replace LocalEnergy estimator.
  EstimatorManagerBase::add replace LocalEnergy estimator.
<optimization-report>
<vmc stage="main" blocks="200">
  Cannot make clones again. Use existing 1 clones
  Initial partition of walkers 0 1 
  Using Particle by Particle moves
  Walker moves without drift
  Total Sample Size   =512000
  Walker distribution on root = 0 1 
  Using Locality Approximation
===== Memory Usage after the buffer registration =====
Available memory on node 0, free + buffers : 82625 MB
Memory footprint by rank 0 on node 0       : 106 MB
==================================================
====================================================
  SimpleFixedNodeBranch::finalize after a VMC block
    QMC counter        = 19
    time step          = 0.15
    reference energy   = -36.6495
    reference variance = 0.594042
====================================================
  Execution time = 2.1495e+00
</vmc>
<opt stage="setup">
  <log>
   Reading configurations from h5FileRoot Ca.log.s019
  QMCCostFunction is created with 1 threads.
  Using Nonlocal PP in Opt: NonLocalECP
   Number of samples loaded to each thread : 500 
  VMC Eavg = -3.6662e+01
  VMC Evar = 5.0855e-01
  Total weights = 5.1200e+05
  Execution time = 4.6111e-01
  </log>
</opt>
<opt stage="main" walkers="512000">
  <log>

*****************************************
Building overlap and Hamiltonian matrices
*****************************************

Among totally 30 optimized parameters, largest LM parameter change : 3.0161e-02 at parameter 27

******************************************************************************
Init Cost =  -3.4804e+01    New Cost =  -3.4804e+01  Delta Cost =  -9.9549e-05
******************************************************************************

The new set of parameters is valid. Updating the trial wave function!

*****************************************************************************
Applying the update for shift_i =   1.0000e-02     and shift_s =   3.9062e-03
*****************************************************************************
  Execution time = 3.0649e+00
  </log>
  <optVariables href="Ca.log.s019.opt.xml">
uu_0 3.5294e-01 1 1  ON 0
uu_1 8.8393e-02 1 1  ON 1
uu_2 -2.5992e-02 1 1  ON 2
uu_3 -9.5833e-02 1 1  ON 3
uu_4 -1.3313e-01 1 1  ON 4
uu_5 -1.5653e-01 1 1  ON 5
uu_6 -1.4633e-01 1 1  ON 6
uu_7 -8.3064e-02 1 1  ON 7
uu_8 4.3579e-02 1 1  ON 8
uu_9 1.1837e-01 1 1  ON 9
ud_0 5.9583e-01 1 1  ON 10
ud_1 2.4285e-01 1 1  ON 11
ud_2 1.1584e-01 1 1  ON 12
ud_3 1.7765e-02 1 1  ON 13
ud_4 -4.4354e-02 1 1  ON 14
ud_5 -1.0880e-01 1 1  ON 15
ud_6 -1.5330e-01 1 1  ON 16
ud_7 -1.7634e-01 1 1  ON 17
ud_8 -1.4363e-01 1 1  ON 18
ud_9 -9.4897e-02 1 1  ON 19
eCa_0 -2.3356e+00 1 1  ON 20
eCa_1 -1.4432e+00 1 1  ON 21
eCa_2 -5.5268e-01 1 1  ON 22
eCa_3 1.2566e-01 1 1  ON 23
eCa_4 6.3058e-01 1 1  ON 24
eCa_5 1.0152e+00 1 1  ON 25
eCa_6 1.2044e+00 1 1  ON 26
eCa_7 9.7583e-01 1 1  ON 27
eCa_8 3.5606e-01 1 1  ON 28
eCa_9 4.4119e-02 1 1  ON 29
  </optVariables>
   Restore the number of walkers to 1, removing 0 walkers.
</opt>
</optimization-report>
  QMC Execution time = 3.0945e+00 secs
  Reusing QMCFixedSampleLinearOptimize
 Using QMCCostFunction::QMCCostFunction

=========================================================
  Start QMCFixedSampleLinearOptimize
  File Root Ca.log.s020 append = no 
=========================================================
  Skip QMCDriver::putQMCInfo 
  Resetting Properties of the walkers 1 x 13

=========================================================
  Start VMC
  File Root Ca.log.s020 append = no 
=========================================================
Using existing walkers 
  Resetting Properties of the walkers 1 x 13

<vmc function="put">
  qmc_counter=9  my_counter=19
  time step      = 1.5000e-01
  blocks         = 200
  steps          = 3
  substeps       = 5
  current        = 0
  target samples = 5.1200e+05
  walkers/mpi    = 1

  stepsbetweensamples = 1
<parameter name="blocks" condition="int">200</parameter>
<parameter name="blocks_between_recompute" condition="int">0</parameter>
<parameter name="check_properties" condition="int">100</parameter>
<parameter name="checkproperties" condition="int">100</parameter>
<parameter name="current" condition="int">0</parameter>
<parameter name="dmcwalkersperthread" condition="real">5.0000e+02</parameter>
<parameter name="maxcpusecs" condition="real">3.6000e+05</parameter>
<parameter name="record_configs" condition="int">0</parameter>
<parameter name="record_walkers" condition="int">1</parameter>
<parameter name="recordconfigs" condition="int">0</parameter>
<parameter name="recordwalkers" condition="int">1</parameter>
<parameter name="rewind" condition="int">0</parameter>
<parameter name="samples" condition="real">5.1200e+05</parameter>
<parameter name="samplesperthread" condition="real">5.0000e+02</parameter>
<parameter name="steps" condition="int">3</parameter>
<parameter name="stepsbetweensamples" condition="int">1</parameter>
<parameter name="store_configs" condition="int">0</parameter>
<parameter name="storeconfigs" condition="int">0</parameter>
<parameter name="sub_steps" condition="int">5</parameter>
<parameter name="substeps" condition="int">5</parameter>
<parameter name="tau" condition="au">1.5000e-01</parameter>
<parameter name="time_step" condition="au">1.5000e-01</parameter>
<parameter name="timestep" condition="au">1.5000e-01</parameter>
<parameter name="use_drift" condition="string">no</parameter>
<parameter name="usedrift" condition="string">no</parameter>
<parameter name="walkers" condition="int">1</parameter>
<parameter name="warmup_steps" condition="int">0</parameter>
<parameter name="warmupsteps" condition="int">0</parameter>
  DumpConfig==false Nothing (configurations, state) will be saved.
  Walker Samples are dumped every 1 steps.
</vmc>
  EstimatorManagerBase::add replace LocalEnergy estimator.
  EstimatorManagerBase::add replace LocalEnergy estimator.
<optimization-report>
<vmc stage="main" blocks="200">
  Cannot make clones again. Use existing 1 clones
  Initial partition of walkers 0 1 
  Using Particle by Particle moves
  Walker moves without drift
  Total Sample Size   =512000
  Walker distribution on root = 0 1 
  Using Locality Approximation
===== Memory Usage after the buffer registration =====
Available memory on node 0, free + buffers : 82623 MB
Memory footprint by rank 0 on node 0       : 107 MB
==================================================
====================================================
  SimpleFixedNodeBranch::finalize after a VMC block
    QMC counter        = 20
    time step          = 0.15
    reference energy   = -36.6578
    reference variance = 0.421906
====================================================
  Execution time = 2.1888e+00
</vmc>
<opt stage="setup">
  <log>
   Reading configurations from h5FileRoot Ca.log.s020
  QMCCostFunction is created with 1 threads.
  Using Nonlocal PP in Opt: NonLocalECP
   Number of samples loaded to each thread : 500 
  VMC Eavg = -3.6661e+01
  VMC Evar = 5.0930e-01
  Total weights = 5.1200e+05
  Execution time = 4.6608e-01
  </log>
</opt>
<opt stage="main" walkers="512000">
  <log>

*****************************************
Building overlap and Hamiltonian matrices
*****************************************

Among totally 30 optimized parameters, largest LM parameter change : 3.3506e-02 at parameter 27

******************************************************************************
Init Cost =  -3.4803e+01    New Cost =  -3.4803e+01  Delta Cost =  -4.8460e-05
******************************************************************************

The new set of parameters is valid. Updating the trial wave function!

*****************************************************************************
Applying the update for shift_i =   1.0000e-02     and shift_s =   3.9062e-03
*****************************************************************************
  Execution time = 3.1151e+00
  </log>
  <optVariables href="Ca.log.s020.opt.xml">
uu_0 3.5527e-01 1 1  ON 0
uu_1 9.0428e-02 1 1  ON 1
uu_2 -2.3702e-02 1 1  ON 2
uu_3 -9.3538e-02 1 1  ON 3
uu_4 -1.3105e-01 1 1  ON 4
uu_5 -1.5615e-01 1 1  ON 5
uu_6 -1.5008e-01 1 1  ON 6
uu_7 -8.9568e-02 1 1  ON 7
uu_8 2.8963e-02 1 1  ON 8
uu_9 1.1604e-01 1 1  ON 9
ud_0 6.0037e-01 1 1  ON 10
ud_1 2.4712e-01 1 1  ON 11
ud_2 1.2003e-01 1 1  ON 12
ud_3 1.9901e-02 1 1  ON 13
ud_4 -4.1403e-02 1 1  ON 14
ud_5 -1.0601e-01 1 1  ON 15
ud_6 -1.5538e-01 1 1  ON 16
ud_7 -1.7583e-01 1 1  ON 17
ud_8 -1.5024e-01 1 1  ON 18
ud_9 -1.0721e-01 1 1  ON 19
eCa_0 -2.3554e+00 1 1  ON 20
eCa_1 -1.4620e+00 1 1  ON 21
eCa_2 -5.6829e-01 1 1  ON 22
eCa_3 1.1615e-01 1 1  ON 23
eCa_4 6.2181e-01 1 1  ON 24
eCa_5 1.0126e+00 1 1  ON 25
eCa_6 1.2174e+00 1 1  ON 26
eCa_7 1.0093e+00 1 1  ON 27
eCa_8 3.7879e-01 1 1  ON 28
eCa_9 4.7866e-02 1 1  ON 29
  </optVariables>
   Restore the number of walkers to 1, removing 0 walkers.
</opt>
</optimization-report>
  QMC Execution time = 3.1408e+00 secs
  Total Execution time = 6.8476e+01 secs

=========================================================
  A new xml input file : Ca.log.s020.cont.xml
TACC:  Shutdown complete. Exiting. 
