
 Primary working directories    : /global/cscratch1/sd/aannabe
 Secondary working directories  : /global/cscratch1/sd/aannabe
 Wavefunction directory         : /global/homes/a/aannabe/wfu/
 Main file repository           : /global/cscratch1/sd/aannabe/

 SHA1      : 2873118e99aab1bc19f5b6fc1784693c06d15c95
 NAME      : 2015.1.8
 ARCHNAME  : linux/x86_64
 FC        : /opt/cray/pe/craype/2.5.5/bin/ftn
 BLASLIB   : -Wl,-_start-group /opt/intel/compilers_and_libraries_2016.3.210/linux/mkl/lib/intel64/libmkl_intel_ilp64.a /opt/intel/compilers_and_libraries_2016.3.210/linux/mkl/lib/intel64/libmkl_intel_thread.a /opt/intel/compilers_and_libraries_2016.3.210/linux/mkl/lib/intel64/libmkl_core.a -Wl,-_end-group
 id        : lbl

 Nodes     nprocs
 nid00480     1

 Using customized tuning parameters: mindgm=8; mindgv=16; mindgc=4; mindgr=1; noblas=0; minvec=7
 default implementation of scratch files=df  

 ***,Ar
 memory,512,m
 gthresh,twoint=1.e-12
 
 gprint,basis,orbitals
 gexpec,ekin,pot
 
 angstrom
 geometry={
 1                                                                               ! Number of atoms
 Ar 0.0 0.0 0.0
 }
 
 basis={
 Including file /global/homes/a/aannabe/docs/totals/pps/Ar.pp
 Including file /global/homes/a/aannabe/docs/totals/basis/cc-pVnZ/Ar_qz.basis
 }
 
 {hf
 wf,8,1,0
 occ,1,1,1,0,1,0,0,0
                                                                                 !open,1.2
 closed,1,1,1,0,1,0,0,0
                                                                                 !sym,
 }
 scf(i)=energy
 
 _CC_NORM_MAX=2.0
 {ci
 maxit,100
 core
 }
 posthf(i)=energy
 
 table,scf,posthf,ekin,pot
 save,4.csv,new
 
 

 Variables initialized (889), CPU time= 0.01 sec
 Commands  initialized (702), CPU time= 0.00 sec, 572 directives.
 Default parameters read. Elapsed time= 0.10 sec

 Checking input...
 Passed
1


                                         ***  PROGRAM SYSTEM MOLPRO  ***
                                       Copyright, TTI GmbH Stuttgart, 2015
                                    Version 2015.1 linked Sep  7 2016 23:09:38


 **********************************************************************************************************************************
 LABEL *   Ar                                                                            
  64 bit serial version                                                                  DATE: 08-Oct-18          TIME: 12:06:23  
 **********************************************************************************************************************************

 SHA1:             2873118e99aab1bc19f5b6fc1784693c06d15c95
 **********************************************************************************************************************************

 THRESHOLDS:

 ZERO    =  1.00D-12  ONEINT  =  1.00D-12  TWOINT  =  1.00D-12  PREFAC  =  1.00D-14  LOCALI  =  1.00D-09  EORDER  =  1.00D-04
 ENERGY  =  0.00D+00  ETEST   =  0.00D+00  EDENS   =  0.00D+00  THRDEDEF=  1.00D-06  GRADIENT=  1.00D-02  STEP    =  1.00D-03
 ORBITAL =  1.00D-05  CIVEC   =  1.00D-05  COEFF   =  1.00D-04  PRINTCI =  5.00D-02  PUNCHCI =  9.90D+01  OPTGRAD =  3.00D-04
 OPTENERG=  1.00D-06  OPTSTEP =  3.00D-04  THRGRAD =  1.00D-10  COMPRESS=  1.00D-11  VARMIN  =  1.00D-07  VARMAX  =  1.00D-03
 THRDOUB =  0.00D+00  THRDIV  =  1.00D-05  THRRED  =  1.00D-07  THRPSP  =  1.00D+00  THRDC   =  1.00D-10  THRCS   =  1.00D-10
 THRNRM  =  1.00D-08  THREQ   =  0.00D+00  THRDE   =  1.00D+00  THRREF  =  1.00D-05  SPARFAC =  1.00D+00  THRDLP  =  1.00D-07
 THRDIA  =  1.00D-10  THRDLS  =  1.00D-07  THRGPS  =  0.00D+00  THRKEX  =  0.00D+00  THRDIS  =  2.00D-01  THRVAR  =  1.00D-10
 THRLOC  =  1.00D-06  THRGAP  =  1.00D-06  THRLOCT = -1.00D+00  THRGAPT = -1.00D+00  THRORB  =  1.00D-06  THRMLTP =  0.00D+00
 THRCPQCI=  1.00D-10  KEXTA   =  0.00D+00  THRCOARS=  0.00D+00  SYMTOL  =  1.00D-06  GRADTOL =  1.00D-06  THROVL  =  1.00D-08
 THRORTH =  1.00D-08  GRID    =  1.00D-06  GRIDMAX =  1.00D-03  DTMAX   =  0.00D+00  THROCCDE=  1.00D-01  THROCCDE=  1.00D-01



 ZUNIT=ANG
 

Geometry recognized as XYZ


 Variable memory set to  512000000 words,  buffer space   230000 words

 SETTING BASIS          =    USERDEF


 Recomputing integrals since basis changed


 Using spherical harmonics



 PROGRAM * SEWARD (Integral evaluation for generally contracted gaussian basis sets)     Author: Roland Lindh, 1990

 Geometry written to block  1 of record 700

 Orientation using atomic masses  
 Molecule type: Atom
 Symmetry elements: X,Y,Z
 Rotational constants:       0.0000000      0.0000000      0.0000000 GHz  (calculated with average atomic masses)

 Point group  D2h 



 ATOMIC COORDINATES

 NR  ATOM    CHARGE       X              Y              Z

   1  AR      8.00    0.000000000    0.000000000    0.000000000


          AR  CORE POTENTIAL

          d POTENTIAL

 POWERS             1              3              2
 EXPONENTIALS   8.317181       13.12465       6.503132    
 COEFFICIENTS   8.000000       66.53745      -24.10039    

          s - d POTENTIAL

 POWERS             2              2
 EXPONENTIALS   27.06814       4.801263    
 COEFFICIENTS   18.91015       53.04001    

          p - d POTENTIAL

 POWERS             2              2
 EXPONENTIALS   11.13574       4.126631    
 COEFFICIENTS   8.015534       28.22021    


 BASIS DATA

   Nr Sym  Nuc  Type         Exponents   Contraction coefficients

    1.1 Ag    1  1s          17.798602     0.000155
                             10.185798     0.002011
                              5.829136     0.072819
                              3.335903    -0.297567
                              1.909073    -0.143663
                              1.092526     0.157775
                              0.625231     0.391895
                              0.357808     0.424724
                              0.204767     0.223240
                              0.117184     0.063299
    2.1 Ag    1  1s           1.261554     1.000000
    3.1 Ag    1  1s           0.507496     1.000000
    4.1 Ag    1  1s           0.204155     1.000000
    5.1 Ag    1  3d0          2.467298     1.000000
    6.1 Ag    1  3d2+         2.467298     1.000000
    7.1 Ag    1  3d0          0.904123     1.000000
    8.1 Ag    1  3d2+         0.904123     1.000000
    9.1 Ag    1  3d0          0.331309     1.000000
   10.1 Ag    1  3d2+         0.331309     1.000000
   11.1 Ag    1  5g0          1.018010     1.000000
   12.1 Ag    1  5g4+         1.018010     1.000000
   13.1 Ag    1  5g2+         1.018010     1.000000
    1.2 B3u   1  2px          7.610920    -0.008071
                              4.581784    -0.012332
                              2.758240    -0.061298
                              1.660464     0.101944
                              0.999601     0.172497
                              0.601761     0.288747
                              0.362261     0.247918
                              0.218082     0.231893
                              0.131285     0.095994
                              0.079034     0.046211
    2.2 B3u   1  2px          3.256840     1.000000
    3.2 B3u   1  2px          1.339778     1.000000
    4.2 B3u   1  2px          0.551149     1.000000
    5.2 B3u   1  4f1+         1.430464     1.000000
    6.2 B3u   1  4f3+         1.430464     1.000000
    7.2 B3u   1  4f1+         0.561192     1.000000
    8.2 B3u   1  4f3+         0.561192     1.000000
    1.3 B2u   1  2py          7.610920    -0.008071
                              4.581784    -0.012332
                              2.758240    -0.061298
                              1.660464     0.101944
                              0.999601     0.172497
                              0.601761     0.288747
                              0.362261     0.247918
                              0.218082     0.231893
                              0.131285     0.095994
                              0.079034     0.046211
    2.3 B2u   1  2py          3.256840     1.000000
    3.3 B2u   1  2py          1.339778     1.000000
    4.3 B2u   1  2py          0.551149     1.000000
    5.3 B2u   1  4f1-         1.430464     1.000000
    6.3 B2u   1  4f3-         1.430464     1.000000
    7.3 B2u   1  4f1-         0.561192     1.000000
    8.3 B2u   1  4f3-         0.561192     1.000000
    1.4 B1g   1  3d2-         2.467298     1.000000
    2.4 B1g   1  3d2-         0.904123     1.000000
    3.4 B1g   1  3d2-         0.331309     1.000000
    4.4 B1g   1  5g2-         1.018010     1.000000
    5.4 B1g   1  5g4-         1.018010     1.000000
    1.5 B1u   1  2pz          7.610920    -0.008071
                              4.581784    -0.012332
                              2.758240    -0.061298
                              1.660464     0.101944
                              0.999601     0.172497
                              0.601761     0.288747
                              0.362261     0.247918
                              0.218082     0.231893
                              0.131285     0.095994
                              0.079034     0.046211
    2.5 B1u   1  2pz          3.256840     1.000000
    3.5 B1u   1  2pz          1.339778     1.000000
    4.5 B1u   1  2pz          0.551149     1.000000
    5.5 B1u   1  4f0          1.430464     1.000000
    6.5 B1u   1  4f2+         1.430464     1.000000
    7.5 B1u   1  4f0          0.561192     1.000000
    8.5 B1u   1  4f2+         0.561192     1.000000
    1.6 B2g   1  3d1+         2.467298     1.000000
    2.6 B2g   1  3d1+         0.904123     1.000000
    3.6 B2g   1  3d1+         0.331309     1.000000
    4.6 B2g   1  5g1+         1.018010     1.000000
    5.6 B2g   1  5g3+         1.018010     1.000000
    1.7 B3g   1  3d1-         2.467298     1.000000
    2.7 B3g   1  3d1-         0.904123     1.000000
    3.7 B3g   1  3d1-         0.331309     1.000000
    4.7 B3g   1  5g1-         1.018010     1.000000
    5.7 B3g   1  5g3-         1.018010     1.000000
    1.8 Au    1  4f2-         1.430464     1.000000
    2.8 Au    1  4f2-         0.561192     1.000000

 NUCLEAR CHARGE:                    8
 NUMBER OF PRIMITIVE AOS:         105
 NUMBER OF SYMMETRY AOS:           90
 NUMBER OF CONTRACTIONS:           54   (  13Ag  +   8B3u +   8B2u +   5B1g +   8B1u +   5B2g +   5B3g +   2Au  )
 NUMBER OF CORE ORBITALS:           0   (   0Ag  +   0B3u +   0B2u +   0B1g +   0B1u +   0B2g +   0B3g +   0Au  )
 NUMBER OF VALENCE ORBITALS:        4   (   1Ag  +   1B3u +   1B2u +   0B1g +   1B1u +   0B2g +   0B3g +   0Au  )


 NUCLEAR REPULSION ENERGY    0.00000000

 EXTRA SYMMETRY OF AOS IN SYMMETRY 1:   1 1 1 1 2 3 2 3 2 3   4 5 6
 EXTRA SYMMETRY OF AOS IN SYMMETRY 2:   1 1 1 1 2 3 2 3
 EXTRA SYMMETRY OF AOS IN SYMMETRY 3:   1 1 1 1 2 3 2 3
 EXTRA SYMMETRY OF AOS IN SYMMETRY 4:   1 1 1 2 3
 EXTRA SYMMETRY OF AOS IN SYMMETRY 5:   1 1 1 1 2 3 2 3
 EXTRA SYMMETRY OF AOS IN SYMMETRY 6:   1 1 1 2 3
 EXTRA SYMMETRY OF AOS IN SYMMETRY 7:   1 1 1 2 3

 Eigenvalues of metric

         1 0.374E-02 0.588E-01 0.176E+00 0.176E+00 0.503E+00 0.783E+00 0.783E+00 0.100E+01
         2 0.265E-01 0.104E+00 0.378E+00 0.378E+00 0.821E+00 0.162E+01 0.162E+01 0.305E+01
         3 0.265E-01 0.104E+00 0.378E+00 0.378E+00 0.821E+00 0.162E+01 0.162E+01 0.305E+01
         4 0.176E+00 0.783E+00 0.100E+01 0.100E+01 0.204E+01
         5 0.265E-01 0.104E+00 0.378E+00 0.378E+00 0.821E+00 0.162E+01 0.162E+01 0.305E+01
         6 0.176E+00 0.783E+00 0.100E+01 0.100E+01 0.204E+01
         7 0.176E+00 0.783E+00 0.100E+01 0.100E+01 0.204E+01
         8 0.378E+00 0.162E+01


 Contracted 2-electron integrals neglected if value below      1.0D-12
 AO integral compression algorithm  1   Integral accuracy      1.0D-12

     1.835 MB (compressed) written to integral file ( 79.5%)


 NUMBER OF SORTED TWO-ELECTRON INTEGRALS:     151531.     BUFFER LENGTH:  32768
 NUMBER OF SEGMENTS:   1  SEGMENT LENGTH:     151531      RECORD LENGTH: 524288

 Memory used in sort:       0.71 MW

 SORT1 READ      261850. AND WROTE      115456. INTEGRALS IN      1 RECORDS. CPU TIME:     0.00 SEC, REAL TIME:     0.01 SEC
 SORT2 READ      115456. AND WROTE      151531. INTEGRALS IN      7 RECORDS. CPU TIME:     0.03 SEC, REAL TIME:     0.04 SEC

 FILE SIZES:   FILE 1:    21.0 MBYTE,  FILE 4:     4.2 MBYTE,   TOTAL:     25.2 MBYTE

 OPERATOR DM      FOR CENTER  0  COORDINATES:    0.000000    0.000000    0.000000
 OPERATOR EKIN    FOR CENTER  0  COORDINATES:    0.000000    0.000000    0.000000
 OPERATOR POT     FOR CENTER  0  COORDINATES:    0.000000    0.000000    0.000000


 **********************************************************************************************************************************
 DATASETS  * FILE   NREC   LENGTH (MB)   RECORD NAMES
              1      20       20.06       500      610      700      900      950      970     1000      129      960     1100   
                                          VAR    BASINP    GEOM    SYMINP    ZMAT    AOBASIS   BASIS     P2S    ABASIS      S 
                                         1400     1410     1420     1200     1210     1080     1600     1650     1300     1700   
                                         EKIN       V       ECP      H0       H01     AOSYM     SMH    MOLCAS    ERIS     OPER   

 PROGRAMS   *        TOTAL       INT
 CPU TIMES  *         0.43      0.33
 REAL TIME  *         1.56 SEC
 DISK USED  *        25.49 MB      
 **********************************************************************************************************************************


 PROGRAM * RHF-SCF (CLOSED SHELL)       Authors: W. Meyer, H.-J. Werner


 NUMBER OF ELECTRONS:       4+    4-    SPACE SYMMETRY=1    SPIN SYMMETRY: Singlet 
 CONVERGENCE THRESHOLDS:    1.00E-05 (Density)    1.00E-07 (Energy)
 MAX. NUMBER OF ITERATIONS:       60
 INTERPOLATION TYPE:            DIIS
 INTERPOLATION STEPS:              2 (START)      1 (STEP)
 LEVEL SHIFTS:                  0.00 (CLOSED)  0.00 (OPEN) 

 Number of closed-shell orbitals:    4 (   1   1   1   0   1   0   0   0 )



   Atom=AR basis=ECP10MWB_GUESS    lmin=0  lmax=1

 Orbital guess generated from atomic densities. Full valence occupancy:    1   1   1   0   1   0   0   0


 Molecular orbital dump at record        2100.2

 ITERATION    DDIFF          GRAD             ENERGY        2-EL.EN.            DIPOLE MOMENTS         DIIS   ORB.
    1      0.000D+00      0.000D+00       -20.77953386     29.267889    0.00000    0.00000    0.00000    0    start
    2      0.000D+00      0.235D-02       -20.77965768     29.349554    0.00000    0.00000    0.00000    1    diag
    3      0.553D-02      0.491D-03       -20.77966273     29.335828    0.00000    0.00000    0.00000    2    diag
    4      0.796D-03      0.296D-04       -20.77966277     29.337008    0.00000    0.00000    0.00000    3    diag
    5      0.940D-04      0.298D-05       -20.77966277     29.336977    0.00000    0.00000    0.00000    4    diag
    6      0.542D-05      0.104D-06       -20.77966277     29.336977    0.00000    0.00000    0.00000    0    orth

 Final occupancy:   1   1   1   0   1   0   0   0

 !RHF STATE 1.1 Energy                -20.779662767143
 Nuclear energy                         0.00000000
 One-electron energy                  -35.44815141
 Two-electron energy                   14.66848865
 Virial quotient                       -2.66546540
 !RHF STATE 1.1 Dipole moment           0.00000000     0.00000000     0.00000000
 Dipole moment /Debye                   0.00000000     0.00000000     0.00000000
 

 !RHF expec          <1.1|EKIN|1.1>     7.795885401484
 
 !RHF expec           <1.1|POT|1.1>    -5.884680137754

 ELECTRON ORBITALS
 =================


   Orb  Occ    Energy  Couls-En    Coefficients

                                   1 1s      1 1s      1 1s      1 1s      1 3d0     1 3d2+    1 3d0     1 3d2+    1 3d0     1 3d2+ 
                                   1 5g0     1 5g4+    1 5g2+ 

   1.1   2    -1.2848   -6.3077  1.000001  0.000005 -0.000007  0.000003 -0.000000  0.000000  0.000000 -0.000000 -0.000000  0.000000
                                 0.000000  0.000000 -0.000000

                                   1 2px     1 2px     1 2px     1 2px     1 4f1+    1 4f3+    1 4f1+    1 4f3+ 

   1.2   2    -0.5902   -4.8240  1.000001 -0.000002  0.000001 -0.000001 -0.000000  0.000000 -0.000000 -0.000000

                                   1 2py     1 2py     1 2py     1 2py     1 4f1-    1 4f3-    1 4f1-    1 4f3- 

   1.3   2    -0.5902   -4.8240  1.000001 -0.000002  0.000001 -0.000001 -0.000000 -0.000000 -0.000000  0.000000

                                   1 2pz     1 2pz     1 2pz     1 2pz     1 4f0     1 4f2+    1 4f0     1 4f2+ 

   1.5   2    -0.5902   -4.8240  1.000001 -0.000002  0.000001 -0.000001 -0.000000  0.000000  0.000000  0.000000

 HOMO      1.2    -0.590246 =     -16.0614eV
 LUMO      2.1     0.597922 =      16.2703eV
 LUMO-HOMO         1.188168 =      32.3317eV


 **********************************************************************************************************************************
 DATASETS  * FILE   NREC   LENGTH (MB)   RECORD NAMES
              1      20       20.06       500      610      700      900      950      970     1000      129      960     1100   
                                          VAR    BASINP    GEOM    SYMINP    ZMAT    AOBASIS   BASIS     P2S    ABASIS      S 
                                         1400     1410     1420     1200     1210     1080     1600     1650     1300     1700   
                                         EKIN       V       ECP      H0       H01     AOSYM     SMH    MOLCAS    ERIS     OPER   

              2       4        2.76       700     1000      520     2100   
                                         GEOM     BASIS   MCVARS     RHF  

 PROGRAMS   *        TOTAL        HF       INT
 CPU TIMES  *         0.48      0.05      0.33
 REAL TIME  *         1.68 SEC
 DISK USED  *        25.49 MB      
 **********************************************************************************************************************************
 SETTING SCF(I)         =       -20.77966277  AU                              
 SETTING _CC_NORM_MAX   =         2.00000000                                  


 PROGRAM * CI (Multireference internally contracted CI)     Authors: H.-J. Werner, P.J. Knowles, 1987


 Convergence thresholds:  THRVAR = 1.00D-08  THRDEN = 1.00D-06

 Number of optimized states:  1  Roots:   1
 Number of reference states:  1  Roots:   1

 Reference symmetry:                   1   Singlet 
 Number of electrons:                  8
 Maximum number of shells:             3
 Maximum number of spin couplings:     2

 Reference space:        1 conf        1 CSFs
 N elec internal:        1 conf        1 CSFs
 N-1 el internal:        4 conf        4 CSFs
 N-2 el internal:       10 conf       16 CSFs

 Number of electrons in valence space:                      8
 Maximum number of open shell orbitals in reference space:  0
 Maximum number of open shell orbitals in internal spaces:  4


 Number of closed-shell orbitals:   4 (   1   1   1   0   1   0   0   0 )
 Number of external orbitals:      50 (  12   7   7   5   7   5   5   2 )

 Molecular orbitals read from record     2100.2  Type=RHF/CANONICAL (state 1.1)

 Integral transformation finished. Total CPU:   0.00 sec, npass=  1  Memory used:   0.07 MW

 Number of p-space configurations:   1

 Reference wavefunction optimized for reference space (refopt=1)

 State     Reference Energy 
   1         -20.77966277

 Number of blocks in overlap matrix:    16   Smallest eigenvalue:  0.10D+01
 Number of N-2 electron functions:      16
 Number of N-1 electron functions:       4

 Number of internal configurations:                    1
 Number of singly external configurations:            33
 Number of doubly external configurations:          2712
 Total number of contracted configurations:         2746
 Total number of uncontracted configurations:       2746

 Diagonal Coupling coefficients finished.               Storage:     615 words, CPU-Time:      0.00 seconds.
 Energy denominators for pairs finished in 1 passes.    Storage:    3517 words, CPU-time:      0.00 seconds.

  ITER. STATE  ROOT     SQ.NORM     CORR.ENERGY   TOTAL ENERGY   ENERGY CHANGE       DEN1      VAR(S)    VAR(P)      TIME
    1     1     1     1.00000000     0.00000000   -20.77966277    -0.00000000    -0.28833178  0.92D-14  0.10D+00     0.01
    2     1     1     1.07403179    -0.24745708   -21.02711985    -0.24745708    -0.00450749  0.19D-03  0.11D-02     0.02
    3     1     1     1.07310461    -0.25194186   -21.03160463    -0.00448478    -0.00005815  0.48D-06  0.15D-04     0.03
    4     1     1     1.07323326    -0.25199998   -21.03166275    -0.00005812    -0.00000130  0.80D-07  0.29D-06     0.03
    5     1     1     1.07330887    -0.25200139   -21.03166415    -0.00000141    -0.00000004  0.16D-08  0.95D-08     0.03
    6     1     1     1.07330962    -0.25200143   -21.03166420    -0.00000005    -0.00000000  0.17D-09  0.12D-09     0.04


 =====================================
 Analysis of CPU times by interactions
 =====================================

       I      S      P

 I   0.0%
 S   0.0%   0.0%
 P   0.0%   0.0%   0.0%

 Initialization:  25.0%
 Other:           75.0%

 Total CPU:        0.0 seconds
 =====================================



 Reference coefficients greater than 0.0500000
 =============================================
 2222           0.9652448



 RESULTS FOR STATE 1.1
 =====================

 Coefficient of reference function:   C(0) = 0.96524484 (fixed)   0.96524484 (relaxed)

 Energy contributions of configuration classes

 CLASS          SQ.NORM        ECORR1        ECORR2
 +++++++++++++++++++++++++++++++++++++++++++++++++++
 Internals    0.00000000    0.00000000    0.00000000
 Singles      0.00020894    0.00000000   -0.00004906
 Pairs        0.07310068   -0.25200143   -0.25195237
 Total        1.07330962   -0.25200143   -0.25200143
 +++++++++++++++++++++++++++++++++++++++++++++++++++


 Reference energy                     -20.77966277
 Nuclear energy                         0.00000000
 Kinetic energy                         8.08362249
 One electron energy                  -35.33019139
 Two electron energy                   14.29852719
 Virial quotient                       -2.60176229
 Correlation energy                    -0.25200143
 !CI(SD) STATE 1.1 Energy             -21.031664199029

 Properties without orbital relaxation:

 !CI(SD) STATE 1.1 Dipole moment        0.00000000     0.00000000     0.00000000
 Dipole moment /Debye                   0.00000000     0.00000000     0.00000000

 Cluster corrected energies           -21.05013833 (Davidson, fixed reference)
 Cluster corrected energies           -21.05013833 (Davidson, relaxed reference)

 Cluster corrected energies           -21.04603141 (Pople, fixed reference)
 Cluster corrected energies           -21.04603141 (Pople, relaxed reference)

 

 !CI(SD) expec       <1.1|EKIN|1.1>     8.083622492859
 
 !CI(SD) expec        <1.1|POT|1.1>    -5.905860309559


 **********************************************************************************************************************************
 DATASETS  * FILE   NREC   LENGTH (MB)   RECORD NAMES
              1      21       20.12       500      610      700      900      950      970     1000      129      960     1100   
                                          VAR    BASINP    GEOM    SYMINP    ZMAT    AOBASIS   BASIS     P2S    ABASIS      S 
                                         1400     1410     1420     1200     1210     1080     1600     1650     1300     1700   
                                         EKIN       V       ECP      H0       H01     AOSYM     SMH    MOLCAS    ERIS     OPER   
                                         1380   
                                         JKOP   

              2       4        2.76       700     1000      520     2100   
                                         GEOM     BASIS   MCVARS     RHF  

 PROGRAMS   *        TOTAL        CI        HF       INT
 CPU TIMES  *         0.55      0.07      0.05      0.33
 REAL TIME  *         2.22 SEC
 DISK USED  *        25.49 MB      
 **********************************************************************************************************************************
 SETTING POSTHF(I)      =       -21.03166420  AU                              
                                                                                                                                                                                                                                                                

        SCF            POSTHF       EKIN          POT
    -20.77966277   -21.03166420   8.08362249   -5.90586031
                                                  

 CI/USERDEF energy=    -21.031664199029

        CI              HF-SCF  
    -21.03166420    -20.77966277
 **********************************************************************************************************************************
 Variable memory released
