
 Primary working directories    : /global/cscratch1/sd/aannabe
 Secondary working directories  : /global/cscratch1/sd/aannabe
 Wavefunction directory         : /global/homes/a/aannabe/wfu/
 Main file repository           : /global/cscratch1/sd/aannabe/

 SHA1      : 2873118e99aab1bc19f5b6fc1784693c06d15c95
 NAME      : 2015.1.8
 ARCHNAME  : linux/x86_64
 FC        : /opt/cray/pe/craype/2.5.5/bin/ftn
 BLASLIB   : -Wl,-_start-group /opt/intel/compilers_and_libraries_2016.3.210/linux/mkl/lib/intel64/libmkl_intel_ilp64.a /opt/intel/compilers_and_libraries_2016.3.210/linux/mkl/lib/intel64/libmkl_intel_thread.a /opt/intel/compilers_and_libraries_2016.3.210/linux/mkl/lib/intel64/libmkl_core.a -Wl,-_end-group
 id        : lbl

 Nodes     nprocs
 nid00445     1

 Using customized tuning parameters: mindgm=8; mindgv=16; mindgc=4; mindgr=1; noblas=0; minvec=7
 default implementation of scratch files=df  

 ***,O
 memory,8,g
 gthresh,twoint=1.e-12
 
 gprint,basis,orbitals
 gexpec,ekin,pot
 
 angstrom
 geometry={
 1                                                                               ! Number of atoms
 O 0.0 0.0 0.0
 }
 
 basis={
 Including file /global/homes/a/aannabe/docs/totals_bfd/pps/O.pp
 Including file /global/homes/a/aannabe/docs/totals_bfd/basis/aug-cc-pVnZ/O_tz.basis
 }
 
 {hf
 wf,6,7,2
 occ,1,1,1,0,1,0,0,0
                                                                                 !open,1.3
 closed,1,1,0,0,0,0,0,0
                                                                                 !sym,
 }
 scf(i)=energy
 
 _CC_NORM_MAX=2.0
 {fci
 maxit,100
 core
 }
 posthf(i)=energy
 
 table,scf,posthf,ekin,pot
 save,3.csv,new
 
 

 Variables initialized (889), CPU time= 0.00 sec
 Commands  initialized (702), CPU time= 0.01 sec, 572 directives.
 Default parameters read. Elapsed time= 0.14 sec

 Checking input...
 Passed
1


                                         ***  PROGRAM SYSTEM MOLPRO  ***
                                       Copyright, TTI GmbH Stuttgart, 2015
                                    Version 2015.1 linked Sep  7 2016 23:09:38


 **********************************************************************************************************************************
 LABEL *   O                                                                             
  64 bit serial version                                                                  DATE: 20-Jun-18          TIME: 14:13:01  
 **********************************************************************************************************************************

 SHA1:             2873118e99aab1bc19f5b6fc1784693c06d15c95
 **********************************************************************************************************************************

 THRESHOLDS:

 ZERO    =  1.00D-12  ONEINT  =  1.00D-12  TWOINT  =  1.00D-12  PREFAC  =  1.00D-14  LOCALI  =  1.00D-09  EORDER  =  1.00D-04
 ENERGY  =  0.00D+00  ETEST   =  0.00D+00  EDENS   =  0.00D+00  THRDEDEF=  1.00D-06  GRADIENT=  1.00D-02  STEP    =  1.00D-03
 ORBITAL =  1.00D-05  CIVEC   =  1.00D-05  COEFF   =  1.00D-04  PRINTCI =  5.00D-02  PUNCHCI =  9.90D+01  OPTGRAD =  3.00D-04
 OPTENERG=  1.00D-06  OPTSTEP =  3.00D-04  THRGRAD =  1.00D-10  COMPRESS=  1.00D-11  VARMIN  =  1.00D-07  VARMAX  =  1.00D-03
 THRDOUB =  0.00D+00  THRDIV  =  1.00D-05  THRRED  =  1.00D-07  THRPSP  =  1.00D+00  THRDC   =  1.00D-10  THRCS   =  1.00D-10
 THRNRM  =  1.00D-08  THREQ   =  0.00D+00  THRDE   =  1.00D+00  THRREF  =  1.00D-05  SPARFAC =  1.00D+00  THRDLP  =  1.00D-07
 THRDIA  =  1.00D-10  THRDLS  =  1.00D-07  THRGPS  =  0.00D+00  THRKEX  =  0.00D+00  THRDIS  =  2.00D-01  THRVAR  =  1.00D-10
 THRLOC  =  1.00D-06  THRGAP  =  1.00D-06  THRLOCT = -1.00D+00  THRGAPT = -1.00D+00  THRORB  =  1.00D-06  THRMLTP =  0.00D+00
 THRCPQCI=  1.00D-10  KEXTA   =  0.00D+00  THRCOARS=  0.00D+00  SYMTOL  =  1.00D-06  GRADTOL =  1.00D-06  THROVL  =  1.00D-08
 THRORTH =  1.00D-08  GRID    =  1.00D-06  GRIDMAX =  1.00D-03  DTMAX   =  0.00D+00  THROCCDE=  1.00D-01  THROCCDE=  1.00D-01



 ZUNIT=ANG
 

Geometry recognized as XYZ


 Variable memory set to 8000000000 words,  buffer space   230000 words

 SETTING BASIS          =    USERDEF


 Recomputing integrals since basis changed


 Using spherical harmonics



 PROGRAM * SEWARD (Integral evaluation for generally contracted gaussian basis sets)     Author: Roland Lindh, 1990

 Geometry written to block  1 of record 700

 Orientation using atomic masses  
 Molecule type: Atom
 Symmetry elements: X,Y,Z
 Rotational constants:       0.0000000      0.0000000      0.0000000 GHz  (calculated with average atomic masses)

 Point group  D2h 



 ATOMIC COORDINATES

 NR  ATOM    CHARGE       X              Y              Z

   1  O       6.00    0.000000000    0.000000000    0.000000000


          O   CORE POTENTIAL

          p POTENTIAL

 POWERS             1              3              2
 EXPONENTIALS   9.297939       8.864922       8.629257    
 COEFFICIENTS   6.000000       55.78763      -38.81978    

          s - p POTENTIAL

 POWERS             2
 EXPONENTIALS   8.719245    
 COEFFICIENTS   38.41914    


 BASIS DATA

   Nr Sym  Nuc  Type         Exponents   Contraction coefficients

    1.1 Ag    1  1s           0.125346     0.055741
                              0.268022     0.304848
                              0.573098     0.453752
                              1.225429     0.295926
                              2.620277     0.019567
                              5.602818    -0.128627
                             11.980245     0.012024
                             25.616801     0.000407
                             54.775216    -0.000076
    2.1 Ag    1  1s           1.686633     1.000000
    3.1 Ag    1  1s           0.237997     1.000000
    4.1 Ag    1  1s           0.095199     1.000000
    5.1 Ag    1  3d0          2.404278     1.000000
    6.1 Ag    1  3d2+         2.404278     1.000000
    7.1 Ag    1  3d0          0.669340     1.000000
    8.1 Ag    1  3d2+         0.669340     1.000000
    9.1 Ag    1  3d0          0.267736     1.000000
   10.1 Ag    1  3d2+         0.267736     1.000000
    1.2 B3u   1  2px          0.083598     0.044958
                              0.167017     0.150175
                              0.333673     0.255999
                              0.666627     0.281879
                              1.331816     0.242835
                              2.660761     0.161134
                              5.315785     0.082308
                             10.620108     0.039899
                             21.217318     0.004679
    2.2 B3u   1  2px          0.600621     1.000000
    3.2 B3u   1  2px          0.184696     1.000000
    4.2 B3u   1  2px          0.073878     1.000000
    5.2 B3u   1  4f1+         1.423104     1.000000
    6.2 B3u   1  4f3+         1.423104     1.000000
    7.2 B3u   1  4f1+         0.569242     1.000000
    8.2 B3u   1  4f3+         0.569242     1.000000
    1.3 B2u   1  2py          0.083598     0.044958
                              0.167017     0.150175
                              0.333673     0.255999
                              0.666627     0.281879
                              1.331816     0.242835
                              2.660761     0.161134
                              5.315785     0.082308
                             10.620108     0.039899
                             21.217318     0.004679
    2.3 B2u   1  2py          0.600621     1.000000
    3.3 B2u   1  2py          0.184696     1.000000
    4.3 B2u   1  2py          0.073878     1.000000
    5.3 B2u   1  4f1-         1.423104     1.000000
    6.3 B2u   1  4f3-         1.423104     1.000000
    7.3 B2u   1  4f1-         0.569242     1.000000
    8.3 B2u   1  4f3-         0.569242     1.000000
    1.4 B1g   1  3d2-         2.404278     1.000000
    2.4 B1g   1  3d2-         0.669340     1.000000
    3.4 B1g   1  3d2-         0.267736     1.000000
    1.5 B1u   1  2pz          0.083598     0.044958
                              0.167017     0.150175
                              0.333673     0.255999
                              0.666627     0.281879
                              1.331816     0.242835
                              2.660761     0.161134
                              5.315785     0.082308
                             10.620108     0.039899
                             21.217318     0.004679
    2.5 B1u   1  2pz          0.600621     1.000000
    3.5 B1u   1  2pz          0.184696     1.000000
    4.5 B1u   1  2pz          0.073878     1.000000
    5.5 B1u   1  4f0          1.423104     1.000000
    6.5 B1u   1  4f2+         1.423104     1.000000
    7.5 B1u   1  4f0          0.569242     1.000000
    8.5 B1u   1  4f2+         0.569242     1.000000
    1.6 B2g   1  3d1+         2.404278     1.000000
    2.6 B2g   1  3d1+         0.669340     1.000000
    3.6 B2g   1  3d1+         0.267736     1.000000
    1.7 B3g   1  3d1-         2.404278     1.000000
    2.7 B3g   1  3d1-         0.669340     1.000000
    3.7 B3g   1  3d1-         0.267736     1.000000
    1.8 Au    1  4f2-         1.423104     1.000000
    2.8 Au    1  4f2-         0.569242     1.000000

 NUCLEAR CHARGE:                    6
 NUMBER OF PRIMITIVE AOS:          86
 NUMBER OF SYMMETRY AOS:           77
 NUMBER OF CONTRACTIONS:           45   (  10Ag  +   8B3u +   8B2u +   3B1g +   8B1u +   3B2g +   3B3g +   2Au  )
 NUMBER OF CORE ORBITALS:           0   (   0Ag  +   0B3u +   0B2u +   0B1g +   0B1u +   0B2g +   0B3g +   0Au  )
 NUMBER OF VALENCE ORBITALS:        4   (   1Ag  +   1B3u +   1B2u +   0B1g +   1B1u +   0B2g +   0B3g +   0Au  )


 NUCLEAR REPULSION ENERGY    0.00000000

 EXTRA SYMMETRY OF AOS IN SYMMETRY 1:   1 1 1 1 2 3 2 3 2 3
 EXTRA SYMMETRY OF AOS IN SYMMETRY 2:   1 1 1 1 2 3 2 3
 EXTRA SYMMETRY OF AOS IN SYMMETRY 3:   1 1 1 1 2 3 2 3
 EXTRA SYMMETRY OF AOS IN SYMMETRY 5:   1 1 1 1 2 3 2 3

 Eigenvalues of metric

         1 0.153E-01 0.147E+00 0.207E+00 0.207E+00 0.773E+00 0.841E+00 0.841E+00 0.195E+01
         2 0.549E-01 0.137E+00 0.367E+00 0.367E+00 0.876E+00 0.163E+01 0.163E+01 0.293E+01
         3 0.549E-01 0.137E+00 0.367E+00 0.367E+00 0.876E+00 0.163E+01 0.163E+01 0.293E+01
         4 0.207E+00 0.841E+00 0.195E+01
         5 0.549E-01 0.137E+00 0.367E+00 0.367E+00 0.876E+00 0.163E+01 0.163E+01 0.293E+01
         6 0.207E+00 0.841E+00 0.195E+01
         7 0.207E+00 0.841E+00 0.195E+01
         8 0.367E+00 0.163E+01


 Contracted 2-electron integrals neglected if value below      1.0D-12
 AO integral compression algorithm  1   Integral accuracy      1.0D-12

     1.049 MB (compressed) written to integral file ( 98.5%)


 NUMBER OF SORTED TWO-ELECTRON INTEGRALS:      75808.     BUFFER LENGTH:  32768
 NUMBER OF SEGMENTS:   1  SEGMENT LENGTH:      75808      RECORD LENGTH: 524288

 Memory used in sort:       0.63 MW

 SORT1 READ      155797. AND WROTE       61548. INTEGRALS IN      1 RECORDS. CPU TIME:     0.01 SEC, REAL TIME:     0.13 SEC
 SORT2 READ       61548. AND WROTE       75808. INTEGRALS IN      4 RECORDS. CPU TIME:     0.02 SEC, REAL TIME:     0.03 SEC

 FILE SIZES:   FILE 1:    20.2 MBYTE,  FILE 4:     4.2 MBYTE,   TOTAL:     24.4 MBYTE

 OPERATOR DM      FOR CENTER  0  COORDINATES:    0.000000    0.000000    0.000000
 OPERATOR EKIN    FOR CENTER  0  COORDINATES:    0.000000    0.000000    0.000000
 OPERATOR POT     FOR CENTER  0  COORDINATES:    0.000000    0.000000    0.000000


 **********************************************************************************************************************************
 DATASETS  * FILE   NREC   LENGTH (MB)   RECORD NAMES
              1      20       19.61       500      610      700      900      950      970     1000      129      960     1100   
                                          VAR    BASINP    GEOM    SYMINP    ZMAT    AOBASIS   BASIS     P2S    ABASIS      S 
                                         1400     1410     1420     1200     1210     1080     1600     1650     1300     1700   
                                         EKIN       V       ECP      H0       H01     AOSYM     SMH    MOLCAS    ERIS     OPER   

 PROGRAMS   *        TOTAL       INT
 CPU TIMES  *         2.35      2.25
 REAL TIME  *        15.00 SEC
 DISK USED  *        24.67 MB      
 **********************************************************************************************************************************


 PROGRAM * RHF-SCF (OPEN SHELL)       Authors: W. Meyer, H.-J. Werner


 NUMBER OF ELECTRONS:       4+    2-    SPACE SYMMETRY=7    SPIN SYMMETRY: Triplet 
 CONVERGENCE THRESHOLDS:    1.00E-05 (Density)    1.00E-07 (Energy)
 MAX. NUMBER OF ITERATIONS:       60
 INTERPOLATION TYPE:            DIIS
 INTERPOLATION STEPS:              2 (START)      1 (STEP)
 LEVEL SHIFTS:                 -0.60 (CLOSED) -0.30 (OPEN) 

 Number of closed-shell orbitals:    2 (   1   1   0   0   0   0   0   0 )
 Number of open-shell orbitals:      2 (   0   0   1   0   1   0   0   0 )



   Atom=O  basis=ECP2MWB_GUESS     lmin=0  lmax=1

 Orbital guess generated from atomic densities. Full valence occupancy:    1   1   1   0   1   0   0   0


 Molecular orbital dump at record        2100.2

 ITERATION    DDIFF          GRAD             ENERGY        2-EL.EN.            DIPOLE MOMENTS         DIIS   ORB.
    1      0.000D+00      0.000D+00       -15.68665898     20.546174    0.00000    0.00000    0.00000    0    start
    2      0.000D+00      0.226D-01       -15.70684030     21.316216    0.00000    0.00000    0.00000    1    diag,B
    3      0.238D-01      0.547D-02       -15.70795420     21.338307    0.00000    0.00000    0.00000    2    diag,B
    4      0.334D-02      0.221D-02       -15.70832171     21.366948    0.00000    0.00000    0.00000    3    diag,B
    5      0.283D-02      0.535D-03       -15.70834676     21.369800    0.00000    0.00000    0.00000    4    diag,B
    6      0.114D-02      0.928D-04       -15.70834736     21.368544    0.00000    0.00000    0.00000    5    diag,B
    7      0.164D-03      0.232D-04       -15.70834741     21.368528    0.00000    0.00000    0.00000    6    fixocc
    8      0.468D-04      0.672D-05       -15.70834742     21.368346    0.00000    0.00000    0.00000    7    diag,B
    9      0.138D-04      0.167D-05       -15.70834742     21.368380    0.00000    0.00000    0.00000    8    diag,B
   10      0.278D-05      0.313D-06       -15.70834742     21.368374    0.00000    0.00000    0.00000    0    orth

 Final alpha occupancy:   1   1   1   0   1   0   0   0
 Final beta  occupancy:   1   1   0   0   0   0   0   0

 !RHF STATE 1.7 Energy                -15.708347415259
 Nuclear energy                         0.00000000
 One-electron energy                  -26.39253447
 Two-electron energy                   10.68418705
 Virial quotient                       -1.35251676
 !RHF STATE 1.7 Dipole moment           0.00000000     0.00000000     0.00000000
 Dipole moment /Debye                   0.00000000     0.00000000     0.00000000
 

 !RHF expec          <1.7|EKIN|1.7>    11.614161014137
 
 !RHF expec           <1.7|POT|1.7>    -6.641414690786

 ELECTRON ORBITALS
 =================


   Orb  Occ    Energy  Couls-En    Coefficients

                                   1 1s      1 1s      1 1s      1 1s      1 3d0     1 3d2+    1 3d0     1 3d2+    1 3d0     1 3d2+ 


   1.1   2    -1.2428   -6.0708  1.000042 -0.000000 -0.000030 -0.000038 -0.000483  0.000837 -0.000340  0.000589 -0.002003  0.003469

                                   1 2px     1 2px     1 2px     1 2px     1 4f1+    1 4f3+    1 4f1+    1 4f3+ 

   1.2   2    -0.5664   -4.7061  1.000063  0.000242 -0.000293 -0.000225  0.001807 -0.002333  0.001869 -0.002413

                                   1 2py     1 2py     1 2py     1 2py     1 4f1-    1 4f3-    1 4f1-    1 4f3- 

   1.3   +    -0.7029   -4.9315  1.046383  0.001369 -0.057569 -0.019724  0.001372 -0.005314  0.001126 -0.004360

                                   1 2pz     1 2pz     1 2pz     1 2pz     1 4f0     1 4f2+    1 4f0     1 4f2+ 

   1.5   +    -0.7029   -4.9315  1.046383  0.001369 -0.057569 -0.019724  0.003361 -0.004339  0.002758 -0.003560

 HOMO      1.2    -0.566396 =     -15.4124eV
 LUMO      2.3     0.179009 =       4.8711eV
 LUMO-HOMO         0.745406 =      20.2835eV


 **********************************************************************************************************************************
 DATASETS  * FILE   NREC   LENGTH (MB)   RECORD NAMES
              1      20       19.61       500      610      700      900      950      970     1000      129      960     1100   
                                          VAR    BASINP    GEOM    SYMINP    ZMAT    AOBASIS   BASIS     P2S    ABASIS      S 
                                         1400     1410     1420     1200     1210     1080     1600     1650     1300     1700   
                                         EKIN       V       ECP      H0       H01     AOSYM     SMH    MOLCAS    ERIS     OPER   

              2       4        2.76       700     1000      520     2100   
                                         GEOM     BASIS   MCVARS     RHF  

 PROGRAMS   *        TOTAL        HF       INT
 CPU TIMES  *         2.40      0.05      2.25
 REAL TIME  *        15.41 SEC
 DISK USED  *        24.67 MB      
 **********************************************************************************************************************************
 SETTING SCF(I)         =       -15.70834742  AU                              
 SETTING _CC_NORM_MAX   =         2.00000000                                  


 PROGRAM * FCI (Full CI)     Author: P.J. Knowles, 1984

 ***  Initialisation ***
 
 Molecular orbitals read from record     2100.2  Type=RHF/CANONICAL (state 1.7)
 
 Frozen orbitals:              0 (  0  0  0  0  0  0  0  0)
 Active orbitals:             45 ( 10  8  8  3  8  3  3  2)
 Active electrons:             6
 Spin quantum number:          1.0
 Orbital pairs:                   184     134     134     119     134     119     119      92
 Strings:                       18532   18568   18568   18623   18568   18623   18623   18890
                                  139     134     134     119     134     119     119      92
 Determinants:                       18426575        18435614        18435614        18441919
                                     18435614        18441919        18441919        18445876

 Load integrals                2.4 sec
 Transform integrals           2.5 sec
 Storage for integrals:         142766
 Remaining memory:           *********

 Core energy:               0.00000000
 Run Hamiltonian processor DAVIDSON
 Symmetry:                   7
 Trial vector:                  0.00
 Result vector:                 0.00
 Maximum iterations:          100
 Convergence threshold:         0.0000100
 RHS vector:                    0.00
 Hamiltonian shift:             0.0000000
 Output threshold:              0.0500000
 Options:                        0
 Number of roots:             1

 Hamiltonian diagonaliser entered at time      2.59

 Initial configuration generated:
 2686954      1.0000000    -15.7083474

 It  Tr    CPU  Convergence   Energy       Pop     dE(next)

  1   1  112.4  1.00000000   -15.70834742
                                           0.00 -0.19576909 -0.19576864
  2   1  183.9  0.19672508   -15.87722894
                                           0.01 -0.00987134 -0.00983811
  3   1  291.4  0.03910146   -15.88620311
                                           0.03 -0.00065313 -0.00064165
  4   1  438.0  0.01316258   -15.88683803
                                           0.05 -0.00009553 -0.00009185
  5   1  623.0  0.00663298   -15.88693256
                                           0.08 -0.00001619 -0.00001522
  6   1  861.4  0.00228606   -15.88694914
                                           0.14 -0.00000264 -0.00000241
  7   1 1189.5  0.00093200   -15.88695172
                                           0.18 -0.00000048 -0.00000044
  8   1 1586.7  0.00031632   -15.88695217
                                           0.22 -0.00000009 -0.00000008
  9   1 2034.1  0.00013888   -15.88695225
                                           0.24 -0.00000002 -0.00000001
 10   1 2446.2  0.00005108   -15.88695226
                                           0.24 -0.00000000 -0.00000000
 11   1 2925.4  0.00002015   -15.88695226
                                           0.24 -0.00000000 -0.00000000
 12   1 3375.2  0.00000896   -15.88695226


RESULTS FOR STATE 1.7
=====================

 Correlation energy                    -0.178604848833
 !FCI STATE 1.7 Energy                -15.886952264092
 CI Vector (threshold= 0.500E-01)
       0.976527143835  1 11 19 30  1 11
 /EOF
 !FCI STATE 1.7 Dipole moment           0.00000000     0.00000000     0.00000000
 Dipole moment /Debye                   0.00000000     0.00000000     0.00000000
 

 !FCI expec          <1.7|EKIN|1.7>    11.766778422762
 
 !FCI expec           <1.7|POT|1.7>    -6.635547312680


 **********************************************************************************************************************************
 DATASETS  * FILE   NREC   LENGTH (MB)   RECORD NAMES
              1      20       19.61       500      610      700      900      950      970     1000      129      960     1100   
                                          VAR    BASINP    GEOM    SYMINP    ZMAT    AOBASIS   BASIS     P2S    ABASIS      S 
                                         1400     1410     1420     1200     1210     1080     1600     1650     1300     1700   
                                         EKIN       V       ECP      H0       H01     AOSYM     SMH    MOLCAS    ERIS     OPER   

              2       4        2.76       700     1000      520     2100   
                                         GEOM     BASIS   MCVARS     RHF  

 PROGRAMS   *        TOTAL       FCI        HF       INT
 CPU TIMES  *      3377.46   3375.04      0.05      2.25
 REAL TIME  *      3471.95 SEC
 DISK USED  *         3.71 GB      
 **********************************************************************************************************************************
 SETTING POSTHF(I)      =       -15.88695226  AU                              
                                                                                                                                                                                                                                                                

        SCF            POSTHF        EKIN          POT
    -15.70834742   -15.88695226   11.76677842   -6.63554731
                                                  

 FCI/USERDEF energy=    -15.886952264092

        FCI             HF-SCF  
    -15.88695226    -15.70834742
 **********************************************************************************************************************************
 Variable memory released
