
 Primary working directories    : /global/cscratch1/sd/aannabe
 Secondary working directories  : /global/cscratch1/sd/aannabe
 Wavefunction directory         : /global/homes/a/aannabe/wfu/
 Main file repository           : /global/cscratch1/sd/aannabe/

 SHA1      : 2873118e99aab1bc19f5b6fc1784693c06d15c95
 NAME      : 2015.1.8
 ARCHNAME  : linux/x86_64
 FC        : /opt/cray/pe/craype/2.5.5/bin/ftn
 BLASLIB   : -Wl,-_start-group /opt/intel/compilers_and_libraries_2016.3.210/linux/mkl/lib/intel64/libmkl_intel_ilp64.a /opt/intel/compilers_and_libraries_2016.3.210/linux/mkl/lib/intel64/libmkl_intel_thread.a /opt/intel/compilers_and_libraries_2016.3.210/linux/mkl/lib/intel64/libmkl_core.a -Wl,-_end-group
 id        : lbl

 Nodes     nprocs
 nid00461     1

 Using customized tuning parameters: mindgm=8; mindgv=16; mindgc=4; mindgr=1; noblas=0; minvec=7
 default implementation of scratch files=df  

 ***,C
 memory,512,m
 gthresh,twoint=1.e-12
 
 gprint,basis,orbitals
 gexpec,ekin,pot
 
 angstrom
 geometry={
 1                                                                               ! Number of atoms
 C 0.0 0.0 0.0
 }
 
 basis={
 Including file /global/homes/a/aannabe/docs/accurate/ccECP_Kh/pps/C.pp
 Including file /global/homes/a/aannabe/docs/accurate/ccECP_Kh/basis/aug-cc-pVnZ/C_6z.basis
 }
 
 {rhf
  start,atden
  wf,4,4,2
  occ,1,1,1,0,0,0,0,0
  open,1.2,1.3
  save,4202.2
 }
 {multi
  start,4202.2
  occ,1,1,1,0,1,0,0
  closed,1,0,0,0,0,0,0,0
  wf,4,4,2;state,1
  wf,4,6,2;state,1
  wf,4,7,2;state,1
  natorb,ci,print
  orbital,5202.2
 }
 {rhf,nitord=1,maxit=0
  start,5202.2
  wf,4,4,2
  occ,1,1,1,0,0,0,0,0
  open,1.2,1.3
 }
 
 scf(i)=energy
 
 _CC_NORM_MAX=2.0
 {uccsd(t)
 maxit,100
 core
 }
 posthf(i)=energy
 
 table,scf,posthf,ekin,pot
 save,6.csv,new
 
 

 Variables initialized (889), CPU time= 0.00 sec
 Commands  initialized (702), CPU time= 0.01 sec, 572 directives.
 Default parameters read. Elapsed time= 0.18 sec

 Checking input...
 Passed
1


                                         ***  PROGRAM SYSTEM MOLPRO  ***
                                       Copyright, TTI GmbH Stuttgart, 2015
                                    Version 2015.1 linked Sep  7 2016 23:09:38


 **********************************************************************************************************************************
 LABEL *   C                                                                             
  64 bit serial version                                                                  DATE: 02-Nov-18          TIME: 13:42:03  
 **********************************************************************************************************************************

 SHA1:             2873118e99aab1bc19f5b6fc1784693c06d15c95
 **********************************************************************************************************************************

 THRESHOLDS:

 ZERO    =  1.00D-12  ONEINT  =  1.00D-12  TWOINT  =  1.00D-12  PREFAC  =  1.00D-14  LOCALI  =  1.00D-09  EORDER  =  1.00D-04
 ENERGY  =  0.00D+00  ETEST   =  0.00D+00  EDENS   =  0.00D+00  THRDEDEF=  1.00D-06  GRADIENT=  1.00D-02  STEP    =  1.00D-03
 ORBITAL =  1.00D-05  CIVEC   =  1.00D-05  COEFF   =  1.00D-04  PRINTCI =  5.00D-02  PUNCHCI =  9.90D+01  OPTGRAD =  3.00D-04
 OPTENERG=  1.00D-06  OPTSTEP =  3.00D-04  THRGRAD =  1.00D-10  COMPRESS=  1.00D-11  VARMIN  =  1.00D-07  VARMAX  =  1.00D-03
 THRDOUB =  0.00D+00  THRDIV  =  1.00D-05  THRRED  =  1.00D-07  THRPSP  =  1.00D+00  THRDC   =  1.00D-10  THRCS   =  1.00D-10
 THRNRM  =  1.00D-08  THREQ   =  0.00D+00  THRDE   =  1.00D+00  THRREF  =  1.00D-05  SPARFAC =  1.00D+00  THRDLP  =  1.00D-07
 THRDIA  =  1.00D-10  THRDLS  =  1.00D-07  THRGPS  =  0.00D+00  THRKEX  =  0.00D+00  THRDIS  =  2.00D-01  THRVAR  =  1.00D-10
 THRLOC  =  1.00D-06  THRGAP  =  1.00D-06  THRLOCT = -1.00D+00  THRGAPT = -1.00D+00  THRORB  =  1.00D-06  THRMLTP =  0.00D+00
 THRCPQCI=  1.00D-10  KEXTA   =  0.00D+00  THRCOARS=  0.00D+00  SYMTOL  =  1.00D-06  GRADTOL =  1.00D-06  THROVL  =  1.00D-08
 THRORTH =  1.00D-08  GRID    =  1.00D-06  GRIDMAX =  1.00D-03  DTMAX   =  0.00D+00  THROCCDE=  1.00D-01  THROCCDE=  1.00D-01



 ZUNIT=ANG
 

Geometry recognized as XYZ


 Variable memory set to  512000000 words,  buffer space   230000 words

 SETTING BASIS          =    USERDEF


 Recomputing integrals since basis changed


 Using spherical harmonics



 PROGRAM * SEWARD (Integral evaluation for generally contracted gaussian basis sets)     Author: Roland Lindh, 1990

 Geometry written to block  1 of record 700

 Orientation using atomic masses  
 Molecule type: Atom
 Symmetry elements: X,Y,Z
 Rotational constants:       0.0000000      0.0000000      0.0000000 GHz  (calculated with average atomic masses)

 Point group  D2h 



 ATOMIC COORDINATES

 NR  ATOM    CHARGE       X              Y              Z

   1  C       4.00    0.000000000    0.000000000    0.000000000


          C   CORE POTENTIAL

          p POTENTIAL

 POWERS             1              3              2
 EXPONENTIALS   14.43502       8.398890       7.381880    
 COEFFICIENTS   4.000000       57.74008      -25.81955    

          s - p POTENTIAL

 POWERS             2
 EXPONENTIALS   7.760790    
 COEFFICIENTS   52.13345    


 BASIS DATA

   Nr Sym  Nuc  Type         Exponents   Contraction coefficients

    1.1 Ag    1  1s          13.073594     0.005158
                              6.541187     0.060342
                              4.573411    -0.197847
                              1.637494    -0.081034
                              0.819297     0.232173
                              0.409924     0.291464
                              0.231300     0.433640
                              0.102619     0.213194
                              0.051344     0.004985
    2.1 Ag    1  1s           0.038873     1.000000
    3.1 Ag    1  1s           0.097183     1.000000
    4.1 Ag    1  1s           0.252653     1.000000
    5.1 Ag    1  1s           0.505925     1.000000
    6.1 Ag    1  1s           1.257512     1.000000
    7.1 Ag    1  1s           4.510706     1.000000
    8.1 Ag    1  3d0          0.069768     1.000000
    9.1 Ag    1  3d2+         0.069768     1.000000
   10.1 Ag    1  3d0          0.174421     1.000000
   11.1 Ag    1  3d2+         0.174421     1.000000
   12.1 Ag    1  3d0          0.444341     1.000000
   13.1 Ag    1  3d2+         0.444341     1.000000
   14.1 Ag    1  3d0          1.003440     1.000000
   15.1 Ag    1  3d2+         1.003440     1.000000
   16.1 Ag    1  3d0          1.896967     1.000000
   17.1 Ag    1  3d2+         1.896967     1.000000
   18.1 Ag    1  3d0          4.570118     1.000000
   19.1 Ag    1  3d2+         4.570118     1.000000
   20.1 Ag    1  5g0          0.217742     1.000000
   21.1 Ag    1  5g4+         0.217742     1.000000
   22.1 Ag    1  5g2+         0.217742     1.000000
   23.1 Ag    1  5g0          0.544354     1.000000
   24.1 Ag    1  5g4+         0.544354     1.000000
   25.1 Ag    1  5g2+         0.544354     1.000000
   26.1 Ag    1  5g0          1.258225     1.000000
   27.1 Ag    1  5g4+         1.258225     1.000000
   28.1 Ag    1  5g2+         1.258225     1.000000
   29.1 Ag    1  5g0          2.358234     1.000000
   30.1 Ag    1  5g4+         2.358234     1.000000
   31.1 Ag    1  5g2+         2.358234     1.000000
   32.1 Ag    1  7i6+         0.591292     1.000000
   33.1 Ag    1  7i4+         0.591292     1.000000
   34.1 Ag    1  7i2+         0.591292     1.000000
   35.1 Ag    1  7i0          0.591292     1.000000
   36.1 Ag    1  7i6+         1.478231     1.000000
   37.1 Ag    1  7i4+         1.478231     1.000000
   38.1 Ag    1  7i2+         1.478231     1.000000
   39.1 Ag    1  7i0          1.478231     1.000000
    1.2 B3u   1  2px          9.934169     0.020908
                              3.886955     0.057270
                              1.871016     0.112268
                              0.935757     0.213008
                              0.468003     0.283581
                              0.239473     0.301121
                              0.117063     0.201693
                              0.058547     0.045358
                              0.029281     0.002978
    2.2 B3u   1  2px          0.030847     1.000000
    3.2 B3u   1  2px          0.077118     1.000000
    4.2 B3u   1  2px          0.189484     1.000000
    5.2 B3u   1  2px          0.414159     1.000000
    6.2 B3u   1  2px          1.118776     1.000000
    7.2 B3u   1  2px          1.394825     1.000000
    8.2 B3u   1  4f1+         0.112501     1.000000
    9.2 B3u   1  4f3+         0.112501     1.000000
   10.2 B3u   1  4f1+         0.281253     1.000000
   11.2 B3u   1  4f3+         0.281253     1.000000
   12.2 B3u   1  4f1+         0.667529     1.000000
   13.2 B3u   1  4f3+         0.667529     1.000000
   14.2 B3u   1  4f1+         1.341662     1.000000
   15.2 B3u   1  4f3+         1.341662     1.000000
   16.2 B3u   1  4f1+         2.421007     1.000000
   17.2 B3u   1  4f3+         2.421007     1.000000
   18.2 B3u   1  6h1+         0.344225     1.000000
   19.2 B3u   1  6h3+         0.344225     1.000000
   20.2 B3u   1  6h5+         0.344225     1.000000
   21.2 B3u   1  6h1+         0.860563     1.000000
   22.2 B3u   1  6h3+         0.860563     1.000000
   23.2 B3u   1  6h5+         0.860563     1.000000
   24.2 B3u   1  6h1+         1.949404     1.000000
   25.2 B3u   1  6h3+         1.949404     1.000000
   26.2 B3u   1  6h5+         1.949404     1.000000
    1.3 B2u   1  2py          9.934169     0.020908
                              3.886955     0.057270
                              1.871016     0.112268
                              0.935757     0.213008
                              0.468003     0.283581
                              0.239473     0.301121
                              0.117063     0.201693
                              0.058547     0.045358
                              0.029281     0.002978
    2.3 B2u   1  2py          0.030847     1.000000
    3.3 B2u   1  2py          0.077118     1.000000
    4.3 B2u   1  2py          0.189484     1.000000
    5.3 B2u   1  2py          0.414159     1.000000
    6.3 B2u   1  2py          1.118776     1.000000
    7.3 B2u   1  2py          1.394825     1.000000
    8.3 B2u   1  4f1-         0.112501     1.000000
    9.3 B2u   1  4f3-         0.112501     1.000000
   10.3 B2u   1  4f1-         0.281253     1.000000
   11.3 B2u   1  4f3-         0.281253     1.000000
   12.3 B2u   1  4f1-         0.667529     1.000000
   13.3 B2u   1  4f3-         0.667529     1.000000
   14.3 B2u   1  4f1-         1.341662     1.000000
   15.3 B2u   1  4f3-         1.341662     1.000000
   16.3 B2u   1  4f1-         2.421007     1.000000
   17.3 B2u   1  4f3-         2.421007     1.000000
   18.3 B2u   1  6h1-         0.344225     1.000000
   19.3 B2u   1  6h3-         0.344225     1.000000
   20.3 B2u   1  6h5-         0.344225     1.000000
   21.3 B2u   1  6h1-         0.860563     1.000000
   22.3 B2u   1  6h3-         0.860563     1.000000
   23.3 B2u   1  6h5-         0.860563     1.000000
   24.3 B2u   1  6h1-         1.949404     1.000000
   25.3 B2u   1  6h3-         1.949404     1.000000
   26.3 B2u   1  6h5-         1.949404     1.000000
    1.4 B1g   1  3d2-         0.069768     1.000000
    2.4 B1g   1  3d2-         0.174421     1.000000
    3.4 B1g   1  3d2-         0.444341     1.000000
    4.4 B1g   1  3d2-         1.003440     1.000000
    5.4 B1g   1  3d2-         1.896967     1.000000
    6.4 B1g   1  3d2-         4.570118     1.000000
    7.4 B1g   1  5g2-         0.217742     1.000000
    8.4 B1g   1  5g4-         0.217742     1.000000
    9.4 B1g   1  5g2-         0.544354     1.000000
   10.4 B1g   1  5g4-         0.544354     1.000000
   11.4 B1g   1  5g2-         1.258225     1.000000
   12.4 B1g   1  5g4-         1.258225     1.000000
   13.4 B1g   1  5g2-         2.358234     1.000000
   14.4 B1g   1  5g4-         2.358234     1.000000
   15.4 B1g   1  7i2-         0.591292     1.000000
   16.4 B1g   1  7i6-         0.591292     1.000000
   17.4 B1g   1  7i4-         0.591292     1.000000
   18.4 B1g   1  7i2-         1.478231     1.000000
   19.4 B1g   1  7i6-         1.478231     1.000000
   20.4 B1g   1  7i4-         1.478231     1.000000
    1.5 B1u   1  2pz          9.934169     0.020908
                              3.886955     0.057270
                              1.871016     0.112268
                              0.935757     0.213008
                              0.468003     0.283581
                              0.239473     0.301121
                              0.117063     0.201693
                              0.058547     0.045358
                              0.029281     0.002978
    2.5 B1u   1  2pz          0.030847     1.000000
    3.5 B1u   1  2pz          0.077118     1.000000
    4.5 B1u   1  2pz          0.189484     1.000000
    5.5 B1u   1  2pz          0.414159     1.000000
    6.5 B1u   1  2pz          1.118776     1.000000
    7.5 B1u   1  2pz          1.394825     1.000000
    8.5 B1u   1  4f0          0.112501     1.000000
    9.5 B1u   1  4f2+         0.112501     1.000000
   10.5 B1u   1  4f0          0.281253     1.000000
   11.5 B1u   1  4f2+         0.281253     1.000000
   12.5 B1u   1  4f0          0.667529     1.000000
   13.5 B1u   1  4f2+         0.667529     1.000000
   14.5 B1u   1  4f0          1.341662     1.000000
   15.5 B1u   1  4f2+         1.341662     1.000000
   16.5 B1u   1  4f0          2.421007     1.000000
   17.5 B1u   1  4f2+         2.421007     1.000000
   18.5 B1u   1  6h2+         0.344225     1.000000
   19.5 B1u   1  6h4+         0.344225     1.000000
   20.5 B1u   1  6h0          0.344225     1.000000
   21.5 B1u   1  6h2+         0.860563     1.000000
   22.5 B1u   1  6h4+         0.860563     1.000000
   23.5 B1u   1  6h0          0.860563     1.000000
   24.5 B1u   1  6h2+         1.949404     1.000000
   25.5 B1u   1  6h4+         1.949404     1.000000
   26.5 B1u   1  6h0          1.949404     1.000000
    1.6 B2g   1  3d1+         0.069768     1.000000
    2.6 B2g   1  3d1+         0.174421     1.000000
    3.6 B2g   1  3d1+         0.444341     1.000000
    4.6 B2g   1  3d1+         1.003440     1.000000
    5.6 B2g   1  3d1+         1.896967     1.000000
    6.6 B2g   1  3d1+         4.570118     1.000000
    7.6 B2g   1  5g1+         0.217742     1.000000
    8.6 B2g   1  5g3+         0.217742     1.000000
    9.6 B2g   1  5g1+         0.544354     1.000000
   10.6 B2g   1  5g3+         0.544354     1.000000
   11.6 B2g   1  5g1+         1.258225     1.000000
   12.6 B2g   1  5g3+         1.258225     1.000000
   13.6 B2g   1  5g1+         2.358234     1.000000
   14.6 B2g   1  5g3+         2.358234     1.000000
   15.6 B2g   1  7i5+         0.591292     1.000000
   16.6 B2g   1  7i3+         0.591292     1.000000
   17.6 B2g   1  7i1+         0.591292     1.000000
   18.6 B2g   1  7i5+         1.478231     1.000000
   19.6 B2g   1  7i3+         1.478231     1.000000
   20.6 B2g   1  7i1+         1.478231     1.000000
    1.7 B3g   1  3d1-         0.069768     1.000000
    2.7 B3g   1  3d1-         0.174421     1.000000
    3.7 B3g   1  3d1-         0.444341     1.000000
    4.7 B3g   1  3d1-         1.003440     1.000000
    5.7 B3g   1  3d1-         1.896967     1.000000
    6.7 B3g   1  3d1-         4.570118     1.000000
    7.7 B3g   1  5g1-         0.217742     1.000000
    8.7 B3g   1  5g3-         0.217742     1.000000
    9.7 B3g   1  5g1-         0.544354     1.000000
   10.7 B3g   1  5g3-         0.544354     1.000000
   11.7 B3g   1  5g1-         1.258225     1.000000
   12.7 B3g   1  5g3-         1.258225     1.000000
   13.7 B3g   1  5g1-         2.358234     1.000000
   14.7 B3g   1  5g3-         2.358234     1.000000
   15.7 B3g   1  7i5-         0.591292     1.000000
   16.7 B3g   1  7i3-         0.591292     1.000000
   17.7 B3g   1  7i1-         0.591292     1.000000
   18.7 B3g   1  7i5-         1.478231     1.000000
   19.7 B3g   1  7i3-         1.478231     1.000000
   20.7 B3g   1  7i1-         1.478231     1.000000
    1.8 Au    1  4f2-         0.112501     1.000000
    2.8 Au    1  4f2-         0.281253     1.000000
    3.8 Au    1  4f2-         0.667529     1.000000
    4.8 Au    1  4f2-         1.341662     1.000000
    5.8 Au    1  4f2-         2.421007     1.000000
    6.8 Au    1  6h4-         0.344225     1.000000
    7.8 Au    1  6h2-         0.344225     1.000000
    8.8 Au    1  6h4-         0.860563     1.000000
    9.8 Au    1  6h2-         0.860563     1.000000
   10.8 Au    1  6h4-         1.949404     1.000000
   11.8 Au    1  6h2-         1.949404     1.000000

 NUCLEAR CHARGE:                    4
 NUMBER OF PRIMITIVE AOS:         325
 NUMBER OF SYMMETRY AOS:          220
 NUMBER OF CONTRACTIONS:          188   (  39Ag  +  26B3u +  26B2u +  20B1g +  26B1u +  20B2g +  20B3g +  11Au  )
 NUMBER OF CORE ORBITALS:           0   (   0Ag  +   0B3u +   0B2u +   0B1g +   0B1u +   0B2g +   0B3g +   0Au  )
 NUMBER OF VALENCE ORBITALS:        4   (   1Ag  +   1B3u +   1B2u +   0B1g +   1B1u +   0B2g +   0B3g +   0Au  )


 NUCLEAR REPULSION ENERGY    0.00000000

 EXTRA SYMMETRY OF AOS IN SYMMETRY 1:   1 1 1 1 1 1 1 2 3 2   3 2 3 2 3 2 3 2 3 4   5 6 4 5 6 4 5 6 4 5   6 7 8 910 7 8 910
 EXTRA SYMMETRY OF AOS IN SYMMETRY 2:   1 1 1 1 1 1 1 2 3 2   3 2 3 2 3 2 3 4 5 6   4 5 6 4 5 6
 EXTRA SYMMETRY OF AOS IN SYMMETRY 3:   1 1 1 1 1 1 1 2 3 2   3 2 3 2 3 2 3 4 5 6   4 5 6 4 5 6
 EXTRA SYMMETRY OF AOS IN SYMMETRY 4:   1 1 1 1 1 1 2 3 2 3   2 3 2 3 4 5 6 4 5 6
 EXTRA SYMMETRY OF AOS IN SYMMETRY 5:   1 1 1 1 1 1 1 2 3 2   3 2 3 2 3 2 3 4 5 6   4 5 6 4 5 6
 EXTRA SYMMETRY OF AOS IN SYMMETRY 6:   1 1 1 1 1 1 2 3 2 3   2 3 2 3 4 5 6 4 5 6
 EXTRA SYMMETRY OF AOS IN SYMMETRY 7:   1 1 1 1 1 1 2 3 2 3   2 3 2 3 4 5 6 4 5 6
 EXTRA SYMMETRY OF AOS IN SYMMETRY 8:   1 1 1 1 1 2 3 2 3 2   3

 Eigenvalues of metric

         1 0.155E-03 0.430E-02 0.205E-01 0.205E-01 0.372E-01 0.994E-01 0.994E-01 0.994E-01
         2 0.101E-02 0.465E-02 0.266E-01 0.351E-01 0.351E-01 0.152E+00 0.189E+00 0.189E+00
         3 0.101E-02 0.465E-02 0.266E-01 0.351E-01 0.351E-01 0.152E+00 0.189E+00 0.189E+00
         4 0.205E-01 0.994E-01 0.994E-01 0.109E+00 0.340E+00 0.425E+00 0.425E+00 0.533E+00
         5 0.101E-02 0.465E-02 0.266E-01 0.351E-01 0.351E-01 0.152E+00 0.189E+00 0.189E+00
         6 0.205E-01 0.994E-01 0.994E-01 0.109E+00 0.340E+00 0.425E+00 0.425E+00 0.533E+00
         7 0.205E-01 0.994E-01 0.994E-01 0.109E+00 0.340E+00 0.425E+00 0.425E+00 0.533E+00
         8 0.351E-01 0.189E+00 0.269E+00 0.269E+00 0.599E+00 0.889E+00 0.889E+00 0.149E+01


 Contracted 2-electron integrals neglected if value below      1.0D-12
 AO integral compression algorithm  1   Integral accuracy      1.0D-12

     119.013 MB (compressed) written to integral file ( 46.9%)


 NUMBER OF SORTED TWO-ELECTRON INTEGRALS:   20212815.     BUFFER LENGTH:  32768
 NUMBER OF SEGMENTS:   2  SEGMENT LENGTH:   15998787      RECORD LENGTH: 524288

 Memory used in sort:      16.56 MW

 SORT1 READ    31710950. AND WROTE    13213985. INTEGRALS IN     39 RECORDS. CPU TIME:     1.15 SEC, REAL TIME:     1.51 SEC
 SORT2 READ    13213985. AND WROTE    20212815. INTEGRALS IN    454 RECORDS. CPU TIME:     0.78 SEC, REAL TIME:     1.34 SEC

 FILE SIZES:   FILE 1:   138.9 MBYTE,  FILE 4:   163.6 MBYTE,   TOTAL:    302.5 MBYTE

 OPERATOR DM      FOR CENTER  0  COORDINATES:    0.000000    0.000000    0.000000
 OPERATOR EKIN    FOR CENTER  0  COORDINATES:    0.000000    0.000000    0.000000
 OPERATOR POT     FOR CENTER  0  COORDINATES:    0.000000    0.000000    0.000000


 **********************************************************************************************************************************
 DATASETS  * FILE   NREC   LENGTH (MB)   RECORD NAMES
              1      20       96.47       500      610      700      900      950      970     1000      129      960     1100   
                                          VAR    BASINP    GEOM    SYMINP    ZMAT    AOBASIS   BASIS     P2S    ABASIS      S 
                                         1400     1410     1420     1200     1210     1080     1600     1650     1300     1700   
                                         EKIN       V       ECP      H0       H01     AOSYM     SMH    MOLCAS    ERIS     OPER   

 PROGRAMS   *        TOTAL       INT
 CPU TIMES  *         7.88      7.74
 REAL TIME  *        11.24 SEC
 DISK USED  *       302.86 MB      
 **********************************************************************************************************************************


 PROGRAM * RHF-SCF (OPEN SHELL)       Authors: W. Meyer, H.-J. Werner


 NUMBER OF ELECTRONS:       3+    1-    SPACE SYMMETRY=4    SPIN SYMMETRY: Triplet 
 CONVERGENCE THRESHOLDS:    1.00E-05 (Density)    1.00E-07 (Energy)
 MAX. NUMBER OF ITERATIONS:       60
 INTERPOLATION TYPE:            DIIS
 INTERPOLATION STEPS:              2 (START)      1 (STEP)
 LEVEL SHIFTS:                 -0.60 (CLOSED) -0.30 (OPEN) 


 Singly occupied orbitals:      1.2       1.3

   Atom=C  basis=ECP2MWB_GUESS     lmin=0  lmax=1

 Orbital guess generated from atomic densities. Full valence occupancy:    1   1   1   0   1   0   0   0


 Molecular orbital dump at record        4202.2

 ITERATION    DDIFF          GRAD             ENERGY        2-EL.EN.            DIPOLE MOMENTS         DIIS   ORB.
    1      0.000D+00      0.000D+00        -5.27587054      5.489873    0.00000    0.00000    0.00000    0    start
    2      0.000D+00      0.117D-01        -5.30878068      5.869957    0.00000    0.00000    0.00000    1    diag,B
    3      0.800D-02      0.325D-02        -5.31348952      6.008234    0.00000    0.00000    0.00000    2    diag,B
    4      0.210D-02      0.123D-02        -5.31427145      6.051964    0.00000    0.00000    0.00000    3    diag,B
    5      0.132D-02      0.309D-03        -5.31431731      6.057192    0.00000    0.00000    0.00000    4    diag,B
    6      0.345D-03      0.745D-04        -5.31431972      6.058361    0.00000    0.00000    0.00000    5    diag,B
    7      0.146D-03      0.170D-04        -5.31431979      6.058235    0.00000    0.00000    0.00000    6    fixocc
    8      0.427D-04      0.420D-05        -5.31431979      6.058252    0.00000    0.00000    0.00000    7    diag,B
    9      0.532D-05      0.106D-05        -5.31431979      6.058250    0.00000    0.00000    0.00000    0    orth

 Final alpha occupancy:   1   1   1   0   0   0   0   0
 Final beta  occupancy:   1   0   0   0   0   0   0   0

 !RHF STATE 1.4 Energy                 -5.314319794419
 Nuclear energy                         0.00000000
 One-electron energy                   -8.34344485
 Two-electron energy                    3.02912506
 Virial quotient                       -1.54728920
 !RHF STATE 1.4 Dipole moment           0.00000000     0.00000000     0.00000000
 Dipole moment /Debye                   0.00000000     0.00000000     0.00000000
 

 !RHF expec          <1.4|EKIN|1.4>     3.434600188638
 
 !RHF expec           <1.4|POT|1.4>    -3.072628296152

 ELECTRON ORBITALS
 =================


   Orb  Occ    Energy  Couls-En    Coefficients

                                   1 1s      1 1s      1 1s      1 1s      1 1s      1 1s      1 1s      1 3d0     1 3d2+    1 3d0  
                                   1 3d2+    1 3d0     1 3d2+    1 3d0     1 3d2+    1 3d0     1 3d2+    1 3d0     1 3d2+    1 5g0  
                                   1 5g4+    1 5g2+    1 5g0     1 5g4+    1 5g2+    1 5g0     1 5g4+    1 5g2+    1 5g0     1 5g4+ 
                                   1 5g2+    1 7i6+    1 7i4+    1 7i2+    1 7i0     1 7i6+    1 7i4+    1 7i2+    1 7i0  

   1.1   2    -0.7072   -2.9683  1.000210  0.000443 -0.000752  0.000301 -0.000171  0.000016  0.000021 -0.000969 -0.000000 -0.004039
                                -0.000000 -0.001150  0.000000  0.000122 -0.000000 -0.000768  0.000000 -0.000390 -0.000000 -0.000028
                                 0.000000 -0.000000 -0.000020  0.000000  0.000000 -0.000002 -0.000000 -0.000000 -0.000003  0.000000
                                 0.000000  0.000000 -0.000000 -0.000000 -0.000000 -0.000000  0.000000  0.000000 -0.000000

                                   1 2px     1 2px     1 2px     1 2px     1 2px     1 2px     1 2px     1 4f1+    1 4f3+    1 4f1+ 
                                   1 4f3+    1 4f1+    1 4f3+    1 4f1+    1 4f3+    1 4f1+    1 4f3+    1 6h1+    1 6h3+    1 6h5+ 
                                   1 6h1+    1 6h3+    1 6h5+    1 6h1+    1 6h3+    1 6h5+ 

   1.2   +    -0.4354   -2.3460  0.999984  0.000088 -0.000127  0.000229 -0.000172  0.000116 -0.000087 -0.000046 -0.000000  0.000001
                                 0.000000  0.000049 -0.000000  0.000011 -0.000000  0.000003  0.000000 -0.000001 -0.000000  0.000000
                                -0.000000  0.000000 -0.000000 -0.000000 -0.000000  0.000000

                                   1 2py     1 2py     1 2py     1 2py     1 2py     1 2py     1 2py     1 4f1-    1 4f3-    1 4f1- 
                                   1 4f3-    1 4f1-    1 4f3-    1 4f1-    1 4f3-    1 4f1-    1 4f3-    1 6h1-    1 6h3-    1 6h5- 
                                   1 6h1-    1 6h3-    1 6h5-    1 6h1-    1 6h3-    1 6h5- 

   1.3   +    -0.4354   -2.3460  0.999984  0.000088 -0.000127  0.000229 -0.000172  0.000116 -0.000087 -0.000046  0.000000  0.000001
                                -0.000000  0.000049  0.000000  0.000011 -0.000000  0.000003 -0.000000 -0.000001  0.000000 -0.000000
                                -0.000000 -0.000000 -0.000000 -0.000000  0.000000 -0.000000

 HOMO      1.2    -0.435356 =     -11.8466eV
 LUMO      1.5     0.010448 =       0.2843eV
 LUMO-HOMO         0.445804 =      12.1310eV


 **********************************************************************************************************************************
 DATASETS  * FILE   NREC   LENGTH (MB)   RECORD NAMES
              1      20       96.47       500      610      700      900      950      970     1000      129      960     1100   
                                          VAR    BASINP    GEOM    SYMINP    ZMAT    AOBASIS   BASIS     P2S    ABASIS      S 
                                         1400     1410     1420     1200     1210     1080     1600     1650     1300     1700   
                                         EKIN       V       ECP      H0       H01     AOSYM     SMH    MOLCAS    ERIS     OPER   

              2       4        2.92       700     1000      520     4202   
                                         GEOM     BASIS   MCVARS     RHF  

 PROGRAMS   *        TOTAL       RHF       INT
 CPU TIMES  *         8.61      0.71      7.74
 REAL TIME  *        12.16 SEC
 DISK USED  *       302.86 MB      
 **********************************************************************************************************************************


 PROGRAM * MULTI (Direct Multiconfiguration SCF)       Authors: P.J. Knowles, H.-J. Werner (1984)     S.T. Elbert (1988)


 Number of closed-shell orbitals:   1 (   1   0   0   0   0   0   0   0 )
 Number of active  orbitals:        3 (   0   1   1   0   1   0   0   0 )
 Number of external orbitals:     184 (  38  25  25  20  25  20  20  11 )

 State symmetry 1

 Number of electrons:     2    Spin symmetry=Triplet   Space symmetry=4
 Number of states:        1
 Number of CSFs:          1   (1 determinants, 3 intermediate states)

 State symmetry 2

 Number of electrons:     2    Spin symmetry=Triplet   Space symmetry=6
 Number of states:        1
 Number of CSFs:          1   (1 determinants, 3 intermediate states)

 State symmetry 3

 Number of electrons:     2    Spin symmetry=Triplet   Space symmetry=7
 Number of states:        1
 Number of CSFs:          1   (1 determinants, 3 intermediate states)

 Molecular orbitals read from record     4202.2  Type=RHF/CANONICAL (state 1.4)
 *** IN SYMMETRY 1 ORBITAL  1 SYMMETRY CONTAMINATION OF 0.742D-02 HAS BEEN REMOVED

 EXTRA SYMMETRY OF MOS IN SYMMETRY 1:   1 1 2 3 1 3 2 4 6 5   1 3 2 4 6 5 2 310 9   8 7 1 4 6 5 2 310 9   8 7 1 4 6 5 2 3 1
 *** IN SYMMETRY 2 ORBITAL  1 SYMMETRY CONTAMINATION OF 0.109D-03 HAS BEEN REMOVED
 EXTRA SYMMETRY OF MOS IN SYMMETRY 2:   1 1 1 2 3 1 2 3 4 5   6 1 2 3 4 5 6 1 2 3   1 4 5 6 2 3
 *** IN SYMMETRY 3 ORBITAL  1 SYMMETRY CONTAMINATION OF 0.109D-03 HAS BEEN REMOVED
 EXTRA SYMMETRY OF MOS IN SYMMETRY 3:   1 1 1 2 3 1 2 3 4 5   6 1 2 3 4 5 6 1 2 3   1 4 5 6 2 3
 EXTRA SYMMETRY OF MOS IN SYMMETRY 4:   1 1 2 3 1 2 3 1 4 6   5 2 3 1 4 6 5 2 3 1
 *** IN SYMMETRY 5 ORBITAL  1 SYMMETRY CONTAMINATION OF 0.400D-02 HAS BEEN REMOVED
 EXTRA SYMMETRY OF MOS IN SYMMETRY 5:   1 1 1 2 3 1 2 3 6 4   5 1 2 3 6 4 5 1 2 3   1 6 4 5 2 3
 EXTRA SYMMETRY OF MOS IN SYMMETRY 6:   1 1 2 3 1 2 3 1 6 5   4 2 3 1 6 5 4 2 3 1
 EXTRA SYMMETRY OF MOS IN SYMMETRY 7:   1 1 2 3 1 2 3 1 6 5   4 2 3 1 6 5 4 2 3 1
 EXTRA SYMMETRY OF MOS IN SYMMETRY 8:   1 1 3 2 1 3 2 1 3 2   1

 Wavefunction dump at record             5202.2

 Convergence thresholds  0.10E-01 (gradient)  0.10E-05 (energy)  0.10E-02 (step length)

 Weight factors for state symmetry  1:    0.33333
 Weight factors for state symmetry  2:    0.33333
 Weight factors for state symmetry  3:    0.33333

 Number of orbital rotations:      113   (     0 Core/Active     38 Core/Virtual   0 Active/Active     75 Active/Virtual)
 Total number of variables:        116


 ITER. MIC  NCI  NEG     ENERGY(VAR)     ENERGY(PROJ)   ENERGY CHANGE     GRAD(0)  GRAD(ORB)   GRAD(CI)     STEP       TIME

   1   24   12    0      -5.25270196      -5.31438721   -0.06168525    0.13106091 0.00000000 0.00000000  0.50D+00      0.17
   2   15   12    0      -5.31410915      -5.31424769   -0.00013854    0.01543256 0.00000000 0.00000000  0.14D-01      0.35
   3   15   12    0      -5.31424799      -5.31424799   -0.00000000    0.00005416 0.00000000 0.00000000  0.46D-04      0.53

 ** WVFN ****  CONVERGENCE REACHED, FINAL GRADIENT:  0.67D-09



 Results for state 1.4
 =====================

 !MCSCF STATE 1.4 Energy               -5.314247993581
 Nuclear energy                         0.00000000
 Kinetic energy                         3.43467599
 One electron energy                   -8.34355024
 Two electron energy                    3.02930225
 Virial ratio                           2.54723415

 !MCSCF STATE 1.4 Dipole moment         0.00000000     0.00000000     0.00000000
 Dipole moment /Debye                   0.00000000     0.00000000     0.00000000



 Results for state 1.6
 =====================

 !MCSCF STATE 1.6 Energy               -5.314247993581
 Nuclear energy                         0.00000000
 Kinetic energy                         3.43467599
 One electron energy                   -8.34355024
 Two electron energy                    3.02930225
 Virial ratio                           2.54723415

 !MCSCF STATE 1.6 Dipole moment         0.00000000     0.00000000     0.00000000
 Dipole moment /Debye                   0.00000000     0.00000000     0.00000000



 Results for state 1.7
 =====================

 !MCSCF STATE 1.7 Energy               -5.314247993581
 Nuclear energy                         0.00000000
 Kinetic energy                         3.43467599
 One electron energy                   -8.34355024
 Two electron energy                    3.02930225
 Virial ratio                           2.54723415

 !MCSCF STATE 1.7 Dipole moment         0.00000000     0.00000000     0.00000000
 Dipole moment /Debye                   0.00000000     0.00000000     0.00000000

 State-averaged charge density matrix saved on record  5202.2 (density set 1)

 !MCSCF expec        <1.4|EKIN|1.4>     3.434675992982
 !MCSCF expec        <1.6|EKIN|1.6>     3.434675992061
 !MCSCF expec        <1.7|EKIN|1.7>     3.434675992061

 !MCSCF expec         <1.4|POT|1.4>    -3.072661307263
 !MCSCF expec         <1.6|POT|1.6>    -3.072661306970
 !MCSCF expec         <1.7|POT|1.7>    -3.072661306970


 NATURAL ORBITALS (state averaged)
 =================================

   Orb     Occ        Energy       Coefficients

                                   1 1s      1 1s      1 1s      1 1s      1 1s      1 1s      1 1s      1 3d0     1 3d2+    1 3d0  
                                   1 3d2+    1 3d0     1 3d2+    1 3d0     1 3d2+    1 3d0     1 3d2+    1 3d0     1 3d2+    1 5g0  
                                   1 5g4+    1 5g2+    1 5g0     1 5g4+    1 5g2+    1 5g0     1 5g4+    1 5g2+    1 5g0     1 5g4+ 
                                   1 5g2+    1 7i6+    1 7i4+    1 7i2+    1 7i0     1 7i6+    1 7i4+    1 7i2+    1 7i0  

   1.1  2.00000    -0.707187     1.000203  0.000458 -0.000686  0.000317 -0.000244  0.000027  0.000024  0.000000  0.000000  0.000000
                                 0.000000  0.000000  0.000000  0.000000  0.000000  0.000000  0.000000  0.000000  0.000000  0.000000
                                 0.000000  0.000000  0.000000  0.000000  0.000000  0.000000  0.000000  0.000000  0.000000  0.000000
                                 0.000000  0.000000  0.000000  0.000000  0.000000  0.000000  0.000000  0.000000  0.000000

                                   1 2px     1 2px     1 2px     1 2px     1 2px     1 2px     1 2px     1 4f1+    1 4f3+    1 4f1+ 
                                   1 4f3+    1 4f1+    1 4f3+    1 4f1+    1 4f3+    1 4f1+    1 4f3+    1 6h1+    1 6h3+    1 6h5+ 
                                   1 6h1+    1 6h3+    1 6h5+    1 6h1+    1 6h3+    1 6h5+ 

   1.2  0.66667    -0.059822     1.000040  0.000096 -0.000186  0.000177 -0.000144  0.000117 -0.000093  0.000000  0.000000  0.000000
                                 0.000000  0.000000  0.000000  0.000000  0.000000  0.000000  0.000000  0.000000  0.000000  0.000000
                                 0.000000  0.000000  0.000000  0.000000  0.000000  0.000000

                                   1 2py     1 2py     1 2py     1 2py     1 2py     1 2py     1 2py     1 4f1-    1 4f3-    1 4f1- 
                                   1 4f3-    1 4f1-    1 4f3-    1 4f1-    1 4f3-    1 4f1-    1 4f3-    1 6h1-    1 6h3-    1 6h5- 
                                   1 6h1-    1 6h3-    1 6h5-    1 6h1-    1 6h3-    1 6h5- 

   1.3  0.66667    -0.059822     1.000040  0.000096 -0.000186  0.000177 -0.000144  0.000117 -0.000093  0.000000  0.000000  0.000000
                                 0.000000  0.000000  0.000000  0.000000  0.000000  0.000000  0.000000  0.000000  0.000000  0.000000
                                 0.000000  0.000000  0.000000  0.000000  0.000000  0.000000

                                   1 2pz     1 2pz     1 2pz     1 2pz     1 2pz     1 2pz     1 2pz     1 4f0     1 4f2+    1 4f0  
                                   1 4f2+    1 4f0     1 4f2+    1 4f0     1 4f2+    1 4f0     1 4f2+    1 6h2+    1 6h4+    1 6h0  
                                   1 6h2+    1 6h4+    1 6h0     1 6h2+    1 6h4+    1 6h0  

   1.5  0.66667    -0.059822     1.000040  0.000096 -0.000186  0.000177 -0.000144  0.000117 -0.000093  0.000000  0.000000  0.000000
                                 0.000000  0.000000  0.000000  0.000000  0.000000  0.000000  0.000000  0.000000  0.000000  0.000000
                                 0.000000  0.000000  0.000000  0.000000  0.000000  0.000000
 

 EXTRA SYMMETRY OF MOS IN SYMMETRY 1:   1 1 3 2 1 3 2 5 6 4   1 3 2 5 6 4 3 2 7 8   910 1 4 6 5 2 310 9   8 7 1 4 6 5 2 3 1
 EXTRA SYMMETRY OF MOS IN SYMMETRY 2:   1 1 1 3 2 1 3 2 6 5   4 1 3 2 6 5 4 1 2 3   1 4 5 6 2 3
 EXTRA SYMMETRY OF MOS IN SYMMETRY 3:   1 1 1 3 2 1 3 2 6 5   4 1 3 2 6 5 4 1 2 3   1 4 5 6 2 3
 EXTRA SYMMETRY OF MOS IN SYMMETRY 4:   1 1 3 2 1 3 2 1 5 6   4 2 3 1 4 6 5 2 3 1
 EXTRA SYMMETRY OF MOS IN SYMMETRY 5:   1 1 1 2 3 1 3 2 5 4   6 1 3 2 5 4 6 1 2 3   1 6 4 5 2 3
 EXTRA SYMMETRY OF MOS IN SYMMETRY 6:   1 1 3 2 1 3 2 1 4 5   6 2 3 1 6 5 4 2 3 1
 EXTRA SYMMETRY OF MOS IN SYMMETRY 7:   1 1 3 2 1 3 2 1 4 5   6 2 3 1 6 5 4 2 3 1
 EXTRA SYMMETRY OF MOS IN SYMMETRY 8:   1 1 2 3 1 2 3 1 3 2   1

 Natural orbital dump (state averaged) at molpro section  5202.2    (Orbital set 2)


 CI vector for state symmetry 1
 ==============================

 a a 0           1.0000000

 TOTAL ENERGIES                        -5.31424799

 CI vector for state symmetry 2
 ==============================

 a 0 a           1.0000000

 TOTAL ENERGIES                        -5.31424799

 CI vector for state symmetry 3
 ==============================

 0 a a           1.0000000

 TOTAL ENERGIES                        -5.31424799



 **********************************************************************************************************************************
 DATASETS  * FILE   NREC   LENGTH (MB)   RECORD NAMES
              1      21       97.11       500      610      700      900      950      970     1000      129      960     1100   
                                          VAR    BASINP    GEOM    SYMINP    ZMAT    AOBASIS   BASIS     P2S    ABASIS      S 
                                         1400     1410     1420     1200     1210     1080     1600     1650     1300     1700   
                                         EKIN       V       ECP      H0       H01     AOSYM     SMH    MOLCAS    ERIS     OPER   
                                         1380   
                                         JKOP   

              2       5        5.60       700     1000      520     4202     5202   
                                         GEOM     BASIS   MCVARS     RHF     MCSCF   

 PROGRAMS   *        TOTAL     MULTI       RHF       INT
 CPU TIMES  *         9.33      0.73      0.71      7.74
 REAL TIME  *        29.32 SEC
 DISK USED  *       302.86 MB      
 **********************************************************************************************************************************


 PROGRAM * RHF-SCF (OPEN SHELL)       Authors: W. Meyer, H.-J. Werner


 NUMBER OF ELECTRONS:       3+    1-    SPACE SYMMETRY=4    SPIN SYMMETRY: Triplet 
 CONVERGENCE THRESHOLDS:    1.00E-05 (Density)    1.00E-07 (Energy)
 MAX. NUMBER OF ITERATIONS:        0
 INTERPOLATION TYPE:            DIIS
 INTERPOLATION STEPS:              2 (START)      1 (STEP)
 LEVEL SHIFTS:                 -0.60 (CLOSED) -0.30 (OPEN) 


 Singly occupied orbitals:      1.2       1.3
 Molecular orbitals read from record     5202.2  Type=MCSCF/NATURAL (state averaged)

 Molecular orbital dump at record        2101.2

 ITERATION    DDIFF          GRAD             ENERGY        2-EL.EN.            DIPOLE MOMENTS         DIIS   ORB.
    1      0.000D+00      0.000D+00        -5.31424799      6.058604    0.00000    0.00000    0.00000    0    start

 Final alpha occupancy:   1   1   1   0   0   0   0   0
 Final beta  occupancy:   1   0   0   0   0   0   0   0

 !RHF STATE 1.4 Energy                 -5.314247993581
 Nuclear energy                         0.00000000
 One-electron energy                   -8.34355024
 Two-electron energy                    3.02930225
 Virial quotient                       -1.54723415
 !RHF STATE 1.4 Dipole moment           0.00000000     0.00000000     0.00000000
 Dipole moment /Debye                   0.00000000     0.00000000     0.00000000
 

 !RHF expec          <1.4|EKIN|1.4>     3.434675992982
 
 !RHF expec           <1.4|POT|1.4>    -3.072661307263

 ELECTRON ORBITALS
 =================


   Orb  Occ    Energy  Couls-En    Coefficients

                                   1 1s      1 1s      1 1s      1 1s      1 1s      1 1s      1 1s      1 3d0     1 3d2+    1 3d0  
                                   1 3d2+    1 3d0     1 3d2+    1 3d0     1 3d2+    1 3d0     1 3d2+    1 3d0     1 3d2+    1 5g0  
                                   1 5g4+    1 5g2+    1 5g0     1 5g4+    1 5g2+    1 5g0     1 5g4+    1 5g2+    1 5g0     1 5g4+ 
                                   1 5g2+    1 7i6+    1 7i4+    1 7i2+    1 7i0     1 7i6+    1 7i4+    1 7i2+    1 7i0  

   1.1   2    -0.7072   -2.9683  1.000203  0.000458 -0.000686  0.000317 -0.000244  0.000027  0.000024  0.000000  0.000000  0.000000
                                 0.000000  0.000000  0.000000  0.000000  0.000000  0.000000  0.000000  0.000000  0.000000  0.000000
                                 0.000000  0.000000  0.000000  0.000000  0.000000  0.000000  0.000000  0.000000  0.000000  0.000000
                                 0.000000  0.000000  0.000000  0.000000  0.000000  0.000000  0.000000  0.000000  0.000000

                                   1 2px     1 2px     1 2px     1 2px     1 2px     1 2px     1 2px     1 4f1+    1 4f3+    1 4f1+ 
                                   1 4f3+    1 4f1+    1 4f3+    1 4f1+    1 4f3+    1 4f1+    1 4f3+    1 6h1+    1 6h3+    1 6h5+ 
                                   1 6h1+    1 6h3+    1 6h5+    1 6h1+    1 6h3+    1 6h5+ 

   1.2   +    -0.0598   -1.9705  1.000040  0.000096 -0.000186  0.000177 -0.000144  0.000117 -0.000093  0.000000  0.000000  0.000000
                                 0.000000  0.000000  0.000000  0.000000  0.000000  0.000000  0.000000  0.000000  0.000000  0.000000
                                 0.000000  0.000000  0.000000  0.000000  0.000000  0.000000

                                   1 2py     1 2py     1 2py     1 2py     1 2py     1 2py     1 2py     1 4f1-    1 4f3-    1 4f1- 
                                   1 4f3-    1 4f1-    1 4f3-    1 4f1-    1 4f3-    1 4f1-    1 4f3-    1 6h1-    1 6h3-    1 6h5- 
                                   1 6h1-    1 6h3-    1 6h5-    1 6h1-    1 6h3-    1 6h5- 

   1.3   +    -0.0598   -1.9705  1.000040  0.000096 -0.000186  0.000177 -0.000144  0.000117 -0.000093  0.000000  0.000000  0.000000
                                 0.000000  0.000000  0.000000  0.000000  0.000000  0.000000  0.000000  0.000000  0.000000  0.000000
                                 0.000000  0.000000  0.000000  0.000000  0.000000  0.000000

 HOMO      1.2    -0.059822 =      -1.6278eV
 LUMO      1.5    -0.059822 =      -1.6278eV
 LUMO-HOMO        -0.000000 =      -0.0000eV


 **********************************************************************************************************************************
 DATASETS  * FILE   NREC   LENGTH (MB)   RECORD NAMES
              1      21       97.11       500      610      700      900      950      970     1000      129      960     1100   
                                          VAR    BASINP    GEOM    SYMINP    ZMAT    AOBASIS   BASIS     P2S    ABASIS      S 
                                         1400     1410     1420     1200     1210     1080     1600     1650     1300     1700   
                                         EKIN       V       ECP      H0       H01     AOSYM     SMH    MOLCAS    ERIS     OPER   
                                         1380   
                                         JKOP   

              2       6        8.31       700     1000      520     4202     5202     2101   
                                         GEOM     BASIS   MCVARS     RHF     MCSCF     RHF  

 PROGRAMS   *        TOTAL       RHF     MULTI       RHF       INT
 CPU TIMES  *         9.41      0.08      0.73      0.71      7.74
 REAL TIME  *        30.42 SEC
 DISK USED  *       302.86 MB      
 **********************************************************************************************************************************
 SETTING SCF(I)         =        -5.31424799  AU                              
 SETTING _CC_NORM_MAX   =         2.00000000                                  


 PROGRAM * CCSD (Unrestricted open-shell coupled cluster)     Authors: C. Hampel, H.-J. Werner, 1991, M. Deegan, P.J. Knowles, 1992


 Convergence thresholds:  THRVAR = 1.00D-08  THRDEN = 1.00D-06

 CCSD(T)     terms to be evaluated (factor= 1.000)


 Number of closed-shell orbitals:   1 (   1   0   0   0   0   0   0   0 )
 Number of active  orbitals:        2 (   0   1   1   0   0   0   0   0 )
 Number of external orbitals:     185 (  38  25  25  20  26  20  20  11 )

 Memory could be reduced to 7.92 Mwords without degradation in triples

 Number of N-1 electron functions:               4
 Number of N-2 electron functions:               6
 Number of singly external CSFs:               128
 Number of doubly external CSFs:             20403
 Total number of CSFs:                       20531

 Molecular orbitals read from record     2101.2  Type=RHF/CANONICAL (state 1.4)

 Integral transformation finished. Total CPU:   0.24 sec, npass=  1  Memory used:   1.07 MW

 Starting RMP2 calculation

 ITER.      SQ.NORM     CORR.ENERGY   TOTAL ENERGY   ENERGY CHANGE        DEN1      VAR(S)    VAR(P)  DIIS     TIME
   1      1.02960402    -0.08163578    -5.39588377    -0.08163578    -0.00047545  0.22D-04  0.19D-03  1  1     0.25
   2      1.03018782    -0.08217034    -5.39641833    -0.00053456    -0.00000215  0.40D-07  0.95D-06  2  2     0.25
   3      1.03021344    -0.08218581    -5.39643380    -0.00001547    -0.00000001  0.22D-09  0.60D-08  3  3     0.25
   4      1.03021417    -0.08218616    -5.39643415    -0.00000035    -0.00000000  0.17D-11  0.43D-10  4  4     0.25

 Norm of t1 vector:      0.04864776      S-energy:    -0.00367674      T1 diagnostic:  0.00167665
 Norm of t2 vector:      0.16687591      P-energy:    -0.07850942
                                         Alpha-Beta:  -0.06506611
                                         Alpha-Alpha: -0.01344331
                                         Beta-Beta:    0.00000000

 Spin contamination <S**2-Sz**2-Sz>     0.01392907
  Reference energy                     -5.314247993581
  RHF-RMP2 correlation energy          -0.082186159803
 !RHF-RMP2 energy                      -5.396434153384

 Starting UCCSD calculation

 ITER.      SQ.NORM     CORR.ENERGY   TOTAL ENERGY   ENERGY CHANGE        DEN1      VAR(S)    VAR(P)  DIIS     TIME
   1      1.04131050    -0.09116812    -5.40541611    -0.09116812    -0.00526566  0.19D-03  0.22D-02  1  1     0.51
   2      1.05155656    -0.09772190    -5.41196990    -0.00655378    -0.00040948  0.13D-04  0.19D-03  2  2     0.76
   3      1.05550088    -0.09933979    -5.41358778    -0.00161789    -0.00004107  0.30D-05  0.17D-04  3  3     1.00
   4      1.05655154    -0.09961452    -5.41386251    -0.00027473    -0.00000266  0.23D-06  0.11D-05  4  4     1.30
   5      1.05675070    -0.09966928    -5.41391727    -0.00005476    -0.00000012  0.90D-08  0.49D-07  5  5     1.56
   6      1.05675110    -0.09966672    -5.41391471     0.00000256    -0.00000001  0.43D-09  0.28D-08  6  6     1.83
   7      1.05675257    -0.09966719    -5.41391518    -0.00000047    -0.00000000  0.80D-10  0.31D-09  6  1     2.04

 Norm of t1 vector:      0.05709545      S-energy:    -0.00403966      T1 diagnostic:  0.00543896
                                                                       D1 diagnostic:  0.01000257
 Norm of t2 vector:      0.23128485      P-energy:    -0.09562753
                                         Alpha-Beta:  -0.08074610
                                         Alpha-Alpha: -0.01488143
                                         Beta-Beta:    0.00000000

 Doubles amplitudes (print threshold =  0.500E-01):

         I         J         SYM. A    SYM. B    A         B      T(IJ, AB) [Alpha-Beta]

         1         1         5         5         1         1     -0.13305319

 Spin contamination <S**2-Sz**2-Sz>     0.00173559

 Memory could be reduced to 7.99 Mwords without degradation in triples
 

 RESULTS
 =======

  Reference energy                     -5.314247993581
  UCCSD singles energy                 -0.004039659190
  UCCSD pair energy                    -0.095627530466
  UCCSD correlation energy             -0.099667189656
  Triples (T) contribution             -0.002726555031
  Total correlation energy             -0.102393744687
 
  RHF-UCCSD energy                     -5.413915183237
  RHF-UCCSD[T] energy                  -5.416585452190
  RHF-UCCSD-T energy                   -5.416647597239
 !RHF-UCCSD(T) energy                  -5.416641738268

 Program statistics:

 Available memory in ccsd:               511999798
 Min. memory needed in ccsd:                193126
 Max. memory used in ccsd:                  206353
 Max. memory used in cckext:                210990 ( 7 integral passes)
 Max. memory used in cckint:               1071895 ( 1 integral passes)



 **********************************************************************************************************************************
 DATASETS  * FILE   NREC   LENGTH (MB)   RECORD NAMES
              1      21       97.11       500      610      700      900      950      970     1000      129      960     1100   
                                          VAR    BASINP    GEOM    SYMINP    ZMAT    AOBASIS   BASIS     P2S    ABASIS      S 
                                         1400     1410     1420     1200     1210     1080     1600     1650     1300     1700   
                                         EKIN       V       ECP      H0       H01     AOSYM     SMH    MOLCAS    ERIS     OPER   
                                         1380   
                                         JKOP   

              2       6        8.31       700     1000      520     4202     5202     2101   
                                         GEOM     BASIS   MCVARS     RHF     MCSCF     RHF  

 PROGRAMS   *        TOTAL  UCCSD(T)       RHF     MULTI       RHF       INT
 CPU TIMES  *        11.81      2.39      0.08      0.73      0.71      7.74
 REAL TIME  *        34.40 SEC
 DISK USED  *       302.86 MB      
 **********************************************************************************************************************************
 SETTING POSTHF(I)      =        -5.41664174  AU                              
                                                                                                                                                                                                                                                                

       SCF           POSTHF       EKIN          POT
    -5.31424799   -5.41664174   3.43467599   -3.07266131
                                                  

 UCCSD(T)/USERDEF energy=     -5.416641738268

        UCCSD(T)        MULTI           RHF-SCF 
     -5.41664174     -5.31424799     -5.31431979
 **********************************************************************************************************************************
 Variable memory released
