 Entering Gaussian System, Link 0=g16
 Initial command:
 /home1/apps/gaussian/16rA.03/g16/l1.exe "/tmp/Gau-335060.inp" -scrdir="/tmp/"
 Entering Link 1 = /home1/apps/gaussian/16rA.03/g16/l1.exe PID=    335061.
  
 Copyright (c) 1988,1990,1992,1993,1995,1998,2003,2009,2016,
            Gaussian, Inc.  All Rights Reserved.
  
 This is part of the Gaussian(R) 16 program.  It is based on
 the Gaussian(R) 09 system (copyright 2009, Gaussian, Inc.),
 the Gaussian(R) 03 system (copyright 2003, Gaussian, Inc.),
 the Gaussian(R) 98 system (copyright 1998, Gaussian, Inc.),
 the Gaussian(R) 94 system (copyright 1995, Gaussian, Inc.),
 the Gaussian 92(TM) system (copyright 1992, Gaussian, Inc.),
 the Gaussian 90(TM) system (copyright 1990, Gaussian, Inc.),
 the Gaussian 88(TM) system (copyright 1988, Gaussian, Inc.),
 the Gaussian 86(TM) system (copyright 1986, Carnegie Mellon
 University), and the Gaussian 82(TM) system (copyright 1983,
 Carnegie Mellon University). Gaussian is a federally registered
 trademark of Gaussian, Inc.
  
 This software contains proprietary and confidential information,
 including trade secrets, belonging to Gaussian, Inc.
  
 This software is provided under written license and may be
 used, copied, transmitted, or stored only in accord with that
 written license.
  
 The following legend is applicable only to US Government
 contracts under FAR:
  
                    RESTRICTED RIGHTS LEGEND
  
 Use, reproduction and disclosure by the US Government is
 subject to restrictions as set forth in subparagraphs (a)
 and (c) of the Commercial Computer Software - Restricted
 Rights clause in FAR 52.227-19.
  
 Gaussian, Inc.
 340 Quinnipiac St., Bldg. 40, Wallingford CT 06492
  
  
 ---------------------------------------------------------------
 Warning -- This program may not be used in any manner that
 competes with the business of Gaussian, Inc. or will provide
 assistance to any competitor of Gaussian, Inc.  The licensee
 of this program is prohibited from giving any competitor of
 Gaussian, Inc. access to this program.  By using this program,
 the user acknowledges that Gaussian, Inc. is engaged in the
 business of creating and licensing software in the field of
 computational chemistry and represents and warrants to the
 licensee that it is not a competitor of Gaussian, Inc. and that
 it will not use this program in any manner prohibited above.
 ---------------------------------------------------------------
  

 Cite this work as:
 Gaussian 16, Revision A.03,
 M. J. Frisch, G. W. Trucks, H. B. Schlegel, G. E. Scuseria, 
 M. A. Robb, J. R. Cheeseman, G. Scalmani, V. Barone, 
 G. A. Petersson, H. Nakatsuji, X. Li, M. Caricato, A. V. Marenich, 
 J. Bloino, B. G. Janesko, R. Gomperts, B. Mennucci, H. P. Hratchian, 
 J. V. Ortiz, A. F. Izmaylov, J. L. Sonnenberg, D. Williams-Young, 
 F. Ding, F. Lipparini, F. Egidi, J. Goings, B. Peng, A. Petrone, 
 T. Henderson, D. Ranasinghe, V. G. Zakrzewski, J. Gao, N. Rega, 
 G. Zheng, W. Liang, M. Hada, M. Ehara, K. Toyota, R. Fukuda, 
 J. Hasegawa, M. Ishida, T. Nakajima, Y. Honda, O. Kitao, H. Nakai, 
 T. Vreven, K. Throssell, J. A. Montgomery, Jr., J. E. Peralta, 
 F. Ogliaro, M. J. Bearpark, J. J. Heyd, E. N. Brothers, K. N. Kudin, 
 V. N. Staroverov, T. A. Keith, R. Kobayashi, J. Normand, 
 K. Raghavachari, A. P. Rendell, J. C. Burant, S. S. Iyengar, 
 J. Tomasi, M. Cossi, J. M. Millam, M. Klene, C. Adamo, R. Cammi, 
 J. W. Ochterski, R. L. Martin, K. Morokuma, O. Farkas, 
 J. B. Foresman, and D. J. Fox, Gaussian, Inc., Wallingford CT, 2016.
 
 ******************************************
 Gaussian 16:  ES64L-G16RevA.03 25-Dec-2016
                16-Dec-2018 
 ******************************************
 %MEM=80GB
 %CPU=0-15
 SetSPE:  set environment variable "MP_BIND" = "yes"
 SetSPE:  set environment variable "MP_BLIST" = "0,1,2,3,4,5,6,7,8,9,10,11,12,13,14,15"
 Will use up to   16 processors via shared memory.
 %RWF=/scratch/04843/aannabe/gaussian/
 %Int=/scratch/04843/aannabe/gaussian/
 %D2E=/scratch/04843/aannabe/gaussian/
 %NoSave
 %CHK=Fe
 ----------------------------------------------------------------------
 #P ROHF/Gen 5d 7f SCF=(maxcycles=300, VShift=100) GFPRINT Pop=(Full,NO
 ) Pseudo=Read Guess=Read IOp(5/15=2)
 ----------------------------------------------------------------------
 1/38=1,172=1/1;
 2/12=2,17=6,18=5,40=1/2;
 3/5=7,8=11,11=2,16=1,17=8,24=100,25=1,30=1,116=101/1,2,3;
 4/5=1/1;
 5/5=2,7=300,10=100,15=2,38=6/2;
 6/7=3,22=-1,28=1,31=1/1;
 99/5=1,9=1/99;
 Leave Link    1 at Sun Dec 16 00:02:37 2018, MaxMem= 10737418240 cpu:               3.7 elap:               0.3
 (Enter /home1/apps/gaussian/16rA.03/g16/l101.exe)
 --
 Fe
 --
 Symbolic Z-matrix:
 Charge =  0 Multiplicity = 5
 Fe                    0.        0.        0. 
 
 ITRead=  0
 MicOpt= -1
 NAtoms=      1 NQM=        1 NQMF=       0 NMMI=      0 NMMIF=      0
                NMic=       0 NMicF=      0.
                    Isotopes and Nuclear Properties:
 (Nuclear quadrupole moments (NQMom) in fm**2, nuclear magnetic moments (NMagM)
  in nuclear magnetons)

  Atom         1
 IAtWgt=          56
 AtmWgt=  55.9349393
 NucSpn=           0
 AtZEff=  -0.0000000
 NQMom=    0.0000000
 NMagM=    0.0000000
 AtZNuc=  26.0000000
 Leave Link  101 at Sun Dec 16 00:02:38 2018, MaxMem= 10737418240 cpu:               1.4 elap:               0.1
 (Enter /home1/apps/gaussian/16rA.03/g16/l202.exe)
                          Input orientation:                          
 ---------------------------------------------------------------------
 Center     Atomic      Atomic             Coordinates (Angstroms)
 Number     Number       Type             X           Y           Z
 ---------------------------------------------------------------------
      1         26           0        0.000000    0.000000    0.000000
 ---------------------------------------------------------------------
 Stoichiometry    Fe(5)
 Framework group  OH[O(Fe)]
 Deg. of freedom     0
 Full point group                 OH      NOp  48
 Largest Abelian subgroup         D2H     NOp   8
 Largest concise Abelian subgroup C1      NOp   1
                         Standard orientation:                         
 ---------------------------------------------------------------------
 Center     Atomic      Atomic             Coordinates (Angstroms)
 Number     Number       Type             X           Y           Z
 ---------------------------------------------------------------------
      1         26           0        0.000000    0.000000    0.000000
 ---------------------------------------------------------------------
 Leave Link  202 at Sun Dec 16 00:02:38 2018, MaxMem= 10737418240 cpu:               1.4 elap:               0.1
 (Enter /home1/apps/gaussian/16rA.03/g16/l301.exe)
 General basis read from cards:  (5D, 7F)
 Centers:       1
 S 13 1.0
     Exponent=  8.4322332000D+01 Coefficients=  7.8500000000D-04
     Exponent=  4.4203528000D+01 Coefficients= -1.2781000000D-02
     Exponent=  2.3288963000D+01 Coefficients=  1.0463500000D-01
     Exponent=  1.3385163000D+01 Coefficients= -1.1938500000D-01
     Exponent=  7.5180520000D+00 Coefficients= -3.3980400000D-01
     Exponent=  4.1018350000D+00 Coefficients= -4.9994000000D-02
     Exponent=  2.2535710000D+00 Coefficients=  4.7695500000D-01
     Exponent=  1.1349240000D+00 Coefficients=  5.9322200000D-01
     Exponent=  5.6155000000D-01 Coefficients=  2.0015100000D-01
     Exponent=  2.0196100000D-01 Coefficients=  8.5910000000D-03
     Exponent=  1.0869800000D-01 Coefficients= -2.1880000000D-03
     Exponent=  5.3619000000D-02 Coefficients=  6.7700000000D-04
     Exponent=  2.5823000000D-02 Coefficients= -1.4400000000D-04
 S 13 1.0
     Exponent=  8.4322332000D+01 Coefficients= -1.6200000000D-04
     Exponent=  4.4203528000D+01 Coefficients=  2.9210000000D-03
     Exponent=  2.3288963000D+01 Coefficients= -2.5466000000D-02
     Exponent=  1.3385163000D+01 Coefficients=  3.1182000000D-02
     Exponent=  7.5180520000D+00 Coefficients=  8.6849000000D-02
     Exponent=  4.1018350000D+00 Coefficients=  6.8460000000D-03
     Exponent=  2.2535710000D+00 Coefficients= -1.3185600000D-01
     Exponent=  1.1349240000D+00 Coefficients= -2.2774600000D-01
     Exponent=  5.6155000000D-01 Coefficients= -1.7307900000D-01
     Exponent=  2.0196100000D-01 Coefficients=  1.3614200000D-01
     Exponent=  1.0869800000D-01 Coefficients=  4.3401300000D-01
     Exponent=  5.3619000000D-02 Coefficients=  4.7755500000D-01
     Exponent=  2.5823000000D-02 Coefficients=  1.2880400000D-01
 S 13 1.0
     Exponent=  8.4322332000D+01 Coefficients=  2.0000000000D-06
     Exponent=  4.4203528000D+01 Coefficients=  4.1030000000D-03
     Exponent=  2.3288963000D+01 Coefficients= -4.6840000000D-02
     Exponent=  1.3385163000D+01 Coefficients=  5.2833000000D-02
     Exponent=  7.5180520000D+00 Coefficients=  2.1809400000D-01
     Exponent=  4.1018350000D+00 Coefficients= -4.4999000000D-02
     Exponent=  2.2535710000D+00 Coefficients= -2.8738600000D-01
     Exponent=  1.1349240000D+00 Coefficients= -7.1322000000D-01
     Exponent=  5.6155000000D-01 Coefficients=  2.4917400000D-01
     Exponent=  2.0196100000D-01 Coefficients=  1.2998720000D+00
     Exponent=  1.0869800000D-01 Coefficients=  1.9211900000D-01
     Exponent=  5.3619000000D-02 Coefficients= -6.5861600000D-01
     Exponent=  2.5823000000D-02 Coefficients= -5.2104700000D-01
 S 13 1.0
     Exponent=  8.4322332000D+01 Coefficients=  1.2000000000D-05
     Exponent=  4.4203528000D+01 Coefficients=  7.5980000000D-03
     Exponent=  2.3288963000D+01 Coefficients= -9.4133000000D-02
     Exponent=  1.3385163000D+01 Coefficients=  1.2765500000D-01
     Exponent=  7.5180520000D+00 Coefficients=  4.3559800000D-01
     Exponent=  4.1018350000D+00 Coefficients= -1.4791100000D-01
     Exponent=  2.2535710000D+00 Coefficients= -1.0844770000D+00
     Exponent=  1.1349240000D+00 Coefficients= -8.8700300000D-01
     Exponent=  5.6155000000D-01 Coefficients=  2.4499460000D+00
     Exponent=  2.0196100000D-01 Coefficients=  1.6797600000D-01
     Exponent=  1.0869800000D-01 Coefficients= -2.1146680000D+00
     Exponent=  5.3619000000D-02 Coefficients=  4.5257900000D-01
     Exponent=  2.5823000000D-02 Coefficients=  8.0144400000D-01
 S 13 1.0
     Exponent=  8.4322332000D+01 Coefficients=  3.3010000000D-03
     Exponent=  4.4203528000D+01 Coefficients= -2.9197000000D-02
     Exponent=  2.3288963000D+01 Coefficients=  2.1322700000D-01
     Exponent=  1.3385163000D+01 Coefficients= -4.0810900000D-01
     Exponent=  7.5180520000D+00 Coefficients= -3.8565100000D-01
     Exponent=  4.1018350000D+00 Coefficients=  1.6809300000D-01
     Exponent=  2.2535710000D+00 Coefficients=  3.1025290000D+00
     Exponent=  1.1349240000D+00 Coefficients= -3.3604460000D+00
     Exponent=  5.6155000000D-01 Coefficients= -5.3161900000D-01
     Exponent=  2.0196100000D-01 Coefficients=  4.4939810000D+00
     Exponent=  1.0869800000D-01 Coefficients= -3.6897500000D+00
     Exponent=  5.3619000000D-02 Coefficients= -5.1060400000D-01
     Exponent=  2.5823000000D-02 Coefficients=  1.3010210000D+00
 S 13 1.0
     Exponent=  8.4322332000D+01 Coefficients= -1.2980000000D-03
     Exponent=  4.4203528000D+01 Coefficients= -5.5380000000D-03
     Exponent=  2.3288963000D+01 Coefficients=  1.8408000000D-01
     Exponent=  1.3385163000D+01 Coefficients= -3.3916500000D-01
     Exponent=  7.5180520000D+00 Coefficients= -1.4608390000D+00
     Exponent=  4.1018350000D+00 Coefficients=  3.3823030000D+00
     Exponent=  2.2535710000D+00 Coefficients=  8.4327700000D-01
     Exponent=  1.1349240000D+00 Coefficients= -7.0173710000D+00
     Exponent=  5.6155000000D-01 Coefficients=  7.2913720000D+00
     Exponent=  2.0196100000D-01 Coefficients= -4.2466800000D+00
     Exponent=  1.0869800000D-01 Coefficients=  8.9576000000D-02
     Exponent=  5.3619000000D-02 Coefficients=  3.2269240000D+00
     Exponent=  2.5823000000D-02 Coefficients= -1.9297190000D+00
 S 1 1.0
     Exponent=  2.5823000000D-02 Coefficients=  1.0000000000D+00
 S 1 1.0
     Exponent=  3.4053860000D+00 Coefficients=  1.0000000000D+00
 P 13 1.0
     Exponent=  1.2509277500D+02 Coefficients=  5.6000000000D-05
     Exponent=  6.5211589000D+01 Coefficients= -5.7200000000D-04
     Exponent=  3.4437599000D+01 Coefficients=  7.3880000000D-03
     Exponent=  1.8930704000D+01 Coefficients= -2.8481000000D-02
     Exponent=  1.0873415000D+01 Coefficients= -6.3005000000D-02
     Exponent=  6.0121720000D+00 Coefficients=  2.4855000000D-02
     Exponent=  3.3722050000D+00 Coefficients=  2.7747400000D-01
     Exponent=  1.7686410000D+00 Coefficients=  4.2538600000D-01
     Exponent=  9.1451600000D-01 Coefficients=  3.1414500000D-01
     Exponent=  4.6089500000D-01 Coefficients=  9.0422000000D-02
     Exponent=  2.0449000000D-01 Coefficients=  6.9770000000D-03
     Exponent=  7.4741000000D-02 Coefficients=  1.1540000000D-03
     Exponent=  3.5671000000D-02 Coefficients=  3.0300000000D-04
 P 13 1.0
     Exponent=  1.2509277500D+02 Coefficients=  2.5000000000D-05
     Exponent=  6.5211589000D+01 Coefficients= -7.0000000000D-05
     Exponent=  3.4437599000D+01 Coefficients= -1.0420000000D-03
     Exponent=  1.8930704000D+01 Coefficients=  5.1270000000D-03
     Exponent=  1.0873415000D+01 Coefficients=  1.8404000000D-02
     Exponent=  6.0121720000D+00 Coefficients= -1.4692000000D-02
     Exponent=  3.3722050000D+00 Coefficients= -6.1307000000D-02
     Exponent=  1.7686410000D+00 Coefficients= -1.2863800000D-01
     Exponent=  9.1451600000D-01 Coefficients= -7.0637000000D-02
     Exponent=  4.6089500000D-01 Coefficients= -1.6314000000D-02
     Exponent=  2.0449000000D-01 Coefficients=  3.8070200000D-01
     Exponent=  7.4741000000D-02 Coefficients=  5.2307100000D-01
     Exponent=  3.5671000000D-02 Coefficients=  2.3576500000D-01
 P 13 1.0
     Exponent=  1.2509277500D+02 Coefficients= -1.9700000000D-04
     Exponent=  6.5211589000D+01 Coefficients=  1.2510000000D-03
     Exponent=  3.4437599000D+01 Coefficients= -9.1540000000D-03
     Exponent=  1.8930704000D+01 Coefficients=  3.8201000000D-02
     Exponent=  1.0873415000D+01 Coefficients=  4.3097000000D-02
     Exponent=  6.0121720000D+00 Coefficients= -2.9475000000D-02
     Exponent=  3.3722050000D+00 Coefficients= -4.2699600000D-01
     Exponent=  1.7686410000D+00 Coefficients= -3.9484000000D-01
     Exponent=  9.1451600000D-01 Coefficients=  7.7230000000D-02
     Exponent=  4.6089500000D-01 Coefficients=  1.1198810000D+00
     Exponent=  2.0449000000D-01 Coefficients= -6.6494000000D-02
     Exponent=  7.4741000000D-02 Coefficients= -7.2158300000D-01
     Exponent=  3.5671000000D-02 Coefficients= -5.6950000000D-03
 P 13 1.0
     Exponent=  1.2509277500D+02 Coefficients=  2.6400000000D-04
     Exponent=  6.5211589000D+01 Coefficients= -1.0760000000D-03
     Exponent=  3.4437599000D+01 Coefficients= -2.5910000000D-03
     Exponent=  1.8930704000D+01 Coefficients=  3.5519000000D-02
     Exponent=  1.0873415000D+01 Coefficients=  1.1955400000D-01
     Exponent=  6.0121720000D+00 Coefficients= -2.0471400000D-01
     Exponent=  3.3722050000D+00 Coefficients= -7.6062700000D-01
     Exponent=  1.7686410000D+00 Coefficients= -2.6274000000D-01
     Exponent=  9.1451600000D-01 Coefficients=  1.7790300000D+00
     Exponent=  4.6089500000D-01 Coefficients= -4.6274200000D-01
     Exponent=  2.0449000000D-01 Coefficients= -1.2410300000D+00
     Exponent=  7.4741000000D-02 Coefficients=  9.4098700000D-01
     Exponent=  3.5671000000D-02 Coefficients=  8.3496000000D-02
 P 13 1.0
     Exponent=  1.2509277500D+02 Coefficients= -8.4000000000D-05
     Exponent=  6.5211589000D+01 Coefficients=  7.6800000000D-04
     Exponent=  3.4437599000D+01 Coefficients= -9.4850000000D-03
     Exponent=  1.8930704000D+01 Coefficients=  8.8062000000D-02
     Exponent=  1.0873415000D+01 Coefficients=  1.5619100000D-01
     Exponent=  6.0121720000D+00 Coefficients= -6.1916600000D-01
     Exponent=  3.3722050000D+00 Coefficients= -1.3855340000D+00
     Exponent=  1.7686410000D+00 Coefficients=  2.4921250000D+00
     Exponent=  9.1451600000D-01 Coefficients=  8.0760000000D-03
     Exponent=  4.6089500000D-01 Coefficients= -2.4995150000D+00
     Exponent=  2.0449000000D-01 Coefficients=  2.2655760000D+00
     Exponent=  7.4741000000D-02 Coefficients= -7.4834200000D-01
     Exponent=  3.5671000000D-02 Coefficients= -2.1159800000D-01
 P 13 1.0
     Exponent=  1.2509277500D+02 Coefficients= -2.5440000000D-03
     Exponent=  6.5211589000D+01 Coefficients=  1.3040000000D-02
     Exponent=  3.4437599000D+01 Coefficients= -3.9444000000D-02
     Exponent=  1.8930704000D+01 Coefficients= -2.4594000000D-02
     Exponent=  1.0873415000D+01 Coefficients= -5.2157100000D-01
     Exponent=  6.0121720000D+00 Coefficients=  2.7399930000D+00
     Exponent=  3.3722050000D+00 Coefficients= -1.7426490000D+00
     Exponent=  1.7686410000D+00 Coefficients= -2.8440060000D+00
     Exponent=  9.1451600000D-01 Coefficients=  5.8708260000D+00
     Exponent=  4.6089500000D-01 Coefficients= -4.9023060000D+00
     Exponent=  2.0449000000D-01 Coefficients=  2.1361760000D+00
     Exponent=  7.4741000000D-02 Coefficients= -1.2162600000D-01
     Exponent=  3.5671000000D-02 Coefficients= -4.8621900000D-01
 P 1 1.0
     Exponent=  3.5671000000D-02 Coefficients=  1.0000000000D+00
 P 1 1.0
     Exponent=  3.5241600000D+00 Coefficients=  1.0000000000D+00
 P 1 1.0
     Exponent=  8.8385020000D+00 Coefficients=  1.0000000000D+00
 D 11 1.0
     Exponent=  1.5273674200D+02 Coefficients=  2.9000000000D-05
     Exponent=  5.0772485000D+01 Coefficients=  5.2380000000D-03
     Exponent=  2.6253589000D+01 Coefficients=  2.9325000000D-02
     Exponent=  1.2137022000D+01 Coefficients=  7.4901000000D-02
     Exponent=  5.8537190000D+00 Coefficients=  1.6341100000D-01
     Exponent=  2.8562240000D+00 Coefficients=  2.5105700000D-01
     Exponent=  1.3861320000D+00 Coefficients=  2.8760300000D-01
     Exponent=  6.7080200000D-01 Coefficients=  2.5186200000D-01
     Exponent=  3.3028000000D-01 Coefficients=  1.8673600000D-01
     Exponent=  1.7090700000D-01 Coefficients=  9.3570000000D-02
     Exponent=  8.6794000000D-02 Coefficients=  7.3811000000D-02
 D 11 1.0
     Exponent=  1.5273674200D+02 Coefficients= -2.6000000000D-05
     Exponent=  5.0772485000D+01 Coefficients= -6.3290000000D-03
     Exponent=  2.6253589000D+01 Coefficients= -3.4398000000D-02
     Exponent=  1.2137022000D+01 Coefficients= -9.1765000000D-02
     Exponent=  5.8537190000D+00 Coefficients= -2.0159200000D-01
     Exponent=  2.8562240000D+00 Coefficients= -2.8393000000D-01
     Exponent=  1.3861320000D+00 Coefficients= -1.6198100000D-01
     Exponent=  6.7080200000D-01 Coefficients=  1.2882200000D-01
     Exponent=  3.3028000000D-01 Coefficients=  3.6016000000D-01
     Exponent=  1.7090700000D-01 Coefficients=  2.7759200000D-01
     Exponent=  8.6794000000D-02 Coefficients=  2.6140300000D-01
 D 11 1.0
     Exponent=  1.5273674200D+02 Coefficients=  5.1000000000D-05
     Exponent=  5.0772485000D+01 Coefficients=  8.7690000000D-03
     Exponent=  2.6253589000D+01 Coefficients=  4.7921000000D-02
     Exponent=  1.2137022000D+01 Coefficients=  1.3247500000D-01
     Exponent=  5.8537190000D+00 Coefficients=  2.9727900000D-01
     Exponent=  2.8562240000D+00 Coefficients=  2.7501800000D-01
     Exponent=  1.3861320000D+00 Coefficients= -2.2284200000D-01
     Exponent=  6.7080200000D-01 Coefficients= -6.1906700000D-01
     Exponent=  3.3028000000D-01 Coefficients= -7.6290000000D-02
     Exponent=  1.7090700000D-01 Coefficients=  2.5605600000D-01
     Exponent=  8.6794000000D-02 Coefficients=  5.4148200000D-01
 D 11 1.0
     Exponent=  1.5273674200D+02 Coefficients= -9.6000000000D-05
     Exponent=  5.0772485000D+01 Coefficients= -1.2144000000D-02
     Exponent=  2.6253589000D+01 Coefficients= -6.6971000000D-02
     Exponent=  1.2137022000D+01 Coefficients= -1.9602500000D-01
     Exponent=  5.8537190000D+00 Coefficients= -4.6900300000D-01
     Exponent=  2.8562240000D+00 Coefficients=  4.6560000000D-02
     Exponent=  1.3861320000D+00 Coefficients=  9.8594000000D-01
     Exponent=  6.7080200000D-01 Coefficients= -2.2043500000D-01
     Exponent=  3.3028000000D-01 Coefficients= -7.5248200000D-01
     Exponent=  1.7090700000D-01 Coefficients= -1.1112300000D-01
     Exponent=  8.6794000000D-02 Coefficients=  7.5310000000D-01
 D 11 1.0
     Exponent=  1.5273674200D+02 Coefficients= -3.2000000000D-05
     Exponent=  5.0772485000D+01 Coefficients= -1.6411000000D-02
     Exponent=  2.6253589000D+01 Coefficients= -8.1036000000D-02
     Exponent=  1.2137022000D+01 Coefficients= -2.9264100000D-01
     Exponent=  5.8537190000D+00 Coefficients= -5.7581900000D-01
     Exponent=  2.8562240000D+00 Coefficients=  1.1511560000D+00
     Exponent=  1.3861320000D+00 Coefficients=  1.6896300000D-01
     Exponent=  6.7080200000D-01 Coefficients= -1.4895450000D+00
     Exponent=  3.3028000000D-01 Coefficients=  7.4153600000D-01
     Exponent=  1.7090700000D-01 Coefficients=  9.7927900000D-01
     Exponent=  8.6794000000D-02 Coefficients= -1.0449050000D+00
 D 1 1.0
     Exponent=  8.6794000000D-02 Coefficients=  1.0000000000D+00
 D 1 1.0
     Exponent=  5.4977170000D+00 Coefficients=  1.0000000000D+00
 F 1 1.0
     Exponent=  3.3436700000D-01 Coefficients=  1.0000000000D+00
 F 1 1.0
     Exponent=  9.6565000000D-01 Coefficients=  1.0000000000D+00
 F 1 1.0
     Exponent=  2.7887930000D+00 Coefficients=  1.0000000000D+00
 F 1 1.0
     Exponent=  8.0540200000D+00 Coefficients=  1.0000000000D+00
 F 1 1.0
     Exponent=  4.2529840000D+00 Coefficients=  1.0000000000D+00
 G 1 1.0
     Exponent=  6.7344400000D-01 Coefficients=  1.0000000000D+00
 G 1 1.0
     Exponent=  1.9915500000D+00 Coefficients=  1.0000000000D+00
 G 1 1.0
     Exponent=  5.8895320000D+00 Coefficients=  1.0000000000D+00
 G 1 1.0
     Exponent=  4.7264580000D+00 Coefficients=  1.0000000000D+00
 H 1 1.0
     Exponent=  1.3448070000D+00 Coefficients=  1.0000000000D+00
 H 1 1.0
     Exponent=  4.3593710000D+00 Coefficients=  1.0000000000D+00
 H 1 1.0
     Exponent=  7.0085430000D+00 Coefficients=  1.0000000000D+00
 ****
 ======================================================================================================
                                       Pseudopotential Parameters
 ======================================================================================================
  Center     Atomic      Valence      Angular      Power
  Number     Number     Electrons     Momentum     of R      Exponent        Coefficient   SO-Coeffient
 ======================================================================================================
    1         26           16
                                      D and up 
                                                     1       23.2209171       16.00000000    0.00000000
                                                     3       23.5471468      371.53467418    0.00000000
                                                     2       23.4725634     -181.22603445    0.00000000
                                                     2        9.8523882       -2.37305236    0.00000000
                                      S - D
                                                     2       22.2106270      277.50032547    0.00000000
                                                     2        9.5151580       46.20495585    0.00000000
                                      P - D
                                                     2       24.5700087      194.99875057    0.00000000
                                                     2        8.8664878       31.67945133    0.00000000
 ======================================================================================================
 Ernie: Thresh=  0.10000D-02 Tol=  0.10000D-05 Strict=F.
 Ernie:  93 primitive shells out of 230 were deleted.
 AO basis set (Overlap normalization):
 Atom Fe1      Shell     1 S   7     bf    1 -     1          0.000000000000          0.000000000000          0.000000000000
      0.4420352800D+02 -0.1162782493D-02
      0.1338516300D+02  0.4067881159D-01
      0.4101835000D+01 -0.1359358431D+00
      0.2253571000D+01 -0.6980160873D+00
      0.1134924000D+01  0.6786516861D+00
      0.5615500000D+00  0.1278513447D+01
      0.2019610000D+00 -0.5010536100D+00
 Atom Fe1      Shell     2 S   7     bf    2 -     2          0.000000000000          0.000000000000          0.000000000000
      0.4420352800D+02 -0.4061004566D-04
      0.1338516300D+02  0.1489529706D-02
      0.4101835000D+01 -0.1208863668D-01
      0.1134924000D+01  0.5158411498D-01
      0.2019610000D+00 -0.7735460450D+00
      0.1086980000D+00 -0.2312010565D+00
      0.5361900000D-01  0.1575319397D+01
 Atom Fe1      Shell     3 S   7     bf    3 -     3          0.000000000000          0.000000000000          0.000000000000
      0.4420352800D+02 -0.7422097019D-04
      0.1338516300D+02  0.2705699591D-02
      0.4101835000D+01 -0.7307211528D-02
      0.1134924000D+01 -0.5041423245D-01
      0.5615500000D+00 -0.3206041563D+00
      0.2019610000D+00  0.4508701470D+00
      0.1086980000D+00  0.7881798192D+00
 Atom Fe1      Shell     4 S   7     bf    4 -     4          0.000000000000          0.000000000000          0.000000000000
      0.4420352800D+02  0.1842508232D-02
      0.1338516300D+02 -0.6049964848D-01
      0.7518052000D+01 -0.4818537531D-01
      0.4101835000D+01  0.5343740871D+00
      0.2253571000D+01  0.6533000001D+00
      0.1134924000D+01 -0.2209414770D+01
      0.2019610000D+00  0.1055814823D+01
 Atom Fe1      Shell     5 S   7     bf    5 -     5          0.000000000000          0.000000000000          0.000000000000
      0.8432233200D+02  0.1046809597D-02
      0.4420352800D+02 -0.1875444539D-01
      0.2328896300D+02  0.1713828087D+00
      0.1338516300D+02 -0.2309305326D+00
      0.7518052000D+01 -0.6277331945D+00
      0.4101835000D+01  0.2685324121D+00
      0.2253571000D+01  0.1230140091D+01
 Atom Fe1      Shell     6 S   7     bf    6 -     6          0.000000000000          0.000000000000          0.000000000000
      0.4420352800D+02 -0.6285322828D-02
      0.2328896300D+02  0.8026419444D-01
      0.1338516300D+02 -0.1146325203D+00
      0.7518052000D+01 -0.4042842983D+00
      0.4101835000D+01  0.3775067404D+00
      0.2253571000D+01  0.6473406610D+00
      0.2019610000D+00 -0.1078989003D+01
 Atom Fe1      Shell     7 S   1     bf    7 -     7          0.000000000000          0.000000000000          0.000000000000
      0.2582300000D-01  0.1000000000D+01
 Atom Fe1      Shell     8 S   1     bf    8 -     8          0.000000000000          0.000000000000          0.000000000000
      0.3405386000D+01  0.1000000000D+01
 Atom Fe1      Shell     9 P   7     bf    9 -    11          0.000000000000          0.000000000000          0.000000000000
      0.6521158900D+02 -0.1485395569D-04
      0.1893070400D+02  0.4566062588D-02
      0.6012172000D+01  0.1553611678D-01
      0.3372205000D+01 -0.2700678829D+00
      0.1768641000D+01  0.3052127541D-03
      0.9145160000D+00  0.9384646438D+00
      0.7474100000D-01  0.4395842685D+00
 Atom Fe1      Shell    10 P   7     bf   12 -    14          0.000000000000          0.000000000000          0.000000000000
      0.6521158900D+02 -0.1298361654D-04
      0.1893070400D+02  0.1682866386D-02
      0.6012172000D+01 -0.1632468753D-01
      0.1768641000D+01 -0.1023616061D+00
      0.4608950000D+00  0.5893243070D+00
      0.2044900000D+00  0.3243699695D+00
      0.7474100000D-01  0.2652373993D+00
 Atom Fe1      Shell    11 P   7     bf   15 -    17          0.000000000000          0.000000000000          0.000000000000
      0.6521158900D+02  0.5381445672D-05
      0.1893070400D+02  0.1345644973D-03
      0.6012172000D+01  0.2901210362D-03
      0.1768641000D+01 -0.1243698420D-01
      0.9145160000D+00  0.1378544317D+00
      0.2044900000D+00 -0.6304683628D+00
      0.7474100000D-01 -0.4918183907D+00
 Atom Fe1      Shell    12 P   7     bf   18 -    20          0.000000000000          0.000000000000          0.000000000000
      0.6521158900D+02  0.7196035149D-05
      0.1893070400D+02 -0.1657928078D-01
      0.1087341500D+02 -0.2437968989D-01
      0.6012172000D+01  0.2090890006D+00
      0.3372205000D+01  0.2126316430D+00
      0.1768641000D+01 -0.7811088010D+00
      0.7474100000D-01  0.9153507672D+00
 Atom Fe1      Shell    13 P   7     bf   21 -    23          0.000000000000          0.000000000000          0.000000000000
      0.6521158900D+02  0.4502684963D-03
      0.3443759900D+02 -0.1065425547D-01
      0.1893070400D+02  0.5858025445D-01
      0.1087341500D+02  0.1329286657D+00
      0.6012172000D+01 -0.2221786642D+00
      0.3372205000D+01 -0.7035410575D+00
      0.1768641000D+01 -0.2265239159D+00
 Atom Fe1      Shell    14 P   7     bf   24 -    26          0.000000000000          0.000000000000          0.000000000000
      0.1250927750D+03 -0.3689337234D-03
      0.6521158900D+02  0.2032547715D-02
      0.3443759900D+02 -0.8787431521D-02
      0.1893070400D+02 -0.2364496002D-02
      0.1087341500D+02 -0.5641889397D-01
      0.6012172000D+01  0.4607578569D+00
      0.1768641000D+01 -0.1225596688D+01
 Atom Fe1      Shell    15 P   1     bf   27 -    29          0.000000000000          0.000000000000          0.000000000000
      0.3567100000D-01  0.1000000000D+01
 Atom Fe1      Shell    16 P   1     bf   30 -    32          0.000000000000          0.000000000000          0.000000000000
      0.3524160000D+01  0.1000000000D+01
 Atom Fe1      Shell    17 P   1     bf   33 -    35          0.000000000000          0.000000000000          0.000000000000
      0.8838502000D+01  0.1000000000D+01
 Atom Fe1      Shell    18 D   7     bf   36 -    40          0.000000000000          0.000000000000          0.000000000000
      0.1527367420D+03 -0.1235709768D-04
      0.2625358900D+02 -0.5285203299D-03
      0.5853719000D+01 -0.1755179216D-01
      0.2856224000D+01 -0.6499058066D-01
      0.1386132000D+01  0.4760208866D+00
      0.6708020000D+00  0.6828796761D+00
      0.1709070000D+00 -0.1921677415D+00
 Atom Fe1      Shell    19 D   6     bf   41 -    45          0.000000000000          0.000000000000          0.000000000000
      0.1527367420D+03  0.3321275445D-05
      0.2625358900D+02  0.3407537273D-03
      0.5853719000D+01 -0.1104480655D-01
      0.1386132000D+01  0.1676132912D+00
      0.3302800000D+00  0.3884891948D+00
      0.1709070000D+00  0.5899305193D+00
 Atom Fe1      Shell    20 D   7     bf   46 -    50          0.000000000000          0.000000000000          0.000000000000
      0.1527367420D+03 -0.1752431854D-05
      0.2625358900D+02  0.1654354247D-02
      0.1213702200D+02 -0.1440672099D-01
      0.5853719000D+01 -0.3402140178D-01
      0.2856224000D+01  0.4463702341D+00
      0.1386132000D+01  0.6110584761D+00
      0.1709070000D+00  0.1006934246D+00
 Atom Fe1      Shell    21 D   7     bf   51 -    55          0.000000000000          0.000000000000          0.000000000000
      0.1527367420D+03 -0.1426996293D-04
      0.2625358900D+02 -0.1130842353D-02
      0.5853719000D+01 -0.9195763921D-02
      0.1386132000D+01  0.7871027284D-01
      0.6708020000D+00 -0.2711384896D+00
      0.3302800000D+00 -0.5552799898D+00
      0.1709070000D+00 -0.3038991180D+00
 Atom Fe1      Shell    22 D   7     bf   56 -    60          0.000000000000          0.000000000000          0.000000000000
      0.1527367420D+03 -0.7650365023D-04
      0.5077248500D+02 -0.1416310638D-01
      0.2625358900D+02 -0.7740206685D-01
      0.1213702200D+02 -0.2138984068D+00
      0.5853719000D+01 -0.4755421092D+00
      0.2856224000D+01 -0.3710826196D+00
      0.1709070000D+00  0.3897479068D-01
 Atom Fe1      Shell    23 D   1     bf   61 -    65          0.000000000000          0.000000000000          0.000000000000
      0.8679400000D-01  0.1000000000D+01
 Atom Fe1      Shell    24 D   1     bf   66 -    70          0.000000000000          0.000000000000          0.000000000000
      0.5497717000D+01  0.1000000000D+01
 Atom Fe1      Shell    25 F   1     bf   71 -    77          0.000000000000          0.000000000000          0.000000000000
      0.3343670000D+00  0.1000000000D+01
 Atom Fe1      Shell    26 F   1     bf   78 -    84          0.000000000000          0.000000000000          0.000000000000
      0.9656500000D+00  0.1000000000D+01
 Atom Fe1      Shell    27 F   1     bf   85 -    91          0.000000000000          0.000000000000          0.000000000000
      0.2788793000D+01  0.1000000000D+01
 Atom Fe1      Shell    28 F   1     bf   92 -    98          0.000000000000          0.000000000000          0.000000000000
      0.8054020000D+01  0.1000000000D+01
 Atom Fe1      Shell    29 F   1     bf   99 -   105          0.000000000000          0.000000000000          0.000000000000
      0.4252984000D+01  0.1000000000D+01
 Atom Fe1      Shell    30 G   1     bf  106 -   114          0.000000000000          0.000000000000          0.000000000000
      0.6734440000D+00  0.1000000000D+01
 Atom Fe1      Shell    31 G   1     bf  115 -   123          0.000000000000          0.000000000000          0.000000000000
      0.1991550000D+01  0.1000000000D+01
 Atom Fe1      Shell    32 G   1     bf  124 -   132          0.000000000000          0.000000000000          0.000000000000
      0.5889532000D+01  0.1000000000D+01
 Atom Fe1      Shell    33 G   1     bf  133 -   141          0.000000000000          0.000000000000          0.000000000000
      0.4726458000D+01  0.1000000000D+01
 Atom Fe1      Shell    34 H   1     bf  142 -   152          0.000000000000          0.000000000000          0.000000000000
      0.1344807000D+01  0.1000000000D+01
 Atom Fe1      Shell    35 H   1     bf  153 -   163          0.000000000000          0.000000000000          0.000000000000
      0.4359371000D+01  0.1000000000D+01
 Atom Fe1      Shell    36 H   1     bf  164 -   174          0.000000000000          0.000000000000          0.000000000000
      0.7008543000D+01  0.1000000000D+01
 There are    53 symmetry adapted cartesian basis functions of AG  symmetry.
 There are    19 symmetry adapted cartesian basis functions of B1G symmetry.
 There are    19 symmetry adapted cartesian basis functions of B2G symmetry.
 There are    19 symmetry adapted cartesian basis functions of B3G symmetry.
 There are    14 symmetry adapted cartesian basis functions of AU  symmetry.
 There are    42 symmetry adapted cartesian basis functions of B1U symmetry.
 There are    42 symmetry adapted cartesian basis functions of B2U symmetry.
 There are    42 symmetry adapted cartesian basis functions of B3U symmetry.
 There are    34 symmetry adapted basis functions of AG  symmetry.
 There are    15 symmetry adapted basis functions of B1G symmetry.
 There are    15 symmetry adapted basis functions of B2G symmetry.
 There are    15 symmetry adapted basis functions of B3G symmetry.
 There are    11 symmetry adapted basis functions of AU  symmetry.
 There are    28 symmetry adapted basis functions of B1U symmetry.
 There are    28 symmetry adapted basis functions of B2U symmetry.
 There are    28 symmetry adapted basis functions of B3U symmetry.
   174 basis functions,   568 primitive gaussians,   250 cartesian basis functions
    10 alpha electrons        6 beta electrons
       nuclear repulsion energy         0.0000000000 Hartrees.
 IExCor=    0 DFT=F Ex=HF Corr=None ExCW=0 ScaHFX=  1.000000
 ScaDFX=  1.000000  1.000000  1.000000  1.000000 ScalE2=  1.000000  1.000000
 IRadAn=      5 IRanWt=     -1 IRanGd=            0 ICorTp=0 IEmpDi=  4
 NAtoms=    1 NActive=    1 NUniq=    1 SFac= 1.00D+00 NAtFMM=   60 NAOKFM=F Big=F
 Integral buffers will be    131072 words long.
 Raffenetti 2 integral format.
 Two-electron integral symmetry is turned on.
 Leave Link  301 at Sun Dec 16 00:02:38 2018, MaxMem= 10737418240 cpu:               2.4 elap:               0.2
 (Enter /home1/apps/gaussian/16rA.03/g16/l302.exe)
 NPDir=0 NMtPBC=     1 NCelOv=     1 NCel=       1 NClECP=     1 NCelD=      1
         NCelK=      1 NCelE2=     1 NClLst=     1 CellRange=     0.0.
 One-electron integrals computed using PRISM.
 One-electron integral symmetry used in STVInt
  48 Symmetry operations used in ECPInt.
 ECPInt:  NShTT=     666 NPrTT=    9804 LenC2=     667 LenP2D=    9804.
 LDataN:  DoStor=T MaxTD1=10 Len=  848
 NBasis=   174 RedAO= T EigKep=  3.47D-04  NBF=    34    15    15    15    11    28    28    28
 NBsUse=   174 1.00D-06 EigRej= -1.00D+00 NBFU=    34    15    15    15    11    28    28    28
 Leave Link  302 at Sun Dec 16 00:02:40 2018, MaxMem= 10737418240 cpu:              11.8 elap:               0.8
 (Enter /home1/apps/gaussian/16rA.03/g16/l303.exe)
 DipDrv:  MaxL=1.
 Leave Link  303 at Sun Dec 16 00:02:40 2018, MaxMem= 10737418240 cpu:               0.9 elap:               0.1
 (Enter /home1/apps/gaussian/16rA.03/g16/l401.exe)
 Initial guess from the checkpoint file:  "Fe.chk"
 B after Tr=     0.000000    0.000000    0.000000
         Rot=    1.000000    0.000000    0.000000    0.000000 Ang=   0.00 deg.
 Guess basis will be translated and rotated to current coordinates.
 JPrj=2 DoOrth=T DoCkMO=T.
 Initial guess orbital symmetries:
       Occupied  (A1G) (T1U) (T1U) (T1U) (?A) (?A) (T2G) (?A) (T2G)
                 (T2G)
       Virtual   (?B) (?B) (?B) (A1G) (?B) (?B) (?B) (?A) (T2G)
                 (T2G) (T2G) (?A) (?A) (?B) (?B) (?B) (T2G) (?A)
                 (?A) (T2G) (T2G) (?A) (?B) (?B) (?B) (A2U) (?B)
                 (?B) (?B) (T1U) (T1U) (T1U) (?C) (?A) (?A) (?C)
                 (?C) (?A) (?C) (?C) (?C) (?A) (?C) (?C) (?C) (?A)
                 (?A) (?D) (?D) (?D) (A2U) (?D) (?D) (?D) (?D)
                 (?D) (?D) (T2G) (?A) (T2G) (T2G) (?A) (?E) (?E)
                 (?E) (EU) (?E) (?E) (?E) (EU) (?E) (?E) (?E) (?F)
                 (?F) (A2U) (?F) (?F) (?F) (?F) (T2G) (?F) (?F)
                 (?F) (T2G) (?F) (?F) (?F) (T2G) (T2G) (T1U) (T1U)
                 (T1U) (T2G) (T2G) (T2G) (T2G) (T2G) (?F) (?F)
                 (A2U) (?F) (?F) (?F) (?F) (T2G) (?F) (?F) (?F)
                 (T2G) (?F) (?F) (?F) (T2G) (?F) (?F) (EU) (?F)
                 (?F) (?F) (?F) (EU) (?F) (?F) (?F) (T1U) (T1U)
                 (T1U) (?F) (?F) (?F) (?F) (?F) (?F) (?F) (A2U)
                 (?F) (?F) (?F) (?F) (?F) (?F) (?F) (?F) (?F) (?F)
                 (?F) (?F) (?F) (?F) (?F) (EU) (?F) (?F) (?F) (EU)
                 (?F) (?F) (?F) (?F) (A1G) (T1U) (T1U) (T1U)
 Leave Link  401 at Sun Dec 16 00:02:40 2018, MaxMem= 10737418240 cpu:               3.3 elap:               0.3
 (Enter /home1/apps/gaussian/16rA.03/g16/l502.exe)
 Keep R1 and R2 ints in memory in symmetry-blocked form, NReq=182063933.
 FoFCou: FMM=F IPFlag=           0 FMFlag=           0 FMFlg1=           0
         NFxFlg=           0 DoJE=F BraDBF=F KetDBF=F FulRan=T
         wScrn=  0.000000 ICntrl=       600 IOpCl=  0 I1Cent=           0 NGrid=           0
         NMat0=    1 NMatS0=  15225 NMatT0=    0 NMatD0=    1 NMtDS0=    0 NMtDT0=    0
 Petite list used in FoFCou.
 Restricted open shell SCF:
 Using DIIS extrapolation, IDIIS=  1040.
 NGot= 10737418240 LenX= 10708032637 LenY= 10707969696
 Requested convergence on RMS density matrix=1.00D-08 within 300 cycles.
 Requested convergence on MAX density matrix=1.00D-06.
 Requested convergence on             energy=1.00D-06.
 Virtual orbitals will be shifted by   0.100 hartree.
 No special actions if energy rises.

 Cycle   1  Pass 1  IDiag  1:
 Density matrix breaks symmetry, PCut= 1.00D-07
 Density has only Abelian symmetry.
 E= -122.647184078935    
 DIIS: error= 1.62D-07 at cycle   1 NSaved=   1.
 NSaved= 1 IEnMin= 1 EnMin= -122.647184078935     IErMin= 1 ErrMin= 1.62D-07
 ErrMax= 1.62D-07  0.00D+00 EMaxC= 1.00D-01 BMatC= 9.20D-13 BMatP= 9.20D-13
 IDIUse=1 WtCom= 1.00D+00 WtEn= 0.00D+00
 Coeff-Com:  0.100D+01
 Coeff:      0.100D+01
 Gap=     0.139 Goal=   None    Shift=    0.100
 RMSDP=1.03D-08 MaxDP=5.05D-07              OVMax= 1.05D-06

 Cycle   2  Pass 1  IDiag  1:
 Density matrix breaks symmetry, PCut= 1.00D-07
 Density has only Abelian symmetry.
 E= -122.647184078935     Delta-E=       -0.000000000001 Rises=F Damp=F
 DIIS: error= 1.55D-07 at cycle   2 NSaved=   2.
 NSaved= 2 IEnMin= 2 EnMin= -122.647184078935     IErMin= 2 ErrMin= 1.55D-07
 ErrMax= 1.55D-07  0.00D+00 EMaxC= 1.00D-01 BMatC= 7.74D-13 BMatP= 9.20D-13
 IDIUse=1 WtCom= 1.00D+00 WtEn= 0.00D+00
 Coeff-Com:  0.475D+00 0.525D+00
 Coeff:      0.475D+00 0.525D+00
 Gap=     0.139 Goal=   None    Shift=    0.100
 RMSDP=3.24D-09 MaxDP=1.21D-07 DE=-7.11D-13 OVMax= 2.47D-07

 Density matrix breaks symmetry, PCut= 1.00D-07
 Density has only Abelian symmetry.
 SCF Done:  E(ROHF) =  -122.647184079     A.U. after    2 cycles
            NFock=  2  Conv=0.32D-08     -V/T= 2.7068
 <Sx>= 0.0000 <Sy>= 0.0000 <Sz>= 2.0000 <S**2>= 6.0000 S= 2.0000
 <L.S>=  0.00000000000    
 KE= 7.185922362671D+01 PE=-2.876632191805D+02 EE= 9.315681147488D+01
 Annihilation of the first spin contaminant:
 S**2 before annihilation     6.0000,   after     6.0000
 Leave Link  502 at Sun Dec 16 00:02:55 2018, MaxMem= 10737418240 cpu:             232.4 elap:              14.6
 (Enter /home1/apps/gaussian/16rA.03/g16/l601.exe)
 Copying SCF densities to generalized density rwf, IOpCl= 0 IROHF=1.
 SCF density gives NOpUse=  8 NOpAll= 48.
 Marking SCF density as not fully symmetric.

 **********************************************************************

            Population analysis using the SCF density.

 **********************************************************************

 Orbital symmetries:
       Occupied  (A1G) (T1U) (T1U) (T1U) (?A) (?A) (?A) (T2G) (T2G)
                 (T2G)
       Virtual   (?B) (?B) (?B) (A1G) (?B) (?B) (?B) (T2G) (?A)
                 (T2G) (T2G) (?A) (?A) (?B) (?B) (?B) (T2G) (?A)
                 (?A) (T2G) (T2G) (?A) (?B) (?B) (?B) (A2U) (?B)
                 (?B) (?B) (T1U) (T1U) (T1U) (?A) (?C) (?A) (?C)
                 (?C) (?C) (?A) (?C) (?C) (?A) (?C) (?C) (?C) (?A)
                 (?A) (?D) (?D) (?D) (A2U) (?D) (?D) (?D) (?D)
                 (?D) (?D) (?A) (T2G) (T2G) (T2G) (?A) (?E) (?E)
                 (EU) (?E) (?E) (?E) (?E) (EU) (?E) (?E) (?E) (?F)
                 (?F) (A2U) (?F) (?F) (?F) (?F) (T2G) (?F) (?F)
                 (?F) (T2G) (?F) (?F) (?F) (T2G) (T2G) (T1U) (T1U)
                 (T1U) (T2G) (T2G) (T2G) (T2G) (T2G) (?F) (?F)
                 (A2U) (?F) (?F) (?F) (?F) (T2G) (?F) (?F) (?F)
                 (T2G) (?F) (?F) (?F) (T2G) (?F) (?F) (EU) (?F)
                 (?F) (?F) (?F) (EU) (?F) (?F) (?F) (T1U) (T1U)
                 (T1U) (?F) (?F) (?F) (?F) (?F) (?F) (?F) (A2U)
                 (?F) (?F) (?F) (?F) (?F) (?F) (?F) (?F) (?F) (?F)
                 (?F) (?F) (?F) (?F) (?F) (EU) (?F) (?F) (?F) (?F)
                 (EU) (?F) (?F) (?F) (A1G) (T1U) (T1U) (T1U)
 Unable to determine electronic state:  an orbital has unidentified symmetry.
     Natural Orbital Coefficients:
                           1         2         3         4         5
     Eigenvalues --     2.00000   2.00000   2.00000   2.00000   2.00000
   1 1   Fe 1S         -0.00119   0.00000   0.00000   0.15781   0.00000
   2        2S          0.29862   0.00000   0.00000   0.05077   0.00000
   3        3S          0.63147   0.00000   0.00000   0.10376   0.00000
   4        4S          0.13864   0.00000   0.00000  -0.20035   0.00000
   5        5S         -0.27717   0.00000   0.00000   0.71374   0.00000
   6        6S          0.06211   0.00000   0.00000  -0.29131   0.00000
   7        7S          0.12637   0.00000   0.00000   0.02116   0.00000
   8        8S          0.00001   0.00000   0.00000   0.00001   0.00000
   9        9PX         0.00000   0.32612   0.00000   0.00000  -0.00000
  10        9PY         0.00000  -0.00000  -0.01818   0.00000   0.32494
  11        9PZ         0.00000   0.00000   0.32561   0.00000   0.01822
  12       10PX         0.00000   0.17890  -0.00000   0.00000   0.00000
  13       10PY         0.00000  -0.00000  -0.01025   0.00000   0.18322
  14       10PZ         0.00000   0.00000   0.17862   0.00000   0.00999
  15       11PX         0.00000   0.07771  -0.00000   0.00000   0.00000
  16       11PY         0.00000  -0.00000  -0.00438   0.00000   0.07823
  17       11PZ         0.00000   0.00000   0.07758   0.00000   0.00434
  18       12PX         0.00000  -0.16605  -0.00000   0.00000   0.00000
  19       12PY         0.00000   0.00000   0.00931   0.00000  -0.16641
  20       12PZ         0.00000  -0.00000  -0.16579   0.00000  -0.00928
  21       13PX         0.00000  -0.55948  -0.00000   0.00000   0.00000
  22       13PY         0.00000   0.00000   0.03126   0.00000  -0.55878
  23       13PZ         0.00000  -0.00000  -0.55861   0.00000  -0.03125
  24       14PX         0.00000  -0.14572   0.00000   0.00000  -0.00000
  25       14PY         0.00000  -0.00000   0.00805   0.00000  -0.14389
  26       14PZ         0.00000   0.00000  -0.14550   0.00000  -0.00814
  27       15PX         0.00000  -0.00001   0.00000   0.00000  -0.00000
  28       15PY         0.00000  -0.00000   0.00000   0.00000  -0.00001
  29       15PZ         0.00000  -0.00000  -0.00001   0.00000  -0.00000
  30       16PX         0.00000   0.00167  -0.00000   0.00000   0.00000
  31       16PY         0.00000   0.00000  -0.00005   0.00000   0.00096
  32       16PZ         0.00000  -0.00000   0.00166   0.00000   0.00009
  33       17PX         0.00000  -0.00041  -0.00000   0.00000  -0.00000
  34       17PY         0.00000  -0.00000   0.00001   0.00000  -0.00017
  35       17PZ         0.00000   0.00000  -0.00041   0.00000  -0.00002
  36       18D 0       -0.00056   0.00000   0.00000  -0.00205   0.00000
  37       18D+1       -0.00000   0.00000   0.00000  -0.00000   0.00000
  38       18D-1       -0.00000   0.00000   0.00000  -0.00000   0.00000
  39       18D+2       -0.00096   0.00000   0.00000  -0.00355   0.00000
  40       18D-2        0.00000   0.00000   0.00000   0.00000   0.00000
  41       19D 0        0.00222   0.00000   0.00000  -0.00048   0.00000
  42       19D+1       -0.00000   0.00000   0.00000  -0.00000   0.00000
  43       19D-1        0.00000   0.00000   0.00000   0.00000   0.00000
  44       19D+2        0.00385   0.00000   0.00000  -0.00084   0.00000
  45       19D-2        0.00000   0.00000   0.00000   0.00000   0.00000
  46       20D 0       -0.00157   0.00000   0.00000  -0.00003   0.00000
  47       20D+1       -0.00000   0.00000   0.00000  -0.00000   0.00000
  48       20D-1        0.00000   0.00000   0.00000  -0.00000   0.00000
  49       20D+2       -0.00273   0.00000   0.00000  -0.00005   0.00000
  50       20D-2        0.00000   0.00000   0.00000   0.00000   0.00000
  51       21D 0       -0.00259   0.00000   0.00000   0.00112   0.00000
  52       21D+1        0.00000   0.00000   0.00000   0.00000   0.00000
  53       21D-1       -0.00000   0.00000   0.00000   0.00000   0.00000
  54       21D+2       -0.00448   0.00000   0.00000   0.00194   0.00000
  55       21D-2       -0.00000   0.00000   0.00000  -0.00000   0.00000
  56       22D 0        0.00125   0.00000   0.00000   0.00166   0.00000
  57       22D+1        0.00000   0.00000   0.00000   0.00000   0.00000
  58       22D-1        0.00000   0.00000   0.00000  -0.00000   0.00000
  59       22D+2        0.00217   0.00000   0.00000   0.00287   0.00000
  60       22D-2       -0.00000   0.00000   0.00000  -0.00000   0.00000
  61       23D 0        0.00265   0.00000   0.00000   0.00031   0.00000
  62       23D+1       -0.00000   0.00000   0.00000  -0.00000   0.00000
  63       23D-1       -0.00000   0.00000   0.00000   0.00000   0.00000
  64       23D+2        0.00460   0.00000   0.00000   0.00054   0.00000
  65       23D-2        0.00000   0.00000   0.00000   0.00000   0.00000
  66       24D 0       -0.00003   0.00000   0.00000   0.00006   0.00000
  67       24D+1        0.00000   0.00000   0.00000   0.00000   0.00000
  68       24D-1        0.00000   0.00000   0.00000  -0.00000   0.00000
  69       24D+2       -0.00005   0.00000   0.00000   0.00010   0.00000
  70       24D-2        0.00000   0.00000   0.00000   0.00000   0.00000
  71       25F 0        0.00000   0.00000   0.00039   0.00000   0.00002
  72       25F+1        0.00000   0.00016  -0.00000   0.00000  -0.00000
  73       25F-1        0.00000   0.00000   0.00005   0.00000  -0.00096
  74       25F+2        0.00000   0.00000   0.00050   0.00000   0.00003
  75       25F-2        0.00000  -0.00000   0.00000   0.00000   0.00000
  76       25F+3        0.00000   0.00061  -0.00000   0.00000  -0.00000
  77       25F-3        0.00000   0.00000   0.00007   0.00000  -0.00123
  78       26F 0        0.00000   0.00000   0.00202   0.00000   0.00011
  79       26F+1        0.00000   0.00083   0.00000   0.00000   0.00000
  80       26F-1        0.00000   0.00000   0.00008   0.00000  -0.00145
  81       26F+2        0.00000   0.00000   0.00261   0.00000   0.00015
  82       26F-2        0.00000  -0.00000   0.00000   0.00000   0.00000
  83       26F+3        0.00000   0.00320   0.00000   0.00000   0.00000
  84       26F-3        0.00000   0.00000   0.00010   0.00000  -0.00187
  85       27F 0        0.00000   0.00000   0.00216   0.00000   0.00012
  86       27F+1        0.00000   0.00088  -0.00000   0.00000  -0.00000
  87       27F-1        0.00000   0.00000   0.00003   0.00000  -0.00052
  88       27F+2        0.00000  -0.00000   0.00279   0.00000   0.00016
  89       27F-2        0.00000  -0.00000   0.00000   0.00000   0.00000
  90       27F+3        0.00000   0.00342  -0.00000   0.00000  -0.00000
  91       27F-3        0.00000   0.00000   0.00004   0.00000  -0.00067
  92       28F 0        0.00000   0.00000   0.00054   0.00000   0.00003
  93       28F+1        0.00000   0.00022  -0.00000   0.00000  -0.00000
  94       28F-1        0.00000   0.00000   0.00002   0.00000  -0.00039
  95       28F+2        0.00000   0.00000   0.00069   0.00000   0.00004
  96       28F-2        0.00000  -0.00000   0.00000   0.00000   0.00000
  97       28F+3        0.00000   0.00085  -0.00000   0.00000  -0.00000
  98       28F-3        0.00000   0.00000   0.00003   0.00000  -0.00051
  99       29F 0        0.00000  -0.00000  -0.00011   0.00000  -0.00001
 100       29F+1        0.00000  -0.00004   0.00000   0.00000   0.00000
 101       29F-1        0.00000  -0.00000  -0.00001   0.00000   0.00011
 102       29F+2        0.00000  -0.00000  -0.00014   0.00000  -0.00001
 103       29F-2        0.00000   0.00000  -0.00000   0.00000  -0.00000
 104       29F+3        0.00000  -0.00017   0.00000   0.00000   0.00000
 105       29F-3        0.00000  -0.00000  -0.00001   0.00000   0.00014
 106       30G 0       -0.00006   0.00000   0.00000   0.00018   0.00000
 107       30G+1       -0.00000   0.00000   0.00000  -0.00000   0.00000
 108       30G-1        0.00000   0.00000   0.00000   0.00000   0.00000
 109       30G+2       -0.00009   0.00000   0.00000   0.00027   0.00000
 110       30G-2        0.00000   0.00000   0.00000   0.00000   0.00000
 111       30G+3       -0.00000   0.00000   0.00000  -0.00000   0.00000
 112       30G-3       -0.00000   0.00000   0.00000  -0.00000   0.00000
 113       30G+4       -0.00012   0.00000   0.00000   0.00036   0.00000
 114       30G-4        0.00000   0.00000   0.00000   0.00000   0.00000
 115       31G 0        0.00001   0.00000   0.00000   0.00023   0.00000
 116       31G+1       -0.00000   0.00000   0.00000  -0.00000   0.00000
 117       31G-1       -0.00000   0.00000   0.00000  -0.00000   0.00000
 118       31G+2        0.00002   0.00000   0.00000   0.00034   0.00000
 119       31G-2        0.00000   0.00000   0.00000   0.00000   0.00000
 120       31G+3       -0.00000   0.00000   0.00000  -0.00000   0.00000
 121       31G-3       -0.00000   0.00000   0.00000   0.00000   0.00000
 122       31G+4        0.00002   0.00000   0.00000   0.00045   0.00000
 123       31G-4        0.00000   0.00000   0.00000   0.00000   0.00000
 124       32G 0       -0.00005   0.00000   0.00000   0.00017   0.00000
 125       32G+1       -0.00000   0.00000   0.00000  -0.00000   0.00000
 126       32G-1       -0.00000   0.00000   0.00000   0.00000   0.00000
 127       32G+2       -0.00007   0.00000   0.00000   0.00025   0.00000
 128       32G-2        0.00000   0.00000   0.00000   0.00000   0.00000
 129       32G+3       -0.00000   0.00000   0.00000  -0.00000   0.00000
 130       32G-3       -0.00000   0.00000   0.00000  -0.00000   0.00000
 131       32G+4       -0.00010   0.00000   0.00000   0.00033   0.00000
 132       32G-4        0.00000   0.00000   0.00000   0.00000   0.00000
 133       33G 0        0.00005   0.00000   0.00000  -0.00011   0.00000
 134       33G+1       -0.00000   0.00000   0.00000   0.00000   0.00000
 135       33G-1        0.00000   0.00000   0.00000  -0.00000   0.00000
 136       33G+2        0.00008   0.00000   0.00000  -0.00017   0.00000
 137       33G-2       -0.00000   0.00000   0.00000   0.00000   0.00000
 138       33G+3       -0.00000   0.00000   0.00000   0.00000   0.00000
 139       33G-3        0.00000   0.00000   0.00000  -0.00000   0.00000
 140       33G+4        0.00011   0.00000   0.00000  -0.00023   0.00000
 141       33G-4       -0.00000   0.00000   0.00000   0.00000   0.00000
 142       34H 0        0.00000   0.00000  -0.00001   0.00000  -0.00000
 143       34H+1        0.00000  -0.00000  -0.00000   0.00000  -0.00000
 144       34H-1        0.00000   0.00000   0.00000   0.00000  -0.00003
 145       34H+2        0.00000   0.00000  -0.00002   0.00000  -0.00000
 146       34H-2        0.00000   0.00000  -0.00000   0.00000  -0.00000
 147       34H+3        0.00000  -0.00001  -0.00000   0.00000  -0.00000
 148       34H-3        0.00000  -0.00000   0.00000   0.00000  -0.00003
 149       34H+4        0.00000  -0.00000  -0.00002   0.00000  -0.00000
 150       34H-4        0.00000   0.00000  -0.00000   0.00000  -0.00000
 151       34H+5        0.00000  -0.00002  -0.00000   0.00000  -0.00000
 152       34H-5        0.00000  -0.00000   0.00000   0.00000  -0.00004
 153       35H 0        0.00000   0.00000  -0.00008   0.00000  -0.00000
 154       35H+1        0.00000  -0.00002   0.00000   0.00000   0.00000
 155       35H-1        0.00000   0.00000   0.00001   0.00000  -0.00011
 156       35H+2        0.00000   0.00000  -0.00011   0.00000  -0.00001
 157       35H-2        0.00000   0.00000  -0.00000   0.00000  -0.00000
 158       35H+3        0.00000  -0.00007   0.00000   0.00000   0.00000
 159       35H-3        0.00000  -0.00000   0.00001   0.00000  -0.00011
 160       35H+4        0.00000  -0.00000  -0.00009   0.00000  -0.00001
 161       35H-4        0.00000   0.00000  -0.00000   0.00000  -0.00000
 162       35H+5        0.00000  -0.00015   0.00000   0.00000   0.00000
 163       35H-5        0.00000  -0.00000   0.00001   0.00000  -0.00015
 164       36H 0        0.00000  -0.00000   0.00000   0.00000   0.00000
 165       36H+1        0.00000   0.00000  -0.00000   0.00000  -0.00000
 166       36H-1        0.00000  -0.00000  -0.00000   0.00000   0.00000
 167       36H+2        0.00000   0.00000   0.00000   0.00000   0.00000
 168       36H-2        0.00000  -0.00000   0.00000   0.00000   0.00000
 169       36H+3        0.00000   0.00000  -0.00000   0.00000  -0.00000
 170       36H-3        0.00000   0.00000  -0.00000   0.00000   0.00000
 171       36H+4        0.00000   0.00000   0.00000   0.00000   0.00000
 172       36H-4        0.00000  -0.00000   0.00000   0.00000   0.00000
 173       36H+5        0.00000   0.00001  -0.00000   0.00000  -0.00000
 174       36H-5        0.00000   0.00000  -0.00000   0.00000   0.00001
                           6         7         8         9        10
     Eigenvalues --     2.00000   1.00000   1.00000   1.00000   1.00000
   1 1   Fe 1S          0.00124  -0.00000  -0.00000   0.00000  -0.00000
   2        2S         -0.00026   0.00000  -0.00000   0.00000  -0.00000
   3        3S          0.00024  -0.00000  -0.00000   0.00000  -0.00000
   4        4S         -0.00174   0.00000  -0.00000   0.00000  -0.00000
   5        5S          0.00583  -0.00000   0.00000  -0.00000   0.00000
   6        6S         -0.00176   0.00000   0.00000  -0.00000   0.00000
   7        7S          0.00003  -0.00000   0.00000  -0.00000   0.00000
   8        8S         -0.00001   0.00000  -0.00000   0.00000  -0.00000
   9        9PX         0.00000   0.00000   0.00000   0.00000   0.00000
  10        9PY         0.00000   0.00000   0.00000   0.00000   0.00000
  11        9PZ         0.00000   0.00000   0.00000   0.00000   0.00000
  12       10PX         0.00000   0.00000   0.00000   0.00000   0.00000
  13       10PY         0.00000   0.00000   0.00000   0.00000   0.00000
  14       10PZ         0.00000   0.00000   0.00000   0.00000   0.00000
  15       11PX         0.00000   0.00000   0.00000   0.00000   0.00000
  16       11PY         0.00000   0.00000   0.00000   0.00000   0.00000
  17       11PZ         0.00000   0.00000   0.00000   0.00000   0.00000
  18       12PX         0.00000   0.00000   0.00000   0.00000   0.00000
  19       12PY         0.00000   0.00000   0.00000   0.00000   0.00000
  20       12PZ         0.00000   0.00000   0.00000   0.00000   0.00000
  21       13PX         0.00000   0.00000   0.00000   0.00000   0.00000
  22       13PY         0.00000   0.00000   0.00000   0.00000   0.00000
  23       13PZ         0.00000   0.00000   0.00000   0.00000   0.00000
  24       14PX         0.00000   0.00000   0.00000   0.00000   0.00000
  25       14PY         0.00000   0.00000   0.00000   0.00000   0.00000
  26       14PZ         0.00000   0.00000   0.00000   0.00000   0.00000
  27       15PX         0.00000   0.00000   0.00000   0.00000   0.00000
  28       15PY         0.00000   0.00000   0.00000   0.00000   0.00000
  29       15PZ         0.00000   0.00000   0.00000   0.00000   0.00000
  30       16PX         0.00000   0.00000   0.00000   0.00000   0.00000
  31       16PY         0.00000   0.00000   0.00000   0.00000   0.00000
  32       16PZ         0.00000   0.00000   0.00000   0.00000   0.00000
  33       17PX         0.00000   0.00000   0.00000   0.00000   0.00000
  34       17PY         0.00000   0.00000   0.00000   0.00000   0.00000
  35       17PZ         0.00000   0.00000   0.00000   0.00000   0.00000
  36       18D 0        0.13624  -0.00000  -0.02234   0.00240  -0.24141
  37       18D+1        0.00000   0.00000   0.26633   0.08294  -0.02382
  38       18D-1        0.00000   0.27888   0.00000   0.00000   0.00000
  39       18D+2        0.23597  -0.00000   0.01290  -0.00138   0.13938
  40       18D-2        0.00000  -0.00000  -0.08203   0.26634   0.01024
  41       19D 0        0.01886  -0.00000  -0.00124   0.00013  -0.01337
  42       19D+1        0.00000  -0.00000   0.01475   0.00459  -0.00132
  43       19D-1       -0.00000   0.01876  -0.00000  -0.00000  -0.00000
  44       19D+2        0.03267  -0.00000   0.00071  -0.00008   0.00772
  45       19D-2        0.00000   0.00000  -0.00552   0.01792   0.00069
  46       20D 0        0.15401  -0.00000  -0.02589   0.00278  -0.27981
  47       20D+1        0.00000   0.00000   0.30869   0.09613  -0.02761
  48       20D-1        0.00000   0.32205  -0.00000  -0.00000   0.00000
  49       20D+2        0.26675  -0.00000   0.01495  -0.00160   0.16155
  50       20D-2        0.00000  -0.00000  -0.09473   0.30758   0.01182
  51       21D 0       -0.13542   0.00000   0.01961  -0.00211   0.21198
  52       21D+1       -0.00000   0.00000  -0.23386  -0.07283   0.02092
  53       21D-1       -0.00000  -0.25003  -0.00000  -0.00000   0.00000
  54       21D+2       -0.23456   0.00000  -0.01132   0.00122  -0.12239
  55       21D-2       -0.00000  -0.00000   0.07354  -0.23879  -0.00918
  56       22D 0       -0.19682   0.00000   0.03245  -0.00348   0.35065
  57       22D+1       -0.00000  -0.00000  -0.38684  -0.12047   0.03460
  58       22D-1        0.00000  -0.40466   0.00000  -0.00000   0.00000
  59       22D+2       -0.34090   0.00000  -0.01873   0.00201  -0.20245
  60       22D-2       -0.00000   0.00000   0.11903  -0.38647  -0.01485
  61       23D 0        0.01042  -0.00000  -0.00075   0.00008  -0.00814
  62       23D+1        0.00000  -0.00000   0.00898   0.00280  -0.00080
  63       23D-1        0.00000   0.01084   0.00000   0.00000   0.00000
  64       23D+2        0.01804  -0.00000   0.00044  -0.00005   0.00470
  65       23D-2        0.00000   0.00000  -0.00319   0.01036   0.00040
  66       24D 0       -0.00021   0.00000  -0.00002   0.00000  -0.00024
  67       24D+1        0.00000   0.00000   0.00026   0.00008  -0.00002
  68       24D-1        0.00000   0.00013   0.00000  -0.00000   0.00000
  69       24D+2       -0.00036   0.00000   0.00001  -0.00000   0.00014
  70       24D-2       -0.00000  -0.00000  -0.00004   0.00013   0.00000
  71       25F 0        0.00000   0.00000   0.00000   0.00000   0.00000
  72       25F+1        0.00000   0.00000   0.00000   0.00000   0.00000
  73       25F-1        0.00000   0.00000   0.00000   0.00000   0.00000
  74       25F+2        0.00000   0.00000   0.00000   0.00000   0.00000
  75       25F-2        0.00000   0.00000   0.00000   0.00000   0.00000
  76       25F+3        0.00000   0.00000   0.00000   0.00000   0.00000
  77       25F-3        0.00000   0.00000   0.00000   0.00000   0.00000
  78       26F 0        0.00000   0.00000   0.00000   0.00000   0.00000
  79       26F+1        0.00000   0.00000   0.00000   0.00000   0.00000
  80       26F-1        0.00000   0.00000   0.00000   0.00000   0.00000
  81       26F+2        0.00000   0.00000   0.00000   0.00000   0.00000
  82       26F-2        0.00000   0.00000   0.00000   0.00000   0.00000
  83       26F+3        0.00000   0.00000   0.00000   0.00000   0.00000
  84       26F-3        0.00000   0.00000   0.00000   0.00000   0.00000
  85       27F 0        0.00000   0.00000   0.00000   0.00000   0.00000
  86       27F+1        0.00000   0.00000   0.00000   0.00000   0.00000
  87       27F-1        0.00000   0.00000   0.00000   0.00000   0.00000
  88       27F+2        0.00000   0.00000   0.00000   0.00000   0.00000
  89       27F-2        0.00000   0.00000   0.00000   0.00000   0.00000
  90       27F+3        0.00000   0.00000   0.00000   0.00000   0.00000
  91       27F-3        0.00000   0.00000   0.00000   0.00000   0.00000
  92       28F 0        0.00000   0.00000   0.00000   0.00000   0.00000
  93       28F+1        0.00000   0.00000   0.00000   0.00000   0.00000
  94       28F-1        0.00000   0.00000   0.00000   0.00000   0.00000
  95       28F+2        0.00000   0.00000   0.00000   0.00000   0.00000
  96       28F-2        0.00000   0.00000   0.00000   0.00000   0.00000
  97       28F+3        0.00000   0.00000   0.00000   0.00000   0.00000
  98       28F-3        0.00000   0.00000   0.00000   0.00000   0.00000
  99       29F 0        0.00000   0.00000   0.00000   0.00000   0.00000
 100       29F+1        0.00000   0.00000   0.00000   0.00000   0.00000
 101       29F-1        0.00000   0.00000   0.00000   0.00000   0.00000
 102       29F+2        0.00000   0.00000   0.00000   0.00000   0.00000
 103       29F-2        0.00000   0.00000   0.00000   0.00000   0.00000
 104       29F+3        0.00000   0.00000   0.00000   0.00000   0.00000
 105       29F-3        0.00000   0.00000   0.00000   0.00000   0.00000
 106       30G 0        0.00061   0.00000  -0.00004   0.00000  -0.00048
 107       30G+1        0.00000  -0.00000   0.00029   0.00009  -0.00003
 108       30G-1       -0.00000   0.00191  -0.00000  -0.00000  -0.00000
 109       30G+2        0.00092   0.00000  -0.00004   0.00000  -0.00043
 110       30G-2        0.00000  -0.00000  -0.00026   0.00086   0.00003
 111       30G+3        0.00000  -0.00000   0.00076   0.00024  -0.00007
 112       30G-3       -0.00000   0.00168   0.00000  -0.00000   0.00000
 113       30G+4        0.00121  -0.00000   0.00005  -0.00001   0.00057
 114       30G-4        0.00000  -0.00000  -0.00070   0.00228   0.00009
 115       31G 0        0.00063   0.00000  -0.00003   0.00000  -0.00035
 116       31G+1        0.00000  -0.00000   0.00021   0.00007  -0.00002
 117       31G-1        0.00000   0.00213   0.00000   0.00000   0.00000
 118       31G+2        0.00094   0.00000  -0.00003   0.00000  -0.00032
 119       31G-2        0.00000  -0.00000  -0.00030   0.00096   0.00004
 120       31G+3        0.00000  -0.00000   0.00057   0.00018  -0.00005
 121       31G-3        0.00000   0.00188  -0.00000   0.00000  -0.00000
 122       31G+4        0.00124  -0.00000   0.00004  -0.00000   0.00042
 123       31G-4        0.00000  -0.00000  -0.00078   0.00254   0.00010
 124       32G 0        0.00019   0.00000  -0.00001   0.00000  -0.00014
 125       32G+1        0.00000  -0.00000   0.00009   0.00003  -0.00001
 126       32G-1        0.00000   0.00068  -0.00000  -0.00000  -0.00000
 127       32G+2        0.00028   0.00000  -0.00001   0.00000  -0.00013
 128       32G-2        0.00000  -0.00000  -0.00009   0.00030   0.00001
 129       32G+3        0.00000  -0.00000   0.00023   0.00007  -0.00002
 130       32G-3        0.00000   0.00060   0.00000   0.00000   0.00000
 131       32G+4        0.00038  -0.00000   0.00002  -0.00000   0.00017
 132       32G-4        0.00000  -0.00000  -0.00025   0.00080   0.00003
 133       33G 0        0.00003   0.00000   0.00000  -0.00000   0.00003
 134       33G+1       -0.00000  -0.00000  -0.00002  -0.00000   0.00000
 135       33G-1       -0.00000   0.00010   0.00000   0.00000   0.00000
 136       33G+2        0.00004   0.00000   0.00000  -0.00000   0.00002
 137       33G-2        0.00000  -0.00000  -0.00001   0.00004   0.00000
 138       33G+3       -0.00000  -0.00000  -0.00004  -0.00001   0.00000
 139       33G-3       -0.00000   0.00009  -0.00000  -0.00000  -0.00000
 140       33G+4        0.00006  -0.00000  -0.00000   0.00000  -0.00003
 141       33G-4        0.00000  -0.00000  -0.00004   0.00012   0.00000
 142       34H 0        0.00000   0.00000   0.00000   0.00000   0.00000
 143       34H+1        0.00000   0.00000   0.00000   0.00000   0.00000
 144       34H-1        0.00000   0.00000   0.00000   0.00000   0.00000
 145       34H+2        0.00000   0.00000   0.00000   0.00000   0.00000
 146       34H-2        0.00000   0.00000   0.00000   0.00000   0.00000
 147       34H+3        0.00000   0.00000   0.00000   0.00000   0.00000
 148       34H-3        0.00000   0.00000   0.00000   0.00000   0.00000
 149       34H+4        0.00000   0.00000   0.00000   0.00000   0.00000
 150       34H-4        0.00000   0.00000   0.00000   0.00000   0.00000
 151       34H+5        0.00000   0.00000   0.00000   0.00000   0.00000
 152       34H-5        0.00000   0.00000   0.00000   0.00000   0.00000
 153       35H 0        0.00000   0.00000   0.00000   0.00000   0.00000
 154       35H+1        0.00000   0.00000   0.00000   0.00000   0.00000
 155       35H-1        0.00000   0.00000   0.00000   0.00000   0.00000
 156       35H+2        0.00000   0.00000   0.00000   0.00000   0.00000
 157       35H-2        0.00000   0.00000   0.00000   0.00000   0.00000
 158       35H+3        0.00000   0.00000   0.00000   0.00000   0.00000
 159       35H-3        0.00000   0.00000   0.00000   0.00000   0.00000
 160       35H+4        0.00000   0.00000   0.00000   0.00000   0.00000
 161       35H-4        0.00000   0.00000   0.00000   0.00000   0.00000
 162       35H+5        0.00000   0.00000   0.00000   0.00000   0.00000
 163       35H-5        0.00000   0.00000   0.00000   0.00000   0.00000
 164       36H 0        0.00000   0.00000   0.00000   0.00000   0.00000
 165       36H+1        0.00000   0.00000   0.00000   0.00000   0.00000
 166       36H-1        0.00000   0.00000   0.00000   0.00000   0.00000
 167       36H+2        0.00000   0.00000   0.00000   0.00000   0.00000
 168       36H-2        0.00000   0.00000   0.00000   0.00000   0.00000
 169       36H+3        0.00000   0.00000   0.00000   0.00000   0.00000
 170       36H-3        0.00000   0.00000   0.00000   0.00000   0.00000
 171       36H+4        0.00000   0.00000   0.00000   0.00000   0.00000
 172       36H-4        0.00000   0.00000   0.00000   0.00000   0.00000
 173       36H+5        0.00000   0.00000   0.00000   0.00000   0.00000
 174       36H-5        0.00000   0.00000   0.00000   0.00000   0.00000
                          11        12        13        14        15
     Eigenvalues --     0.00000   0.00000   0.00000   0.00000   0.00000
   1 1   Fe 1S          0.02329   0.00000   0.02800   0.00064   0.00000
   2        2S         -0.00654   0.00000  -0.00115   0.00086   0.00000
   3        3S          0.01667   0.00000   0.00159  -0.00250   0.00000
   4        4S          0.00557   0.00000   0.00019  -0.00066   0.00000
   5        5S         -0.00398   0.00000   0.03310   0.00385   0.00000
   6        6S         -0.01450   0.00000  -0.10388  -0.01133   0.00000
   7        7S         -0.02900   0.00000  -0.09983  -0.00822   0.00000
   8        8S         -0.02277   0.00000  -0.07043  -0.00485   0.00000
   9        9PX         0.00000  -2.88196   0.00000   0.00000  12.10756
  10        9PY         0.00000  -0.07428   0.00000   0.00000  -0.00063
  11        9PZ         0.00000   0.07370   0.00000   0.00000   0.00084
  12       10PX         0.00000   6.52332   0.00000   0.00000 -11.29748
  13       10PY         0.00000  -0.00541   0.00000   0.00000  -0.00012
  14       10PZ         0.00000   0.02353   0.00000   0.00000   0.00028
  15       11PX         0.00000   9.53683   0.00000   0.00000 -11.08641
  16       11PY         0.00000   0.05083   0.00000   0.00000   0.00023
  17       11PZ         0.00000   0.03859   0.00000   0.00000   0.00043
  18       12PX         0.00000   7.84806   0.00000   0.00000 -10.30306
  19       12PY         0.00000  -0.05994   0.00000   0.00000  -0.00081
  20       12PZ         0.00000   0.06125   0.00000   0.00000   0.00103
  21       13PX         0.00000   5.71294   0.00000   0.00000  30.06161
  22       13PY         0.00000   0.03394   0.00000   0.00000   0.00070
  23       13PZ         0.00000  -0.06559   0.00000   0.00000  -0.00041
  24       14PX         0.00000  -5.62620   0.00000   0.00000  10.05977
  25       14PY         0.00000  -0.05203   0.00000   0.00000  -0.00049
  26       14PZ         0.00000   0.08175   0.00000   0.00000   0.00101
  27       15PX         0.00000  -1.47791   0.00000   0.00000   0.67420
  28       15PY         0.00000  -0.05315   0.00000   0.00000  -0.00057
  29       15PZ         0.00000   0.01527   0.00000   0.00000   0.00022
  30       16PX         0.00000   4.77214   0.00000   0.00000  36.39976
  31       16PY         0.00000   0.02917   0.00000   0.00000   0.00052
  32       16PZ         0.00000  -0.00804   0.00000   0.00000   0.00039
  33       17PX         0.00000  -1.03840   0.00000   0.00000  -6.64480
  34       17PY         0.00000   0.02485   0.00000   0.00000   0.00021
  35       17PZ         0.00000  -0.02846   0.00000   0.00000  -0.00017
  36       18D 0        0.05386   0.00000  -0.00705  -0.00179   0.00000
  37       18D+1        0.00262   0.00000   0.00420   0.00024   0.00000
  38       18D-1        0.27249   0.00000  -0.12843   5.71509   0.00000
  39       18D+2        0.09138   0.00000  -0.02921  -0.00434   0.00000
  40       18D-2       -0.00002   0.00000   0.00385   0.00041   0.00000
  41       19D 0       -0.11246   0.00000  -0.07532  -0.00148   0.00000
  42       19D+1       -0.00274   0.00000   0.00095   0.00005   0.00000
  43       19D-1       -0.21283   0.00000  -1.47712  15.60882   0.00000
  44       19D+2        0.09154   0.00000  -0.15179  -0.01194   0.00000
  45       19D-2        0.00201   0.00000   0.00169   0.00008   0.00000
  46       20D 0        0.04542   0.00000   0.01999  -0.00003   0.00000
  47       20D+1       -0.00077   0.00000  -0.00307  -0.00011   0.00000
  48       20D-1        0.26066   0.00000   0.98695  -6.13955   0.00000
  49       20D+2       -0.04120   0.00000   0.04563   0.00396   0.00000
  50       20D-2       -0.00270   0.00000  -0.00392  -0.00021   0.00000
  51       21D 0        0.01787   0.00000  -0.04219  -0.00360   0.00000
  52       21D+1       -0.00075   0.00000   0.00162   0.00025   0.00000
  53       21D-1       -0.12556   0.00000  -0.99027  15.21987   0.00000
  54       21D+2        0.18293   0.00000  -0.08757  -0.01092   0.00000
  55       21D-2        0.00388   0.00000   0.00829   0.00055   0.00000
  56       22D 0        0.00114   0.00000  -0.12161  -0.00765   0.00000
  57       22D+1        0.00208   0.00000   0.01319   0.00082   0.00000
  58       22D-1        4.66128   0.00000   1.06850   1.32528   0.00000
  59       22D+2       -0.15621   0.00000  -0.06871  -0.00005   0.00000
  60       22D-2       -0.00632   0.00000  -0.01148  -0.00047   0.00000
  61       23D 0       -0.09639   0.00000  -0.01322   0.00213   0.00000
  62       23D+1       -0.00189   0.00000  -0.00180  -0.00020   0.00000
  63       23D-1        0.19942   0.00000  -0.52988  -1.39956   0.00000
  64       23D+2       -0.11090   0.00000  -0.02388   0.00172   0.00000
  65       23D-2       -0.00036   0.00000  -0.00490  -0.00046   0.00000
  66       24D 0        0.02353   0.00000  -0.11182  -0.00843   0.00000
  67       24D+1        0.00235   0.00000   0.01425   0.00096   0.00000
  68       24D-1        4.29654   0.00000   0.52986   2.89739   0.00000
  69       24D+2       -0.09437   0.00000  -0.03050   0.00013   0.00000
  70       24D-2       -0.00127   0.00000  -0.00433  -0.00016   0.00000
  71       25F 0        0.00000  -0.00004   0.00000   0.00000  -0.00000
  72       25F+1        0.00000   0.01130   0.00000   0.00000   0.00032
  73       25F-1        0.00000   0.00004   0.00000   0.00000   0.00000
  74       25F+2        0.00000   0.00021   0.00000   0.00000   0.00000
  75       25F-2        0.00000  -0.00000   0.00000   0.00000  -0.00000
  76       25F+3        0.00000   0.00736   0.00000   0.00000   0.00015
  77       25F-3        0.00000  -0.00008   0.00000   0.00000   0.00000
  78       26F 0        0.00000   0.00026   0.00000   0.00000   0.00000
  79       26F+1        0.00000  -0.03182   0.00000   0.00000  -0.00060
  80       26F-1        0.00000   0.00006   0.00000   0.00000   0.00000
  81       26F+2        0.00000   0.00022   0.00000   0.00000   0.00000
  82       26F-2        0.00000  -0.00000   0.00000   0.00000  -0.00000
  83       26F+3        0.00000  -0.02144   0.00000   0.00000  -0.00025
  84       26F-3        0.00000  -0.00002   0.00000   0.00000   0.00000
  85       27F 0        0.00000   0.00000   0.00000   0.00000  -0.00000
  86       27F+1        0.00000   0.12477   0.00000   0.00000   0.00275
  87       27F-1        0.00000   0.00006   0.00000   0.00000   0.00000
  88       27F+2        0.00000   0.00054   0.00000   0.00000   0.00001
  89       27F-2        0.00000   0.00000   0.00000   0.00000   0.00000
  90       27F+3        0.00000   0.09330   0.00000   0.00000   0.00168
  91       27F-3        0.00000   0.00036   0.00000   0.00000   0.00000
  92       28F 0        0.00000  -0.00029   0.00000   0.00000  -0.00001
  93       28F+1        0.00000   0.05723   0.00000   0.00000   0.00117
  94       28F-1        0.00000   0.00002   0.00000   0.00000  -0.00000
  95       28F+2        0.00000   0.00033   0.00000   0.00000   0.00000
  96       28F-2        0.00000  -0.00000   0.00000   0.00000  -0.00000
  97       28F+3        0.00000   0.04272   0.00000   0.00000   0.00076
  98       28F-3        0.00000   0.00032   0.00000   0.00000   0.00000
  99       29F 0        0.00000  -0.00016   0.00000   0.00000  -0.00000
 100       29F+1        0.00000  -0.14948   0.00000   0.00000  -0.00337
 101       29F-1        0.00000  -0.00004   0.00000   0.00000  -0.00000
 102       29F+2        0.00000  -0.00054   0.00000   0.00000  -0.00001
 103       29F-2        0.00000   0.00000   0.00000   0.00000   0.00000
 104       29F+3        0.00000  -0.11548   0.00000   0.00000  -0.00207
 105       29F-3        0.00000   0.00032   0.00000   0.00000   0.00000
 106       30G 0        0.00030   0.00000   0.00052   0.00002   0.00000
 107       30G+1        0.00003   0.00000   0.00005   0.00000   0.00000
 108       30G-1        0.14092   0.00000   0.21301   0.01899   0.00000
 109       30G+2        0.00027   0.00000   0.00042   0.00002   0.00000
 110       30G-2        0.00000   0.00000   0.00002   0.00000   0.00000
 111       30G+3        0.00002   0.00000   0.00002   0.00000   0.00000
 112       30G-3        0.10693   0.00000   0.17073   0.01157   0.00000
 113       30G+4       -0.00055   0.00000   0.00104   0.00009   0.00000
 114       30G-4       -0.00002   0.00000   0.00010   0.00001   0.00000
 115       31G 0        0.00039   0.00000   0.00054   0.00002   0.00000
 116       31G+1        0.00002   0.00000   0.00002   0.00000   0.00000
 117       31G-1       -0.33161   0.00000  -0.26661  -0.03222   0.00000
 118       31G+2        0.00013   0.00000   0.00039   0.00003   0.00000
 119       31G-2        0.00002   0.00000   0.00003  -0.00000   0.00000
 120       31G+3        0.00002   0.00000   0.00001   0.00000   0.00000
 121       31G-3       -0.14346   0.00000  -0.20687  -0.01754   0.00000
 122       31G+4       -0.00021   0.00000   0.00074   0.00005   0.00000
 123       31G-4        0.00002   0.00000   0.00011   0.00001   0.00000
 124       32G 0        0.00037   0.00000   0.00035   0.00002   0.00000
 125       32G+1       -0.00000   0.00000  -0.00003  -0.00000   0.00000
 126       32G-1       -1.20459   0.00000  -0.74793  -0.09850   0.00000
 127       32G+2        0.00019   0.00000   0.00008   0.00000   0.00000
 128       32G-2        0.00003   0.00000   0.00002  -0.00000   0.00000
 129       32G+3        0.00002   0.00000   0.00001  -0.00000   0.00000
 130       32G-3       -0.09149   0.00000  -0.26731  -0.04208   0.00000
 131       32G+4        0.00012   0.00000   0.00022   0.00001   0.00000
 132       32G-4        0.00004   0.00000   0.00002  -0.00000   0.00000
 133       33G 0       -0.00018   0.00000   0.00024   0.00002   0.00000
 134       33G+1       -0.00000   0.00000  -0.00002  -0.00000   0.00000
 135       33G-1        1.35794   0.00000   0.85359   0.11319   0.00000
 136       33G+2       -0.00037   0.00000  -0.00005   0.00001   0.00000
 137       33G-2        0.00004   0.00000   0.00003  -0.00000   0.00000
 138       33G+3       -0.00000   0.00000  -0.00001  -0.00000   0.00000
 139       33G-3        0.16182   0.00000   0.36645   0.05052   0.00000
 140       33G+4       -0.00009   0.00000   0.00002   0.00000   0.00000
 141       33G-4        0.00006   0.00000   0.00007   0.00000   0.00000
 142       34H 0        0.00000   0.00000   0.00000   0.00000  -0.00000
 143       34H+1        0.00000  -0.00597   0.00000   0.00000  -0.00006
 144       34H-1        0.00000  -0.00001   0.00000   0.00000  -0.00000
 145       34H+2        0.00000  -0.00001   0.00000   0.00000  -0.00000
 146       34H-2        0.00000   0.00000   0.00000   0.00000   0.00000
 147       34H+3        0.00000  -0.00764   0.00000   0.00000  -0.00008
 148       34H-3        0.00000  -0.00001   0.00000   0.00000  -0.00000
 149       34H+4        0.00000  -0.00001   0.00000   0.00000  -0.00000
 150       34H-4        0.00000   0.00000   0.00000   0.00000   0.00000
 151       34H+5        0.00000  -0.00690   0.00000   0.00000  -0.00007
 152       34H-5        0.00000  -0.00002   0.00000   0.00000  -0.00000
 153       35H 0        0.00000  -0.00000   0.00000   0.00000   0.00000
 154       35H+1        0.00000   0.02362   0.00000   0.00000   0.00025
 155       35H-1        0.00000   0.00000   0.00000   0.00000   0.00000
 156       35H+2        0.00000  -0.00001   0.00000   0.00000  -0.00000
 157       35H-2        0.00000   0.00000   0.00000   0.00000   0.00000
 158       35H+3        0.00000   0.02975   0.00000   0.00000   0.00031
 159       35H-3        0.00000  -0.00000   0.00000   0.00000   0.00000
 160       35H+4        0.00000  -0.00002   0.00000   0.00000  -0.00000
[...]
 108       30G-1        0.00001   0.00001   0.00000   0.00001
 109       30G+2        0.00000   0.00000   0.00000   0.00000
 110       30G-2        0.00000   0.00000   0.00000   0.00000
 111       30G+3        0.00000   0.00000   0.00000   0.00000
 112       30G-3        0.00000   0.00000   0.00000   0.00000
 113       30G+4        0.00001   0.00000   0.00000   0.00000
 114       30G-4        0.00001   0.00001   0.00000   0.00001
 115       31G 0        0.00000   0.00000   0.00000   0.00000
 116       31G+1        0.00000   0.00000   0.00000   0.00000
 117       31G-1        0.00001   0.00001   0.00000   0.00001
 118       31G+2        0.00000   0.00000   0.00000   0.00000
 119       31G-2        0.00000   0.00000   0.00000   0.00000
 120       31G+3        0.00000   0.00000   0.00000   0.00000
 121       31G-3        0.00001   0.00001   0.00000   0.00001
 122       31G+4        0.00001   0.00000   0.00000   0.00000
 123       31G-4        0.00001   0.00001   0.00000   0.00001
 124       32G 0        0.00000   0.00000   0.00000   0.00000
 125       32G+1        0.00000   0.00000   0.00000   0.00000
 126       32G-1        0.00000   0.00000   0.00000   0.00000
 127       32G+2        0.00000   0.00000   0.00000   0.00000
 128       32G-2        0.00000   0.00000   0.00000   0.00000
 129       32G+3        0.00000   0.00000   0.00000   0.00000
 130       32G-3        0.00000   0.00000   0.00000   0.00000
 131       32G+4        0.00000   0.00000   0.00000   0.00000
 132       32G-4        0.00000   0.00000   0.00000   0.00000
 133       33G 0       -0.00000  -0.00000  -0.00000  -0.00000
 134       33G+1       -0.00000  -0.00000  -0.00000  -0.00000
 135       33G-1        0.00000   0.00000  -0.00000   0.00000
 136       33G+2       -0.00000  -0.00000  -0.00000  -0.00000
 137       33G-2        0.00000   0.00000  -0.00000   0.00000
 138       33G+3       -0.00000  -0.00000  -0.00000  -0.00000
 139       33G-3        0.00000   0.00000  -0.00000   0.00000
 140       33G+4       -0.00000  -0.00000  -0.00000  -0.00000
 141       33G-4        0.00000   0.00000  -0.00000   0.00000
 142       34H 0        0.00000   0.00000   0.00000  -0.00000
 143       34H+1        0.00000   0.00000   0.00000   0.00000
 144       34H-1        0.00000   0.00000   0.00000  -0.00000
 145       34H+2        0.00000   0.00000   0.00000   0.00000
 146       34H-2        0.00000   0.00000   0.00000  -0.00000
 147       34H+3        0.00000   0.00000   0.00000  -0.00000
 148       34H-3        0.00000   0.00000   0.00000  -0.00000
 149       34H+4        0.00000   0.00000   0.00000  -0.00000
 150       34H-4        0.00000   0.00000   0.00000  -0.00000
 151       34H+5        0.00000   0.00000   0.00000  -0.00000
 152       34H-5        0.00000   0.00000   0.00000  -0.00000
 153       35H 0        0.00000   0.00000   0.00000  -0.00000
 154       35H+1        0.00000   0.00000   0.00000  -0.00000
 155       35H-1        0.00000   0.00000   0.00000   0.00000
 156       35H+2        0.00000   0.00000   0.00000  -0.00000
 157       35H-2        0.00000   0.00000   0.00000  -0.00000
 158       35H+3        0.00000   0.00000   0.00000  -0.00000
 159       35H-3        0.00000   0.00000   0.00000  -0.00000
 160       35H+4        0.00000   0.00000   0.00000  -0.00000
 161       35H-4        0.00000   0.00000   0.00000  -0.00000
 162       35H+5        0.00000   0.00000   0.00000  -0.00000
 163       35H-5        0.00000   0.00000   0.00000  -0.00000
 164       36H 0       -0.00000  -0.00000  -0.00000   0.00000
 165       36H+1       -0.00000  -0.00000  -0.00000  -0.00000
 166       36H-1       -0.00000  -0.00000  -0.00000   0.00000
 167       36H+2       -0.00000  -0.00000  -0.00000   0.00000
 168       36H-2       -0.00000  -0.00000  -0.00000  -0.00000
 169       36H+3       -0.00000  -0.00000  -0.00000   0.00000
 170       36H-3       -0.00000  -0.00000  -0.00000   0.00000
 171       36H+4       -0.00000  -0.00000  -0.00000   0.00000
 172       36H-4       -0.00000  -0.00000  -0.00000   0.00000
 173       36H+5       -0.00000  -0.00000  -0.00000   0.00000
 174       36H-5       -0.00000  -0.00000  -0.00000   0.00000
          Condensed to atoms (all electrons):
               1
     1  Fe  16.000000
          Atomic-Atomic Spin Densities.
               1
     1  Fe   4.000000
 Mulliken charges and spin densities:
               1          2
     1  Fe  -0.000000   4.000000
 Sum of Mulliken charges =  -0.00000   4.00000
 Mulliken charges and spin densities with hydrogens summed into heavy atoms:
               1          2
     1  Fe  -0.000000   4.000000
 Electronic spatial extent (au):  <R**2>=             40.1367
 Charge=              0.0000 electrons
 Dipole moment (field-independent basis, Debye):
    X=              0.0000    Y=              0.0000    Z=              0.0000  Tot=              0.0000
 Quadrupole moment (field-independent basis, Debye-Ang):
   XX=            -17.8807   YY=            -18.2238   ZZ=            -17.8807
   XY=              0.0000   XZ=             -0.0000   YZ=             -0.0000
 Traceless Quadrupole moment (field-independent basis, Debye-Ang):
   XX=              0.1144   YY=             -0.2288   ZZ=              0.1144
   XY=              0.0000   XZ=             -0.0000   YZ=             -0.0000
 Octapole moment (field-independent basis, Debye-Ang**2):
  XXX=              0.0000  YYY=              0.0000  ZZZ=              0.0000  XYY=              0.0000
  XXY=              0.0000  XXZ=              0.0000  XZZ=              0.0000  YZZ=              0.0000
  YYZ=              0.0000  XYZ=              0.0000
 Hexadecapole moment (field-independent basis, Debye-Ang**3):
 XXXX=            -42.5219 YYYY=            -41.9920 ZZZZ=            -42.5219 XXXY=             -0.0000
 XXXZ=              0.0000 YYYX=              0.0000 YYYZ=             -0.0000 ZZZX=              0.0000
 ZZZY=              0.0000 XXYY=            -13.9232 XXZZ=            -14.1740 YYZZ=            -13.9232
 XXYZ=              0.0000 YYXZ=              0.0000 ZZXY=             -0.0000
 N-N= 0.000000000000D+00 E-N=-2.876632241331D+02  KE= 7.185922362671D+01
 Symmetry AG   KE= 2.661611860352D+01
 Symmetry B1G  KE= 7.334359118635D+00
 Symmetry B2G  KE= 7.398392063296D+00
 Symmetry B3G  KE= 7.334358805456D+00
 Symmetry AU   KE= 6.882635430991D-36
 Symmetry B1U  KE= 7.732731367249D+00
 Symmetry B2U  KE= 7.710532209606D+00
 Symmetry B3U  KE= 7.732731458937D+00
 Symmetry AG   SP= 1.000000000000D+00
 Symmetry B1G  SP= 1.000000000000D+00
 Symmetry B2G  SP= 1.000000000000D+00
 Symmetry B3G  SP= 1.000000000000D+00
 Symmetry AU   SP=-9.691348205325D-53
 Symmetry B1U  SP=-1.259687772301D-16
 Symmetry B2U  SP=-1.847238262284D-16
 Symmetry B3U  SP=-1.400464732420D-16
 Orbital energies and kinetic energies (alpha):
                                 1                 2
   1         (A1G)--O         -4.213768          2.278176
   2         (T1U)--O         -2.699400          3.855266
   3         (T1U)--O         -2.683370          3.866366
   4         (T1U)--O         -2.683370          3.866366
   5         O                -0.522451          6.979820
   6         O                -0.256937          0.350867
   7         O                -0.125899          7.398392
   8         (T2G)--O         -0.125899          7.398392
   9         (T2G)--O         -0.102294          7.334359
  10         (T2G)--O         -0.102294          7.334359
  11         V                 0.036274          0.148896
  12         V                 0.036274          0.148896
  13         V                 0.039619          0.140447
  14         (A1G)--V          0.066466          0.124386
  15         V                 0.172584          0.371822
  16         V                 0.172584          0.371822
  17         V                 0.177590          0.372920
  18         (T2G)--V          0.240821          0.413722
  19         V                 0.240821          0.413722
  20         (T2G)--V          0.243266          0.417852
  21         (T2G)--V          0.243266          0.417852
  22         V                 0.243453          0.487079
  23         V                 0.332912          0.579729
  24         V                 0.611221          1.096230
  25         V                 0.611221          1.096230
  26         V                 0.621032          1.099260
  27         (T2G)--V          0.801488          1.866157
  28         V                 0.801488          1.866157
  29         V                 0.808164          2.074766
  30         (T2G)--V          0.809826          1.883985
  31         (T2G)--V          0.809826          1.883985
  32         V                 1.080368          1.658563
  33         V                 1.161390          1.454038
  34         V                 1.161390          1.454038
  35         V                 1.166383          1.453126
  36         (A2U)--V          1.166383          1.453126
  37         V                 1.169545          1.453664
  38         V                 1.169545          1.453664
  39         V                 1.170504          1.454268
  40         (T1U)--V          1.863042          3.062459
  41         (T1U)--V          1.863042          3.062459
  42         (T1U)--V          1.883331          3.068474
  43         V                 2.234488          5.376330
  44         V                 2.234488          5.376330
  45         V                 2.249779          5.526043
  46         V                 2.250142          5.399736
  47         V                 2.250142          5.399736
  48         V                 3.066627          3.560440
  49         V                 3.066627          3.560440
  50         V                 3.071066          3.560266
  51         V                 3.071066          3.560266
  52         V                 3.079103          3.560067
  53         V                 3.079103          3.560067
  54         V                 3.085898          3.559886
  55         V                 3.085898          3.559886
  56         V                 3.088512          3.560096
  57         V                 3.339144          4.977936
  58         V                 3.395264          4.897868
  59         V                 3.395264          4.897868
  60         V                 3.407707          4.895866
  61         (A2U)--V          3.407707          4.895866
  62         V                 3.416249          4.897568
  63         V                 3.416249          4.897568
  64         V                 3.418655          4.898882
  65         V                 5.131450          7.564408
  66         V                 5.131450          7.564408
  67         V                 5.166731          7.570526
  68         V                 5.725141         12.857931
  69         (T2G)--V          5.725141         12.857931
  70         (T2G)--V          5.747425         12.874687
  71         (T2G)--V          5.747425         12.874688
  72         V                 5.758072         12.883903
  73         V                 7.542986          8.531210
  74         V                 7.542986          8.531210
  75         (EU)--V           7.545993          8.531176
  76         V                 7.545993          8.531176
  77         V                 7.556617          8.531077
  78         V                 7.556617          8.531077
  79         V                 7.568642          8.530938
  80         (EU)--V           7.568642          8.530938
  81         V                 7.577658          8.530819
  82         V                 7.577658          8.530819
  83         V                 7.580967          8.530774
  84         V                 8.604412         13.093182
  85         V                 8.604412         13.093182
  86         (A2U)--V          8.621100         13.093573
  87         V                 8.621100         13.093573
  88         V                 8.639804         13.094813
  89         V                 8.639804         13.094813
  90         V                 8.646915         13.095310
  91         (T2G)--V          8.995770         11.091478
  92         V                 8.995770         11.091478
  93         V                 9.003265         11.091174
  94         V                 9.003265         11.091174
  95         (T2G)--V          9.021037         11.091072
  96         V                 9.021037         11.091072
  97         V                 9.036604         11.090906
  98         V                 9.036604         11.090906
  99         (T2G)--V          9.042611         11.090966
 100         (T2G)--V         10.944029         13.454558
 101         (T1U)--V         13.071927         17.094983
 102         (T1U)--V         13.071927         17.094983
 103         (T1U)--V         13.120779         17.097044
 104         (T2G)--V         14.286650         28.436693
 105         (T2G)--V         14.286650         28.436693
 106         (T2G)--V         14.312682         28.442748
 107         (T2G)--V         14.312682         28.442748
 108         (T2G)--V         14.336176         28.418802
 109         V                19.444684         27.577977
 110         V                19.444684         27.577977
 111         (A2U)--V         19.460989         27.579442
 112         V                19.460989         27.579442
 113         V                19.489406         27.579219
 114         V                19.489407         27.579219
 115         V                19.501891         27.578667
 116         (T2G)--V         21.142122         26.301621
 117         V                21.142122         26.301621
 118         V                21.150227         26.301588
 119         V                21.150227         26.301588
 120         (T2G)--V         21.174398         26.301963
 121         V                21.174398         26.301963
 122         V                21.196233         26.302243
 123         V                21.196233         26.302243
 124         (T2G)--V         21.204756         26.302367
 125         V                22.904412         26.811976
 126         V                22.904412         26.811976
 127         (EU)--V          22.907363         26.811910
 128         V                22.907363         26.811910
 129         V                22.925412         26.811915
 130         V                22.925412         26.811915
 131         V                22.946716         26.811923
 132         (EU)--V          22.946716         26.811923
 133         V                22.962881         26.811899
 134         V                22.962881         26.811899
 135         V                22.968837         26.811882
 136         (T1U)--V         32.144505         36.715091
 137         (T1U)--V         32.144505         36.715091
 138         (T1U)--V         32.196603         36.714356
 139         V                38.667493         74.997592
 140         V                38.667493         74.997592
 141         V                38.690529         74.992649
 142         V                38.690529         74.992649
 143         V                38.715073         74.972054
 144         V                39.125576         55.717293
 145         V                39.125576         55.717293
 146         (A2U)--V         39.140973         55.718440
 147         V                39.140973         55.718440
 148         V                39.170753         55.714777
 149         V                39.170753         55.714777
 150         V                39.184212         55.712337
 151         V                41.304417         52.628697
 152         V                41.304417         52.628697
 153         V                41.312726         52.629208
 154         V                41.312726         52.629208
 155         V                41.337664         52.629193
 156         V                41.337664         52.629193
 157         V                41.360361         52.630060
 158         V                41.360362         52.630060
 159         V                41.369277         52.630893
 160         V                49.389981         59.333819
 161         V                49.389981         59.333819
 162         (EU)--V          49.393428         59.333918
 163         V                49.393428         59.333918
 164         V                49.412670         59.334002
 165         V                49.412670         59.334002
 166         V                49.435282         59.334045
 167         (EU)--V          49.435282         59.334045
 168         V                49.452412         59.334040
 169         V                49.452412         59.334040
 170         V                49.458719         59.334029
 171         (A1G)--V         77.010719         23.605768
 172         (T1U)--V         86.216132         73.259042
 173         (T1U)--V         86.216132         73.259042
 174         (T1U)--V         86.250511         73.261653
 Total kinetic energy from orbitals= 1.013247256774D+02
                          Isotropic Fermi Contact Couplings
        Atom                 a.u.       MegaHertz       Gauss      10(-4) cm-1
     1  Fe(57)            -0.00000      -0.00000      -0.00000      -0.00000
 --------------------------------------------------------
       Center         ----  Spin Dipole Couplings  ----
                      3XX-RR        3YY-RR        3ZZ-RR
 --------------------------------------------------------
     1   Atom        1.440387     -2.880754      1.440367
 --------------------------------------------------------
                        XY            XZ            YZ
 --------------------------------------------------------
     1   Atom        0.000000      0.000000      0.000000
 --------------------------------------------------------


 ---------------------------------------------------------------------------------
              Anisotropic Spin Dipole Couplings in Principal Axis System
 ---------------------------------------------------------------------------------

       Atom             a.u.   MegaHertz   Gauss  10(-4) cm-1        Axes

              Baa    -2.8808   -49.874   -17.796   -16.636 -0.0000  1.0000  0.0000
     1 Fe(57) Bbb     1.4404    24.937     8.898     8.318  0.0000  0.0000  1.0000
              Bcc     1.4404    24.937     8.898     8.318  1.0000  0.0000  0.0000
 

 ---------------------------------------------------------------------------------

 No NMR shielding tensors so no spin-rotation constants.
 Leave Link  601 at Sun Dec 16 00:02:56 2018, MaxMem= 10737418240 cpu:              13.9 elap:               0.9
 (Enter /home1/apps/gaussian/16rA.03/g16/l9999.exe)

 Test job not archived.
 1\1\GINC-C506-012\SP\ROHF\Gen\Fe1(5)\AANNABE\16-Dec-2018\0\\#P ROHF/Ge
 n 5d 7f SCF=(maxcycles=300, VShift=100) GFPRINT Pop=(Full,NO) Pseudo=R
 ead Guess=Read IOp(5/15=2)\\Fe\\0,5\Fe,0,0.,0.,0.\\Version=ES64L-G16Re
 vA.03\HF=-122.6471841\RMSD=3.242e-09\Dipole=0.,0.,0.\Quadrupole=0.0850
 393,-0.1700794,0.0850401,0.,0.,0.\PG=OH [O(Fe1)]\\@


 THE ENLIGHTENED ONE, BECAUSE HE SAW MANKIND DROWNING  
 IN THE GREAT SEA OF BIRTH, DEATH, AND SORROW, LONGED TO SAVE 
 THEM, FOR THIS HE WAS MOVED TO PITY.                         
 BECAUSE HE SAW MEN OF THE WORLD STRAYING IN FALSE PATHS, AND 
 NONE TO GUIDE THEM, FOR THIS HE WAS MOVED TO PITY.           
                     ..................                       
 BECAUSE HE SAW THE MEN OF THE WORLD PLOUGHING THEIR FIELDS,  
 SOWING THE SEED, TRAFFICKING, HUCKSTERING, BUYING, SELLING,  
 AND AT THE END WINNOWING NOTHING BUT BITTERNESS,             
 FOR THIS HE WAS MOVED TO PITY......                   
                   BUDAH'S PITY - UPSAKA SILA SUTRA           
 Job cpu time:       0 days  0 hours  4 minutes 32.3 seconds.
 Elapsed time:       0 days  0 hours  0 minutes 17.5 seconds.
 File lengths (MBytes):  RWF=     16 Int=      0 D2E=      0 Chk=      5 Scr=      1
 Normal termination of Gaussian 16 at Sun Dec 16 00:02:57 2018.
