TACC:  Starting up job 2982777 
TACC:  Starting parallel tasks... 
  Input file(s): He.log.qmc.in-wfj.xml 

=====================================================
                    QMCPACK 3.6.0

       (c) Copyright 2003-  QMCPACK developers

                    Please cite:
 J. Kim et al. J. Phys. Cond. Mat. 30 195901 (2018)
      https://doi.org/10.1088/1361-648X/aab9c3

  Git branch: develop
  Last git commit: 278b2da505fe49852d465a6e4d7961918d794c87
  Last git commit date: Thu Feb 14 11:22:02 2019 -0500
  Last git commit subject: Merge pull request #1379 from ye-luo/raise-boost-version
=====================================================
  Global options 

  MPI Nodes             = 1024
  MPI Nodes per group   = 1024
  MPI Group ID          = 0
  OMP 1st level threads = 1
  OMP nested threading disabled or only 1 thread on the 2nd level

  Precision used in this calculation, see definitions in the manual:
  Base precision      = double
  Full precision      = double

  Structure-of-arrays (SoA) optimization enabled

  Input XML = He.log.qmc.in-wfj.xml

  Project = He.log
  date    = 2019-02-21 11:42:33 CST
  host    = c455-034.stampede2.tacc.utexas.edu

 Random Number
 -------------
  Offset for the random number seeds based on time: 777

  Range of prime numbers to use as seeds over processors and threads = 5927-15439


 Particle Set 
 ------------
  Name: ion0
  All the species have the same mass 1
  Particle set size: 1

 Particle Set 
 ------------
  Name: e
  All the species have the same mass 1
  Particle set size: 2

 Wavefunction setup: 
 ------------------- 
  Name: psi0
  LCAO: SoaAtomicBasisSet<MultiQuintic,0>

  Distance table for similar particles (A-A):
    source/target: e
    Using structure-of-arrays (SoA) data layout
    Distance computations use open boundary conditions in 3D.


  Distance table for dissimilar particles (A-B):
    source: ion0  target: e
    Using structure-of-arrays (SoA) data layout
    Distance computations use open boundary conditions in 3D.

Reading BasisSet from HDF5 file:He.log.orbs.h5
<input node="atomicBasisSet" name="Gaussian" expandYlm="Gamess" angular="cartesian" elementType="He" normalized="no" type="Numerical" expM="0" />
  AO BasisSet for He
   Angular momentum expanded in cartesian functions x^lx y^ly z^lz according to Gamess
   Grid is created by the input paremters in h5
    Using log grid ri = 1e-06 rf = 100 npts = 1001
   R(n,l,m,s) 0 0 0 0
   R(n,l,m,s) 1 0 0 0
   R(n,l,m,s) 2 0 0 0
   R(n,l,m,s) 3 1 0 0
   R(n,l,m,s) 4 1 0 0
Expanding Ylm (angular function) according to Gamess using cartesian gaussians
Adding 1 cartesian gaussian orbitals for l= 0
Adding 1 cartesian gaussian orbitals for l= 0
Adding 1 cartesian gaussian orbitals for l= 0
Adding 3 cartesian gaussian orbitals for l= 1
Adding 3 cartesian gaussian orbitals for l= 1
  Setting cutoff radius 10.7647

   Maximum Angular Momentum  = 1
   Number of Radial functors = 5
   Basis size                = 9

  Created SPOSet builder named 'LCAOBSet' of type molecularorbital
Reuse SPOSetBuilder "LCAOBSet" type MolecularOrbital
  Building SPOSet '' with '' basis set.
Reuse SPOSetBuilder "LCAOBSet" type MolecularOrbital
  Building SPOSet '' with '' basis set.
  Creating a determinant updet group=0 sposet=updet
  Reusing a SPO set updet
Using DiracDeterminant
Using rank-1 Sherman-Morrison Fahy update

  Creating a determinant downdet group=1 sposet=downdet
  Reusing a SPO set downdet
Using DiracDeterminant
Using rank-1 Sherman-Morrison Fahy update

  FermionWF = SlaterDet
  RadialJastrowBuilder adds a functor with cusp = -0.5
 size = 10 parameters 
 cusp = -0.5
 rcut = 3.5
Parameter     Name      Value
ud_0 0.606605 1 1  ON 0
ud_1 0.47272 1 1  ON 1
ud_2 0.363402 1 1  ON 2
ud_3 0.272634 1 1  ON 3
ud_4 0.197478 1 1  ON 4
ud_5 0.136107 1 1  ON 5
ud_6 0.0873045 1 1  ON 6
ud_7 0.0499437 1 1  ON 7
ud_8 0.0232611 1 1  ON 8
ud_9 0.00636125 1 1  ON 9
 size = 10 parameters 
 cusp = 0
 rcut = 3.5
Parameter     Name      Value
eHe_0 -0.292209 1 1  ON 0
eHe_1 -0.2739 1 1  ON 1
eHe_2 -0.232606 1 1  ON 2
eHe_3 -0.183656 1 1  ON 3
eHe_4 -0.134876 1 1  ON 4
eHe_5 -0.0909688 1 1  ON 5
eHe_6 -0.0542452 1 1  ON 6
eHe_7 -0.0254781 1 1  ON 7
eHe_8 -0.00709795 1 1  ON 8
eHe_9 0.0049161 1 1  ON 9
Expected 26 parameters, but found 0 in PolynomialFunctor3D.
Parameter     Name      Value
uuHe_0 0 1 1  ON 0
uuHe_1 0 1 1  ON 1
uuHe_2 0 1 1  ON 2
uuHe_3 0 1 1  ON 3
uuHe_4 0 1 1  ON 4
uuHe_5 0 1 1  ON 5
uuHe_6 0 1 1  ON 6
uuHe_7 0 1 1  ON 7
uuHe_8 0 1 1  ON 8
uuHe_9 0 1 1  ON 9
uuHe_10 0 1 1  ON 10
uuHe_11 0 1 1  ON 11
uuHe_12 0 1 1  ON 12
uuHe_13 0 1 1  ON 13
uuHe_14 0 1 1  ON 14
uuHe_15 0 1 1  ON 15
uuHe_16 0 1 1  ON 16
uuHe_17 0 1 1  ON 17
uuHe_18 0 1 1  ON 18
uuHe_19 0 1 1  ON 19
uuHe_20 0 1 1  ON 20
uuHe_21 0 1 1  ON 21
uuHe_22 0 1 1  ON 22
uuHe_23 0 1 1  ON 23
uuHe_24 0 1 1  ON 24
uuHe_25 0 1 1  ON 25
Expected 26 parameters, but found 0 in PolynomialFunctor3D.
Parameter     Name      Value
udHe_0 0 1 1  ON 0
udHe_1 0 1 1  ON 1
udHe_2 0 1 1  ON 2
udHe_3 0 1 1  ON 3
udHe_4 0 1 1  ON 4
udHe_5 0 1 1  ON 5
udHe_6 0 1 1  ON 6
udHe_7 0 1 1  ON 7
udHe_8 0 1 1  ON 8
udHe_9 0 1 1  ON 9
udHe_10 0 1 1  ON 10
udHe_11 0 1 1  ON 11
udHe_12 0 1 1  ON 12
udHe_13 0 1 1  ON 13
udHe_14 0 1 1  ON 14
udHe_15 0 1 1  ON 15
udHe_16 0 1 1  ON 16
udHe_17 0 1 1  ON 17
udHe_18 0 1 1  ON 18
udHe_19 0 1 1  ON 19
udHe_20 0 1 1  ON 20
udHe_21 0 1 1  ON 21
udHe_22 0 1 1  ON 22
udHe_23 0 1 1  ON 23
udHe_24 0 1 1  ON 24
udHe_25 0 1 1  ON 25
  QMCHamiltonian::addOperator Kinetic to H, physical Hamiltonian 
  QMCHamiltonian::addOperator ElecElec to H, physical Hamiltonian 
QMCHamiltonian::addOperatorType added type coulomb named ElecElec
  CoulombAA for ion0 is not created.  Number of particles == 1 and nonPeriodic

  ECPotential builder for pseudopotential 

  Adding pseudopotential for He
   Linear grid  ri=0 rf=10 npts = 10001
    ECPComponentBuilder::buildSemiLocalAndLocal 
    Assuming Hartree unit
   Number of angular momentum channels 2
   Maximum angular momentum channel 1
   Creating a Linear Grid Rmax=1e-10
  Using global grid with delta = 0.001
   Making L=1 a local potential with a radial cutoff of 9.999
    Non-local pseudopotential parameters
    Maximum angular mementum = 0
    Number of non-local channels = 1
       l(0)=0
    Cutoff radius = 0.001
    Spherical grids and weights: 
                        1                 0                 0       0.08333333333
                       -1   1.224646799e-16                 0       0.08333333333
             0.4472135955       0.894427191                 0       0.08333333333
            -0.4472135955      0.7236067977      0.5257311121       0.08333333333
             0.4472135955      0.2763932023      0.8506508084       0.08333333333
            -0.4472135955     -0.2763932023      0.8506508084       0.08333333333
             0.4472135955     -0.7236067977      0.5257311121       0.08333333333
            -0.4472135955      -0.894427191   1.095357397e-16       0.08333333333
             0.4472135955     -0.7236067977     -0.5257311121       0.08333333333
            -0.4472135955     -0.2763932023     -0.8506508084       0.08333333333
             0.4472135955      0.2763932023     -0.8506508084       0.08333333333
            -0.4472135955      0.7236067977     -0.5257311121       0.08333333333
    Maximum cutoff radius 0.001
  QMCHamiltonian::addOperator LocalECP to H, physical Hamiltonian 

  Using NonLocalECP potential 
    Maximum grid on a sphere for NonLocalECPotential: 12
  QMCHamiltonian::addOperator NonLocalECP to H, physical Hamiltonian 
QMCHamiltonian::addOperatorType added type pseudo named PseudoPot

  QMCHamiltonian::add2WalkerProperty added
    4 to P::PropertyList 
    0 to P::Collectables 
    starting Index of the observables in P::PropertyList = 9
ParticleSetPool::randomize 
<init source="ion0" target="e">
</init>
  Initialization Execution time = 0.3086 secs
=========================================================
 Summary of QMC systems 
=========================================================
ParticleSetPool has: 

  ParticleSet e : 0 1 2 

    2

    u  2.3908008766e-01  8.8587959425e-01  2.4492139192e-01
    d -1.3214110429e-02 -7.3831310713e-01  2.7804850956e-01

  ParticleSet ion0 : 0 1 

    1

    He  0.0000000000e+00  0.0000000000e+00  0.0000000000e+00

  Hamiltonian h0
  Kinetic         Kinetic energy
  ElecElec        CoulombAA source/target e

  LocalECP        LocalECPotential: ion0
  NonLocalECP     NonLocalECPotential: ion0

=========================================================
  Start VMC
  File Root He.log.s000 append = no 
=========================================================
  Adding 1 walkers to 0 existing sets
  Total number of walkers: 1.0240000000e+03
  Total weight: 1.0240000000e+03
  Resetting Properties of the walkers 1 x 13

<vmc function="put">
  qmc_counter=0  my_counter=0
  time step      = 1.5000000000e-01
  blocks         = 200
  steps          = 1
  substeps       = 5
  current        = 0
  target samples = 1.0240000000e+03
  walkers/mpi    = 1

  stepsbetweensamples = 200
<parameter name="blocks" condition="int">200</parameter>
<parameter name="blocks_between_recompute" condition="int">0</parameter>
<parameter name="check_properties" condition="int">100</parameter>
<parameter name="checkproperties" condition="int">100</parameter>
<parameter name="current" condition="int">0</parameter>
<parameter name="dmcwalkersperthread" condition="real">1.0000000000e+00</parameter>
<parameter name="maxcpusecs" condition="real">3.6000000000e+05</parameter>
<parameter name="record_configs" condition="int">0</parameter>
<parameter name="record_walkers" condition="int">200</parameter>
<parameter name="recordconfigs" condition="int">0</parameter>
<parameter name="recordwalkers" condition="int">200</parameter>
<parameter name="rewind" condition="int">0</parameter>
<parameter name="samples" condition="real">1.0240000000e+03</parameter>
<parameter name="samplesperthread" condition="real">1.0000000000e+00</parameter>
<parameter name="steps" condition="int">1</parameter>
<parameter name="stepsbetweensamples" condition="int">200</parameter>
<parameter name="store_configs" condition="int">0</parameter>
<parameter name="storeconfigs" condition="int">0</parameter>
<parameter name="sub_steps" condition="int">5</parameter>
<parameter name="substeps" condition="int">5</parameter>
<parameter name="tau" condition="au">1.5000000000e-01</parameter>
<parameter name="time_step" condition="au">1.5000000000e-01</parameter>
<parameter name="timestep" condition="au">1.5000000000e-01</parameter>
<parameter name="use_drift" condition="string">no</parameter>
<parameter name="usedrift" condition="string">no</parameter>
<parameter name="walkers" condition="int">1</parameter>
<parameter name="warmup_steps" condition="int">100</parameter>
<parameter name="warmupsteps" condition="int">100</parameter>
  DumpConfig==false Nothing (configurations, state) will be saved.
  Walker Samples are dumped every 200 steps.
</vmc>
  Initial partition of walkers 0 1 

  Using Particle by Particle moves
  Walker moves without drift
  Total Sample Size   =1024
  Walker distribution on root = 0 1 
  Using Locality Approximation
===== Memory Usage after the buffer registration =====
Available memory on node 0, free + buffers : 87619 MB
Memory footprint by rank 0 on node 0       : 65 MB
==================================================
  Anonymous Buffer size per walker : 1024 Bytes.
MEMORY increase 0 MB VMC::resetRun
====================================================
  SimpleFixedNodeBranch::finalize after a VMC block
    QMC counter        = 0
    time step          = 0.15
    reference energy   = -2.90363
    reference variance = 0.0235208
====================================================
  QMC Execution time = 1.6726e-01 secs
Loop execution max-interations = 20

=========================================================
  Start QMCFixedSampleLinearOptimize
  File Root He.log.s001 append = no 
=========================================================
  Skip QMCDriver::putQMCInfo 
  Resetting Properties of the walkers 1 x 13

=========================================================
  Start VMC
  File Root He.log.s001 append = no 
=========================================================
  Using the current 1 walkers.
  Total number of walkers: 1.0240e+03
  Total weight: 1.0240e+03
  Resetting Properties of the walkers 1 x 13

<vmc function="put">
  qmc_counter=0  my_counter=0
  time step      = 1.5000e-01
  blocks         = 300
  steps          = 2
  substeps       = 5
  current        = 0
  target samples = 5.1200e+05
  walkers/mpi    = 1

  stepsbetweensamples = 1
<parameter name="blocks" condition="int">300</parameter>
<parameter name="blocks_between_recompute" condition="int">0</parameter>
<parameter name="check_properties" condition="int">100</parameter>
<parameter name="checkproperties" condition="int">100</parameter>
<parameter name="current" condition="int">0</parameter>
<parameter name="dmcwalkersperthread" condition="real">5.0000e+02</parameter>
<parameter name="maxcpusecs" condition="real">3.6000e+05</parameter>
<parameter name="record_configs" condition="int">0</parameter>
<parameter name="record_walkers" condition="int">1</parameter>
<parameter name="recordconfigs" condition="int">0</parameter>
<parameter name="recordwalkers" condition="int">1</parameter>
<parameter name="rewind" condition="int">0</parameter>
<parameter name="samples" condition="real">5.1200e+05</parameter>
<parameter name="samplesperthread" condition="real">5.0000e+02</parameter>
<parameter name="steps" condition="int">2</parameter>
<parameter name="stepsbetweensamples" condition="int">1</parameter>
<parameter name="store_configs" condition="int">0</parameter>
<parameter name="storeconfigs" condition="int">0</parameter>
<parameter name="sub_steps" condition="int">5</parameter>
<parameter name="substeps" condition="int">5</parameter>
<parameter name="tau" condition="au">1.5000e-01</parameter>
<parameter name="time_step" condition="au">1.5000e-01</parameter>
<parameter name="timestep" condition="au">1.5000e-01</parameter>
<parameter name="use_drift" condition="string">no</parameter>
<parameter name="usedrift" condition="string">no</parameter>
<parameter name="walkers" condition="int">1</parameter>
<parameter name="warmup_steps" condition="int">0</parameter>
<parameter name="warmupsteps" condition="int">0</parameter>
  DumpConfig==false Nothing (configurations, state) will be saved.
  Walker Samples are dumped every 1 steps.
</vmc>
    Restarting, cummulative properties:
      energy     = -2.9036e+00
      variance   = 0.0000e+00
      r2accepted = 1.0000e-10
      r2proposed = 1.0000e-10
 Using QMCCostFunction::QMCCostFunction
  EstimatorManagerBase::add replace LocalEnergy estimator.
<optimization-report>
<vmc stage="main" blocks="300">
  Cannot make clones again. Use existing 1 clones
  Initial partition of walkers 0 1 

  Using Particle by Particle moves
  Walker moves without drift
  Total Sample Size   =512000
  Walker distribution on root = 0 1 
  Using Locality Approximation
===== Memory Usage after the buffer registration =====
Available memory on node 0, free + buffers : 87616 MB
Memory footprint by rank 0 on node 0       : 66 MB
==================================================
  Anonymous Buffer size per walker : 1024 Bytes.
MEMORY increase 0 MB VMC::resetRun
====================================================
  SimpleFixedNodeBranch::finalize after a VMC block
    QMC counter        = 1
    time step          = 0.15
    reference energy   = -2.89609
    reference variance = 0.0254951
====================================================
  Execution time = 9.7043e-01
</vmc>
<opt stage="setup">
  <log>
   Reading configurations from h5FileRoot He.log.s001
  QMCCostFunction is created with 1 threads.
  Using Nonlocal PP in Opt: NonLocalECP
   Number of samples loaded to each thread : 500 
  VMC Eavg = -2.9005e+00
  VMC Evar = 2.4723e-02
  Total weights = 5.1200e+05
  Execution time = 5.1782e-02
  </log>
</opt>
<opt stage="main" walkers="512000">
  <log>

*****************************************
Building overlap and Hamiltonian matrices
*****************************************

Among totally 72 optimized parameters, largest LM parameter change : 5.9614e-02 at parameter 11

******************************************************************************
Init Cost =  -2.7542e+00    New Cost =  -2.7574e+00  Delta Cost =  -3.2053e-03
******************************************************************************

The new set of parameters is valid. Updating the trial wave function!

*****************************************************************************
Applying the update for shift_i =   1.0000e-02     and shift_s =   2.5000e-01
*****************************************************************************
  Execution time = 1.3591e+00
  </log>
  <optVariables href="He.log.s001.opt.xml">
ud_0 6.0905e-01 1 1  ON 0
ud_1 4.7138e-01 1 1  ON 1
ud_2 3.6112e-01 1 1  ON 2
ud_3 2.7401e-01 1 1  ON 3
ud_4 2.0403e-01 1 1  ON 4
ud_5 1.4857e-01 1 1  ON 5
ud_6 1.0247e-01 1 1  ON 6
ud_7 6.1794e-02 1 1  ON 7
ud_8 2.9560e-02 1 1  ON 8
ud_9 8.2130e-03 1 1  ON 9
eHe_0 -3.5034e-01 1 1  ON 10
eHe_1 -3.3351e-01 1 1  ON 11
eHe_2 -2.7629e-01 1 1  ON 12
eHe_3 -2.0330e-01 1 1  ON 13
eHe_4 -1.3165e-01 1 1  ON 14
eHe_5 -7.2988e-02 1 1  ON 15
eHe_6 -4.0220e-02 1 1  ON 16
eHe_7 -9.7147e-03 1 1  ON 17
eHe_8 7.4362e-03 1 1  ON 18
eHe_9 1.9473e-02 1 1  ON 19
uuHe_0 0.0000e+00 1 1  ON 20
uuHe_1 0.0000e+00 1 1  ON 21
uuHe_2 0.0000e+00 1 1  ON 22
uuHe_3 0.0000e+00 1 1  ON 23
uuHe_4 0.0000e+00 1 1  ON 24
uuHe_5 0.0000e+00 1 1  ON 25
uuHe_6 0.0000e+00 1 1  ON 26
uuHe_7 0.0000e+00 1 1  ON 27
uuHe_8 0.0000e+00 1 1  ON 28
uuHe_9 0.0000e+00 1 1  ON 29
uuHe_10 0.0000e+00 1 1  ON 30
uuHe_11 0.0000e+00 1 1  ON 31
uuHe_12 0.0000e+00 1 1  ON 32
uuHe_13 0.0000e+00 1 1  ON 33
uuHe_14 0.0000e+00 1 1  ON 34
uuHe_15 0.0000e+00 1 1  ON 35
uuHe_16 0.0000e+00 1 1  ON 36
uuHe_17 0.0000e+00 1 1  ON 37
uuHe_18 0.0000e+00 1 1  ON 38
uuHe_19 0.0000e+00 1 1  ON 39
uuHe_20 0.0000e+00 1 1  ON 40
uuHe_21 0.0000e+00 1 1  ON 41
uuHe_22 0.0000e+00 1 1  ON 42
uuHe_23 0.0000e+00 1 1  ON 43
uuHe_24 0.0000e+00 1 1  ON 44
uuHe_25 0.0000e+00 1 1  ON 45
udHe_0 1.0553e-02 1 1  ON 46
udHe_1 5.7267e-03 1 1  ON 47
udHe_2 1.0358e-02 1 1  ON 48
udHe_3 -1.4553e-02 1 1  ON 49
udHe_4 3.8173e-03 1 1  ON 50
udHe_5 1.6418e-02 1 1  ON 51
udHe_6 -6.7258e-03 1 1  ON 52
udHe_7 -2.3124e-03 1 1  ON 53
udHe_8 -5.3570e-03 1 1  ON 54
udHe_9 1.3265e-02 1 1  ON 55
udHe_10 3.0732e-03 1 1  ON 56
udHe_11 -4.2998e-04 1 1  ON 57
udHe_12 -6.9776e-03 1 1  ON 58
udHe_13 7.5972e-03 1 1  ON 59
udHe_14 9.1020e-03 1 1  ON 60
udHe_15 1.1086e-02 1 1  ON 61
udHe_16 8.0029e-03 1 1  ON 62
udHe_17 -7.5531e-04 1 1  ON 63
udHe_18 1.0630e-04 1 1  ON 64
udHe_19 -5.7531e-03 1 1  ON 65
udHe_20 1.8212e-02 1 1  ON 66
udHe_21 6.1725e-03 1 1  ON 67
udHe_22 -8.6569e-03 1 1  ON 68
udHe_23 1.2078e-02 1 1  ON 69
udHe_24 3.5768e-03 1 1  ON 70
udHe_25 -8.4192e-03 1 1  ON 71
  </optVariables>
   Restore the number of walkers to 1, removing 0 walkers.
</opt>
</optimization-report>
  QMC Execution time = 1.3717e+00 secs
  Reusing QMCFixedSampleLinearOptimize
 Using QMCCostFunction::QMCCostFunction

=========================================================
  Start QMCFixedSampleLinearOptimize
  File Root He.log.s002 append = no 
=========================================================
  Skip QMCDriver::putQMCInfo 
  Resetting Properties of the walkers 1 x 13

=========================================================
  Start VMC
  File Root He.log.s002 append = no 
=========================================================
Using existing walkers 
  Resetting Properties of the walkers 1 x 13

<vmc function="put">
  qmc_counter=1  my_counter=1
  time step      = 1.5000e-01
  blocks         = 300
  steps          = 2
  substeps       = 5
  current        = 0
  target samples = 5.1200e+05
  walkers/mpi    = 1

  stepsbetweensamples = 1
<parameter name="blocks" condition="int">300</parameter>
<parameter name="blocks_between_recompute" condition="int">0</parameter>
<parameter name="check_properties" condition="int">100</parameter>
<parameter name="checkproperties" condition="int">100</parameter>
<parameter name="current" condition="int">0</parameter>
<parameter name="dmcwalkersperthread" condition="real">5.0000e+02</parameter>
<parameter name="maxcpusecs" condition="real">3.6000e+05</parameter>
<parameter name="record_configs" condition="int">0</parameter>
<parameter name="record_walkers" condition="int">1</parameter>
<parameter name="recordconfigs" condition="int">0</parameter>
<parameter name="recordwalkers" condition="int">1</parameter>
<parameter name="rewind" condition="int">0</parameter>
<parameter name="samples" condition="real">5.1200e+05</parameter>
<parameter name="samplesperthread" condition="real">5.0000e+02</parameter>
<parameter name="steps" condition="int">2</parameter>
<parameter name="stepsbetweensamples" condition="int">1</parameter>
<parameter name="store_configs" condition="int">0</parameter>
<parameter name="storeconfigs" condition="int">0</parameter>
<parameter name="sub_steps" condition="int">5</parameter>
<parameter name="substeps" condition="int">5</parameter>
<parameter name="tau" condition="au">1.5000e-01</parameter>
<parameter name="time_step" condition="au">1.5000e-01</parameter>
<parameter name="timestep" condition="au">1.5000e-01</parameter>
<parameter name="use_drift" condition="string">no</parameter>
<parameter name="usedrift" condition="string">no</parameter>
<parameter name="walkers" condition="int">1</parameter>
<parameter name="warmup_steps" condition="int">0</parameter>
<parameter name="warmupsteps" condition="int">0</parameter>
  DumpConfig==false Nothing (configurations, state) will be saved.
  Walker Samples are dumped every 1 steps.
</vmc>
  EstimatorManagerBase::add replace LocalEnergy estimator.
  EstimatorManagerBase::add replace LocalEnergy estimator.
<optimization-report>
<vmc stage="main" blocks="300">
  Cannot make clones again. Use existing 1 clones
  Initial partition of walkers 0 1 
  Using Particle by Particle moves
  Walker moves without drift
  Total Sample Size   =512000
  Walker distribution on root = 0 1 
  Using Locality Approximation
===== Memory Usage after the buffer registration =====
Available memory on node 0, free + buffers : 86658 MB
Memory footprint by rank 0 on node 0       : 84 MB
==================================================
====================================================
  SimpleFixedNodeBranch::finalize after a VMC block
    QMC counter        = 2
    time step          = 0.15
    reference energy   = -2.90173
    reference variance = 0.00514329
====================================================
  Execution time = 1.0079e+00
</vmc>
<opt stage="setup">
  <log>
   Reading configurations from h5FileRoot He.log.s002
  QMCCostFunction is created with 1 threads.
  Using Nonlocal PP in Opt: NonLocalECP
   Number of samples loaded to each thread : 500 
  VMC Eavg = -2.9027e+00
  VMC Evar = 6.1945e-03
  Total weights = 5.1200e+05
  Execution time = 4.1865e-02
  </log>
</opt>
<opt stage="main" walkers="512000">
  <log>

*****************************************
Building overlap and Hamiltonian matrices
*****************************************

Among totally 72 optimized parameters, largest LM parameter change : 2.9121e-02 at parameter 10

******************************************************************************
Init Cost =  -2.7573e+00    New Cost =  -2.7574e+00  Delta Cost =  -1.0892e-04
******************************************************************************

The new set of parameters is valid. Updating the trial wave function!

*****************************************************************************
Applying the update for shift_i =   1.0000e-02     and shift_s =   6.2500e-02
*****************************************************************************
  Execution time = 1.1746e+00
  </log>
  <optVariables href="He.log.s002.opt.xml">
ud_0 6.1359e-01 1 1  ON 0
ud_1 4.7717e-01 1 1  ON 1
ud_2 3.6763e-01 1 1  ON 2
ud_3 2.8116e-01 1 1  ON 3
ud_4 2.1182e-01 1 1  ON 4
ud_5 1.5687e-01 1 1  ON 5
ud_6 1.1071e-01 1 1  ON 6
ud_7 6.8713e-02 1 1  ON 7
ud_8 3.4068e-02 1 1  ON 8
ud_9 1.0524e-02 1 1  ON 9
eHe_0 -3.7946e-01 1 1  ON 10
eHe_1 -3.6026e-01 1 1  ON 11
eHe_2 -3.0043e-01 1 1  ON 12
eHe_3 -2.2100e-01 1 1  ON 13
eHe_4 -1.3875e-01 1 1  ON 14
eHe_5 -7.0114e-02 1 1  ON 15
eHe_6 -3.9781e-02 1 1  ON 16
eHe_7 -8.1940e-03 1 1  ON 17
eHe_8 8.7078e-03 1 1  ON 18
eHe_9 2.1872e-02 1 1  ON 19
uuHe_0 0.0000e+00 1 1  ON 20
uuHe_1 0.0000e+00 1 1  ON 21
uuHe_2 0.0000e+00 1 1  ON 22
uuHe_3 0.0000e+00 1 1  ON 23
uuHe_4 0.0000e+00 1 1  ON 24
uuHe_5 0.0000e+00 1 1  ON 25
uuHe_6 0.0000e+00 1 1  ON 26
uuHe_7 0.0000e+00 1 1  ON 27
uuHe_8 0.0000e+00 1 1  ON 28
uuHe_9 0.0000e+00 1 1  ON 29
uuHe_10 0.0000e+00 1 1  ON 30
uuHe_11 0.0000e+00 1 1  ON 31
uuHe_12 0.0000e+00 1 1  ON 32
uuHe_13 0.0000e+00 1 1  ON 33
uuHe_14 0.0000e+00 1 1  ON 34
uuHe_15 0.0000e+00 1 1  ON 35
uuHe_16 0.0000e+00 1 1  ON 36
uuHe_17 0.0000e+00 1 1  ON 37
uuHe_18 0.0000e+00 1 1  ON 38
uuHe_19 0.0000e+00 1 1  ON 39
uuHe_20 0.0000e+00 1 1  ON 40
uuHe_21 0.0000e+00 1 1  ON 41
uuHe_22 0.0000e+00 1 1  ON 42
uuHe_23 0.0000e+00 1 1  ON 43
uuHe_24 0.0000e+00 1 1  ON 44
uuHe_25 0.0000e+00 1 1  ON 45
udHe_0 1.3075e-02 1 1  ON 46
udHe_1 8.2237e-03 1 1  ON 47
udHe_2 6.4265e-03 1 1  ON 48
udHe_3 -1.3963e-02 1 1  ON 49
udHe_4 1.0134e-02 1 1  ON 50
udHe_5 2.1670e-02 1 1  ON 51
udHe_6 -1.0476e-02 1 1  ON 52
udHe_7 -2.5828e-03 1 1  ON 53
udHe_8 -2.9675e-03 1 1  ON 54
udHe_9 1.6130e-02 1 1  ON 55
udHe_10 1.4862e-03 1 1  ON 56
udHe_11 -8.8032e-04 1 1  ON 57
udHe_12 -1.2964e-02 1 1  ON 58
udHe_13 1.3516e-02 1 1  ON 59
udHe_14 8.7328e-03 1 1  ON 60
udHe_15 1.7276e-02 1 1  ON 61
udHe_16 1.0840e-02 1 1  ON 62
udHe_17 -2.8595e-03 1 1  ON 63
udHe_18 2.8314e-04 1 1  ON 64
udHe_19 -6.7204e-03 1 1  ON 65
udHe_20 3.0423e-02 1 1  ON 66
udHe_21 1.2050e-02 1 1  ON 67
udHe_22 -9.2826e-03 1 1  ON 68
udHe_23 2.1729e-02 1 1  ON 69
udHe_24 7.0161e-03 1 1  ON 70
udHe_25 -1.2829e-02 1 1  ON 71
  </optVariables>
   Restore the number of walkers to 1, removing 0 walkers.
</opt>
</optimization-report>
  QMC Execution time = 1.1860e+00 secs
  Reusing QMCFixedSampleLinearOptimize
 Using QMCCostFunction::QMCCostFunction

=========================================================
  Start QMCFixedSampleLinearOptimize
  File Root He.log.s003 append = no 
=========================================================
  Skip QMCDriver::putQMCInfo 
  Resetting Properties of the walkers 1 x 13

=========================================================
  Start VMC
  File Root He.log.s003 append = no 
=========================================================
Using existing walkers 
  Resetting Properties of the walkers 1 x 13

<vmc function="put">
  qmc_counter=2  my_counter=2
  time step      = 1.5000e-01
  blocks         = 300
  steps          = 2
  substeps       = 5
  current        = 0
  target samples = 5.1200e+05
  walkers/mpi    = 1

  stepsbetweensamples = 1
<parameter name="blocks" condition="int">300</parameter>
<parameter name="blocks_between_recompute" condition="int">0</parameter>
<parameter name="check_properties" condition="int">100</parameter>
<parameter name="checkproperties" condition="int">100</parameter>
<parameter name="current" condition="int">0</parameter>
<parameter name="dmcwalkersperthread" condition="real">5.0000e+02</parameter>
<parameter name="maxcpusecs" condition="real">3.6000e+05</parameter>
<parameter name="record_configs" condition="int">0</parameter>
<parameter name="record_walkers" condition="int">1</parameter>
<parameter name="recordconfigs" condition="int">0</parameter>
<parameter name="recordwalkers" condition="int">1</parameter>
<parameter name="rewind" condition="int">0</parameter>
<parameter name="samples" condition="real">5.1200e+05</parameter>
<parameter name="samplesperthread" condition="real">5.0000e+02</parameter>
<parameter name="steps" condition="int">2</parameter>
<parameter name="stepsbetweensamples" condition="int">1</parameter>
<parameter name="store_configs" condition="int">0</parameter>
<parameter name="storeconfigs" condition="int">0</parameter>
<parameter name="sub_steps" condition="int">5</parameter>
<parameter name="substeps" condition="int">5</parameter>
<parameter name="tau" condition="au">1.5000e-01</parameter>
<parameter name="time_step" condition="au">1.5000e-01</parameter>
<parameter name="timestep" condition="au">1.5000e-01</parameter>
<parameter name="use_drift" condition="string">no</parameter>
<parameter name="usedrift" condition="string">no</parameter>
<parameter name="walkers" condition="int">1</parameter>
<parameter name="warmup_steps" condition="int">0</parameter>
<parameter name="warmupsteps" condition="int">0</parameter>
  DumpConfig==false Nothing (configurations, state) will be saved.
  Walker Samples are dumped every 1 steps.
</vmc>
  EstimatorManagerBase::add replace LocalEnergy estimator.
  EstimatorManagerBase::add replace LocalEnergy estimator.
<optimization-report>
<vmc stage="main" blocks="300">
  Cannot make clones again. Use existing 1 clones
  Initial partition of walkers 0 1 
  Using Particle by Particle moves
  Walker moves without drift
  Total Sample Size   =512000
  Walker distribution on root = 0 1 
  Using Locality Approximation
===== Memory Usage after the buffer registration =====
Available memory on node 0, free + buffers : 86653 MB
Memory footprint by rank 0 on node 0       : 87 MB
==================================================
====================================================
  SimpleFixedNodeBranch::finalize after a VMC block
    QMC counter        = 3
    time step          = 0.15
    reference energy   = -2.90395
    reference variance = 0.00585337
====================================================
  Execution time = 9.8397e-01
</vmc>
<opt stage="setup">
  <log>
   Reading configurations from h5FileRoot He.log.s003
  QMCCostFunction is created with 1 threads.
  Using Nonlocal PP in Opt: NonLocalECP
   Number of samples loaded to each thread : 500 
  VMC Eavg = -2.9030e+00
  VMC Evar = 6.1601e-03
  Total weights = 5.1200e+05
  Execution time = 4.0278e-02
  </log>
</opt>
<opt stage="main" walkers="512000">
  <log>

*****************************************
Building overlap and Hamiltonian matrices
*****************************************

Among totally 72 optimized parameters, largest LM parameter change : 1.5182e-02 at parameter 10

******************************************************************************
Init Cost =  -2.7575e+00    New Cost =  -2.7575e+00  Delta Cost =  -3.6640e-05
******************************************************************************

The new set of parameters is valid. Updating the trial wave function!

*****************************************************************************
Applying the update for shift_i =   1.0000e-02     and shift_s =   1.5625e-02
*****************************************************************************
  Execution time = 1.1606e+00
  </log>
  <optVariables href="He.log.s003.opt.xml">
ud_0 6.1825e-01 1 1  ON 0
ud_1 4.8308e-01 1 1  ON 1
ud_2 3.7417e-01 1 1  ON 2
ud_3 2.8793e-01 1 1  ON 3
ud_4 2.1870e-01 1 1  ON 4
ud_5 1.6353e-01 1 1  ON 5
ud_6 1.1688e-01 1 1  ON 6
ud_7 7.4194e-02 1 1  ON 7
ud_8 3.8099e-02 1 1  ON 8
ud_9 1.2875e-02 1 1  ON 9
eHe_0 -3.9465e-01 1 1  ON 10
eHe_1 -3.7366e-01 1 1  ON 11
eHe_2 -3.1373e-01 1 1  ON 12
eHe_3 -2.3323e-01 1 1  ON 13
eHe_4 -1.4814e-01 1 1  ON 14
eHe_5 -7.5758e-02 1 1  ON 15
eHe_6 -4.5271e-02 1 1  ON 16
eHe_7 -1.2455e-02 1 1  ON 17
eHe_8 5.8781e-03 1 1  ON 18
eHe_9 2.0079e-02 1 1  ON 19
uuHe_0 0.0000e+00 1 1  ON 20
uuHe_1 0.0000e+00 1 1  ON 21
uuHe_2 0.0000e+00 1 1  ON 22
uuHe_3 0.0000e+00 1 1  ON 23
uuHe_4 0.0000e+00 1 1  ON 24
uuHe_5 0.0000e+00 1 1  ON 25
uuHe_6 0.0000e+00 1 1  ON 26
uuHe_7 0.0000e+00 1 1  ON 27
uuHe_8 0.0000e+00 1 1  ON 28
uuHe_9 0.0000e+00 1 1  ON 29
uuHe_10 0.0000e+00 1 1  ON 30
uuHe_11 0.0000e+00 1 1  ON 31
uuHe_12 0.0000e+00 1 1  ON 32
uuHe_13 0.0000e+00 1 1  ON 33
uuHe_14 0.0000e+00 1 1  ON 34
uuHe_15 0.0000e+00 1 1  ON 35
uuHe_16 0.0000e+00 1 1  ON 36
uuHe_17 0.0000e+00 1 1  ON 37
uuHe_18 0.0000e+00 1 1  ON 38
uuHe_19 0.0000e+00 1 1  ON 39
uuHe_20 0.0000e+00 1 1  ON 40
uuHe_21 0.0000e+00 1 1  ON 41
uuHe_22 0.0000e+00 1 1  ON 42
uuHe_23 0.0000e+00 1 1  ON 43
uuHe_24 0.0000e+00 1 1  ON 44
uuHe_25 0.0000e+00 1 1  ON 45
udHe_0 1.4934e-02 1 1  ON 46
udHe_1 8.3378e-03 1 1  ON 47
udHe_2 7.6958e-04 1 1  ON 48
udHe_3 -1.3155e-02 1 1  ON 49
udHe_4 1.3966e-02 1 1  ON 50
udHe_5 2.3062e-02 1 1  ON 51
udHe_6 -1.4082e-02 1 1  ON 52
udHe_7 -3.3543e-03 1 1  ON 53
udHe_8 9.1146e-04 1 1  ON 54
udHe_9 1.6103e-02 1 1  ON 55
udHe_10 -4.4398e-04 1 1  ON 56
udHe_11 -1.7822e-03 1 1  ON 57
udHe_12 -1.7368e-02 1 1  ON 58
udHe_13 1.5165e-02 1 1  ON 59
udHe_14 5.9492e-03 1 1  ON 60
udHe_15 2.1278e-02 1 1  ON 61
udHe_16 1.1471e-02 1 1  ON 62
udHe_17 -4.7597e-03 1 1  ON 63
udHe_18 -2.6320e-05 1 1  ON 64
udHe_19 -6.8701e-03 1 1  ON 65
udHe_20 3.7511e-02 1 1  ON 66
udHe_21 1.5856e-02 1 1  ON 67
udHe_22 -8.8753e-03 1 1  ON 68
udHe_23 2.8604e-02 1 1  ON 69
udHe_24 9.4859e-03 1 1  ON 70
udHe_25 -1.6025e-02 1 1  ON 71
  </optVariables>
   Restore the number of walkers to 1, removing 0 walkers.
</opt>
</optimization-report>
  QMC Execution time = 1.1727e+00 secs
  Reusing QMCFixedSampleLinearOptimize
 Using QMCCostFunction::QMCCostFunction

=========================================================
  Start QMCFixedSampleLinearOptimize
  File Root He.log.s004 append = no 
=========================================================
  Skip QMCDriver::putQMCInfo 
  Resetting Properties of the walkers 1 x 13

=========================================================
  Start VMC
  File Root He.log.s004 append = no 
=========================================================
Using existing walkers 
  Resetting Properties of the walkers 1 x 13

<vmc function="put">
  qmc_counter=3  my_counter=3
  time step      = 1.5000e-01
  blocks         = 300
  steps          = 2
  substeps       = 5
  current        = 0
  target samples = 5.1200e+05
  walkers/mpi    = 1

  stepsbetweensamples = 1
<parameter name="blocks" condition="int">300</parameter>
<parameter name="blocks_between_recompute" condition="int">0</parameter>
<parameter name="check_properties" condition="int">100</parameter>
<parameter name="checkproperties" condition="int">100</parameter>
<parameter name="current" condition="int">0</parameter>
<parameter name="dmcwalkersperthread" condition="real">5.0000e+02</parameter>
<parameter name="maxcpusecs" condition="real">3.6000e+05</parameter>
<parameter name="record_configs" condition="int">0</parameter>
<parameter name="record_walkers" condition="int">1</parameter>
<parameter name="recordconfigs" condition="int">0</parameter>
<parameter name="recordwalkers" condition="int">1</parameter>
<parameter name="rewind" condition="int">0</parameter>
<parameter name="samples" condition="real">5.1200e+05</parameter>
<parameter name="samplesperthread" condition="real">5.0000e+02</parameter>
<parameter name="steps" condition="int">2</parameter>
<parameter name="stepsbetweensamples" condition="int">1</parameter>
<parameter name="store_configs" condition="int">0</parameter>
<parameter name="storeconfigs" condition="int">0</parameter>
<parameter name="sub_steps" condition="int">5</parameter>
<parameter name="substeps" condition="int">5</parameter>
<parameter name="tau" condition="au">1.5000e-01</parameter>
<parameter name="time_step" condition="au">1.5000e-01</parameter>
<parameter name="timestep" condition="au">1.5000e-01</parameter>
<parameter name="use_drift" condition="string">no</parameter>
<parameter name="usedrift" condition="string">no</parameter>
<parameter name="walkers" condition="int">1</parameter>
<parameter name="warmup_steps" condition="int">0</parameter>
<parameter name="warmupsteps" condition="int">0</parameter>
  DumpConfig==false Nothing (configurations, state) will be saved.
  Walker Samples are dumped every 1 steps.
</vmc>
  EstimatorManagerBase::add replace LocalEnergy estimator.
  EstimatorManagerBase::add replace LocalEnergy estimator.
<optimization-report>
<vmc stage="main" blocks="300">
  Cannot make clones again. Use existing 1 clones
  Initial partition of walkers 0 1 
  Using Particle by Particle moves
  Walker moves without drift
  Total Sample Size   =512000
  Walker distribution on root = 0 1 
  Using Locality Approximation
===== Memory Usage after the buffer registration =====
Available memory on node 0, free + buffers : 86649 MB
Memory footprint by rank 0 on node 0       : 89 MB
==================================================
====================================================
  SimpleFixedNodeBranch::finalize after a VMC block
    QMC counter        = 4
    time step          = 0.15
    reference energy   = -2.90563
    reference variance = 0.00612664
====================================================
  Execution time = 9.9506e-01
</vmc>
<opt stage="setup">
  <log>
   Reading configurations from h5FileRoot He.log.s004
  QMCCostFunction is created with 1 threads.
  Using Nonlocal PP in Opt: NonLocalECP
   Number of samples loaded to each thread : 500 
  VMC Eavg = -2.9030e+00
  VMC Evar = 6.3530e-03
  Total weights = 5.1200e+05
  Execution time = 4.1606e-02
  </log>
</opt>
<opt stage="main" walkers="512000">
  <log>

*****************************************
Building overlap and Hamiltonian matrices
*****************************************

Among totally 72 optimized parameters, largest LM parameter change : 1.2296e-02 at parameter 10

******************************************************************************
Init Cost =  -2.7575e+00    New Cost =  -2.7576e+00  Delta Cost =  -2.6737e-05
******************************************************************************

The new set of parameters is valid. Updating the trial wave function!

*****************************************************************************
Applying the update for shift_i =   1.0000e-02     and shift_s =   3.9062e-03
*****************************************************************************
  Execution time = 1.1914e+00
  </log>
  <optVariables href="He.log.s004.opt.xml">
ud_0 6.2233e-01 1 1  ON 0
ud_1 4.8781e-01 1 1  ON 1
ud_2 3.7908e-01 1 1  ON 2
ud_3 2.9284e-01 1 1  ON 3
ud_4 2.2349e-01 1 1  ON 4
ud_5 1.6797e-01 1 1  ON 5
ud_6 1.2103e-01 1 1  ON 6
ud_7 7.8052e-02 1 1  ON 7
ud_8 4.1253e-02 1 1  ON 8
ud_9 1.5234e-02 1 1  ON 9
eHe_0 -4.0694e-01 1 1  ON 10
eHe_1 -3.8484e-01 1 1  ON 11
eHe_2 -3.2508e-01 1 1  ON 12
eHe_3 -2.4438e-01 1 1  ON 13
eHe_4 -1.5819e-01 1 1  ON 14
eHe_5 -8.3710e-02 1 1  ON 15
eHe_6 -5.2693e-02 1 1  ON 16
eHe_7 -1.9045e-02 1 1  ON 17
eHe_8 4.4015e-04 1 1  ON 18
eHe_9 1.6220e-02 1 1  ON 19
uuHe_0 0.0000e+00 1 1  ON 20
uuHe_1 0.0000e+00 1 1  ON 21
uuHe_2 0.0000e+00 1 1  ON 22
uuHe_3 0.0000e+00 1 1  ON 23
uuHe_4 0.0000e+00 1 1  ON 24
uuHe_5 0.0000e+00 1 1  ON 25
uuHe_6 0.0000e+00 1 1  ON 26
uuHe_7 0.0000e+00 1 1  ON 27
uuHe_8 0.0000e+00 1 1  ON 28
uuHe_9 0.0000e+00 1 1  ON 29
uuHe_10 0.0000e+00 1 1  ON 30
uuHe_11 0.0000e+00 1 1  ON 31
uuHe_12 0.0000e+00 1 1  ON 32
uuHe_13 0.0000e+00 1 1  ON 33
uuHe_14 0.0000e+00 1 1  ON 34
uuHe_15 0.0000e+00 1 1  ON 35
uuHe_16 0.0000e+00 1 1  ON 36
uuHe_17 0.0000e+00 1 1  ON 37
uuHe_18 0.0000e+00 1 1  ON 38
uuHe_19 0.0000e+00 1 1  ON 39
uuHe_20 0.0000e+00 1 1  ON 40
uuHe_21 0.0000e+00 1 1  ON 41
uuHe_22 0.0000e+00 1 1  ON 42
uuHe_23 0.0000e+00 1 1  ON 43
uuHe_24 0.0000e+00 1 1  ON 44
uuHe_25 0.0000e+00 1 1  ON 45
udHe_0 1.6837e-02 1 1  ON 46
udHe_1 8.2037e-03 1 1  ON 47
udHe_2 -3.4540e-03 1 1  ON 48
udHe_3 -1.3439e-02 1 1  ON 49
udHe_4 1.6316e-02 1 1  ON 50
udHe_5 2.3483e-02 1 1  ON 51
udHe_6 -1.7658e-02 1 1  ON 52
udHe_7 -4.4416e-03 1 1  ON 53
udHe_8 4.6159e-03 1 1  ON 54
udHe_9 1.6631e-02 1 1  ON 55
udHe_10 -1.9301e-03 1 1  ON 56
udHe_11 -2.3444e-03 1 1  ON 57
udHe_12 -2.0552e-02 1 1  ON 58
udHe_13 1.4621e-02 1 1  ON 59
udHe_14 3.2337e-03 1 1  ON 60
udHe_15 2.4168e-02 1 1  ON 61
udHe_16 1.1482e-02 1 1  ON 62
udHe_17 -6.1750e-03 1 1  ON 63
udHe_18 -3.1977e-04 1 1  ON 64
udHe_19 -6.9115e-03 1 1  ON 65
udHe_20 4.1481e-02 1 1  ON 66
udHe_21 1.8531e-02 1 1  ON 67
udHe_22 -8.5643e-03 1 1  ON 68
udHe_23 3.3320e-02 1 1  ON 69
udHe_24 1.1371e-02 1 1  ON 70
udHe_25 -1.8496e-02 1 1  ON 71
  </optVariables>
   Restore the number of walkers to 1, removing 0 walkers.
</opt>
</optimization-report>
  QMC Execution time = 1.2034e+00 secs
  Reusing QMCFixedSampleLinearOptimize
 Using QMCCostFunction::QMCCostFunction

=========================================================
  Start QMCFixedSampleLinearOptimize
  File Root He.log.s005 append = no 
=========================================================
  Skip QMCDriver::putQMCInfo 
  Resetting Properties of the walkers 1 x 13

=========================================================
  Start VMC
  File Root He.log.s005 append = no 
=========================================================
Using existing walkers 
  Resetting Properties of the walkers 1 x 13

<vmc function="put">
  qmc_counter=4  my_counter=4
  time step      = 1.5000e-01
  blocks         = 300
  steps          = 2
  substeps       = 5
  current        = 0
  target samples = 5.1200e+05
  walkers/mpi    = 1

  stepsbetweensamples = 1
<parameter name="blocks" condition="int">300</parameter>
<parameter name="blocks_between_recompute" condition="int">0</parameter>
<parameter name="check_properties" condition="int">100</parameter>
<parameter name="checkproperties" condition="int">100</parameter>
<parameter name="current" condition="int">0</parameter>
<parameter name="dmcwalkersperthread" condition="real">5.0000e+02</parameter>
<parameter name="maxcpusecs" condition="real">3.6000e+05</parameter>
<parameter name="record_configs" condition="int">0</parameter>
<parameter name="record_walkers" condition="int">1</parameter>
<parameter name="recordconfigs" condition="int">0</parameter>
<parameter name="recordwalkers" condition="int">1</parameter>
<parameter name="rewind" condition="int">0</parameter>
<parameter name="samples" condition="real">5.1200e+05</parameter>
<parameter name="samplesperthread" condition="real">5.0000e+02</parameter>
<parameter name="steps" condition="int">2</parameter>
<parameter name="stepsbetweensamples" condition="int">1</parameter>
<parameter name="store_configs" condition="int">0</parameter>
<parameter name="storeconfigs" condition="int">0</parameter>
<parameter name="sub_steps" condition="int">5</parameter>
<parameter name="substeps" condition="int">5</parameter>
<parameter name="tau" condition="au">1.5000e-01</parameter>
<parameter name="time_step" condition="au">1.5000e-01</parameter>
<parameter name="timestep" condition="au">1.5000e-01</parameter>
<parameter name="use_drift" condition="string">no</parameter>
<parameter name="usedrift" condition="string">no</parameter>
<parameter name="walkers" condition="int">1</parameter>
<parameter name="warmup_steps" condition="int">0</parameter>
<parameter name="warmupsteps" condition="int">0</parameter>
  DumpConfig==false Nothing (configurations, state) will be saved.
  Walker Samples are dumped every 1 steps.
</vmc>
  EstimatorManagerBase::add replace LocalEnergy estimator.
  EstimatorManagerBase::add replace LocalEnergy estimator.
<optimization-report>
<vmc stage="main" blocks="300">
  Cannot make clones again. Use existing 1 clones
  Initial partition of walkers 0 1 
  Using Particle by Particle moves
  Walker moves without drift
  Total Sample Size   =512000
  Walker distribution on root = 0 1 
  Using Locality Approximation
===== Memory Usage after the buffer registration =====
Available memory on node 0, free + buffers : 86645 MB
Memory footprint by rank 0 on node 0       : 91 MB
==================================================
====================================================
  SimpleFixedNodeBranch::finalize after a VMC block
    QMC counter        = 5
    time step          = 0.15
    reference energy   = -2.90389
    reference variance = 0.00748634
====================================================
  Execution time = 9.8995e-01
</vmc>
<opt stage="setup">
  <log>
   Reading configurations from h5FileRoot He.log.s005
  QMCCostFunction is created with 1 threads.
  Using Nonlocal PP in Opt: NonLocalECP
   Number of samples loaded to each thread : 500 
  VMC Eavg = -2.9030e+00
  VMC Evar = 6.3617e-03
  Total weights = 5.1200e+05
  Execution time = 5.2709e-02
  </log>
</opt>
<opt stage="main" walkers="512000">
  <log>

*****************************************
Building overlap and Hamiltonian matrices
*****************************************

Among totally 72 optimized parameters, largest LM parameter change : 1.0253e-02 at parameter 10

******************************************************************************
Init Cost =  -2.7575e+00    New Cost =  -2.7575e+00  Delta Cost =  -2.9871e-05
******************************************************************************

The new set of parameters is valid. Updating the trial wave function!

*****************************************************************************
Applying the update for shift_i =   1.0000e-02     and shift_s =   3.9062e-03
*****************************************************************************
  Execution time = 1.2207e+00
  </log>
  <optVariables href="He.log.s005.opt.xml">
ud_0 6.2598e-01 1 1  ON 0
ud_1 4.9170e-01 1 1  ON 1
ud_2 3.8300e-01 1 1  ON 2
ud_3 2.9662e-01 1 1  ON 3
ud_4 2.2720e-01 1 1  ON 4
ud_5 1.7154e-01 1 1  ON 5
ud_6 1.2440e-01 1 1  ON 6
ud_7 8.1129e-02 1 1  ON 7
ud_8 4.3671e-02 1 1  ON 8
ud_9 1.6924e-02 1 1  ON 9
eHe_0 -4.1720e-01 1 1  ON 10
eHe_1 -3.9446e-01 1 1  ON 11
eHe_2 -3.3484e-01 1 1  ON 12
eHe_3 -2.5387e-01 1 1  ON 13
eHe_4 -1.6685e-01 1 1  ON 14
eHe_5 -9.1206e-02 1 1  ON 15
eHe_6 -5.9891e-02 1 1  ON 16
eHe_7 -2.5261e-02 1 1  ON 17
eHe_8 -4.3872e-03 1 1  ON 18
eHe_9 1.3110e-02 1 1  ON 19
uuHe_0 0.0000e+00 1 1  ON 20
uuHe_1 0.0000e+00 1 1  ON 21
uuHe_2 0.0000e+00 1 1  ON 22
uuHe_3 0.0000e+00 1 1  ON 23
uuHe_4 0.0000e+00 1 1  ON 24
uuHe_5 0.0000e+00 1 1  ON 25
uuHe_6 0.0000e+00 1 1  ON 26
uuHe_7 0.0000e+00 1 1  ON 27
uuHe_8 0.0000e+00 1 1  ON 28
uuHe_9 0.0000e+00 1 1  ON 29
uuHe_10 0.0000e+00 1 1  ON 30
uuHe_11 0.0000e+00 1 1  ON 31
uuHe_12 0.0000e+00 1 1  ON 32
uuHe_13 0.0000e+00 1 1  ON 33
uuHe_14 0.0000e+00 1 1  ON 34
uuHe_15 0.0000e+00 1 1  ON 35
uuHe_16 0.0000e+00 1 1  ON 36
uuHe_17 0.0000e+00 1 1  ON 37
uuHe_18 0.0000e+00 1 1  ON 38
uuHe_19 0.0000e+00 1 1  ON 39
uuHe_20 0.0000e+00 1 1  ON 40
uuHe_21 0.0000e+00 1 1  ON 41
uuHe_22 0.0000e+00 1 1  ON 42
uuHe_23 0.0000e+00 1 1  ON 43
uuHe_24 0.0000e+00 1 1  ON 44
uuHe_25 0.0000e+00 1 1  ON 45
udHe_0 1.8216e-02 1 1  ON 46
udHe_1 7.6486e-03 1 1  ON 47
udHe_2 -6.3094e-03 1 1  ON 48
udHe_3 -1.3676e-02 1 1  ON 49
udHe_4 1.7958e-02 1 1  ON 50
udHe_5 2.3856e-02 1 1  ON 51
udHe_6 -2.1289e-02 1 1  ON 52
udHe_7 -5.4918e-03 1 1  ON 53
udHe_8 7.8209e-03 1 1  ON 54
udHe_9 1.7764e-02 1 1  ON 55
udHe_10 -2.9197e-03 1 1  ON 56
udHe_11 -2.3806e-03 1 1  ON 57
udHe_12 -2.3241e-02 1 1  ON 58
udHe_13 1.3830e-02 1 1  ON 59
udHe_14 9.4548e-04 1 1  ON 60
udHe_15 2.6280e-02 1 1  ON 61
udHe_16 1.1429e-02 1 1  ON 62
udHe_17 -7.3057e-03 1 1  ON 63
udHe_18 -4.1121e-04 1 1  ON 64
udHe_19 -6.8854e-03 1 1  ON 65
udHe_20 4.4104e-02 1 1  ON 66
udHe_21 2.0772e-02 1 1  ON 67
udHe_22 -8.2573e-03 1 1  ON 68
udHe_23 3.6804e-02 1 1  ON 69
udHe_24 1.2834e-02 1 1  ON 70
udHe_25 -2.0677e-02 1 1  ON 71
  </optVariables>
   Restore the number of walkers to 1, removing 0 walkers.
</opt>
</optimization-report>
  QMC Execution time = 1.2322e+00 secs
  Reusing QMCFixedSampleLinearOptimize
 Using QMCCostFunction::QMCCostFunction

=========================================================
  Start QMCFixedSampleLinearOptimize
  File Root He.log.s006 append = no 
=========================================================
  Skip QMCDriver::putQMCInfo 
  Resetting Properties of the walkers 1 x 13

=========================================================
  Start VMC
  File Root He.log.s006 append = no 
=========================================================
Using existing walkers 
  Resetting Properties of the walkers 1 x 13

<vmc function="put">
  qmc_counter=5  my_counter=5
  time step      = 1.5000e-01
  blocks         = 300
  steps          = 2
  substeps       = 5
  current        = 0
  target samples = 5.1200e+05
  walkers/mpi    = 1

  stepsbetweensamples = 1
<parameter name="blocks" condition="int">300</parameter>
<parameter name="blocks_between_recompute" condition="int">0</parameter>
<parameter name="check_properties" condition="int">100</parameter>
<parameter name="checkproperties" condition="int">100</parameter>
<parameter name="current" condition="int">0</parameter>
<parameter name="dmcwalkersperthread" condition="real">5.0000e+02</parameter>
<parameter name="maxcpusecs" condition="real">3.6000e+05</parameter>
<parameter name="record_configs" condition="int">0</parameter>
<parameter name="record_walkers" condition="int">1</parameter>
<parameter name="recordconfigs" condition="int">0</parameter>
<parameter name="recordwalkers" condition="int">1</parameter>
<parameter name="rewind" condition="int">0</parameter>
<parameter name="samples" condition="real">5.1200e+05</parameter>
<parameter name="samplesperthread" condition="real">5.0000e+02</parameter>
<parameter name="steps" condition="int">2</parameter>
<parameter name="stepsbetweensamples" condition="int">1</parameter>
<parameter name="store_configs" condition="int">0</parameter>
<parameter name="storeconfigs" condition="int">0</parameter>
<parameter name="sub_steps" condition="int">5</parameter>
<parameter name="substeps" condition="int">5</parameter>
<parameter name="tau" condition="au">1.5000e-01</parameter>
<parameter name="time_step" condition="au">1.5000e-01</parameter>
<parameter name="timestep" condition="au">1.5000e-01</parameter>
<parameter name="use_drift" condition="string">no</parameter>
<parameter name="usedrift" condition="string">no</parameter>
<parameter name="walkers" condition="int">1</parameter>
<parameter name="warmup_steps" condition="int">0</parameter>
<parameter name="warmupsteps" condition="int">0</parameter>
  DumpConfig==false Nothing (configurations, state) will be saved.
  Walker Samples are dumped every 1 steps.
</vmc>
  EstimatorManagerBase::add replace LocalEnergy estimator.
  EstimatorManagerBase::add replace LocalEnergy estimator.
<optimization-report>
<vmc stage="main" blocks="300">
  Cannot make clones again. Use existing 1 clones
  Initial partition of walkers 0 1 
  Using Particle by Particle moves
  Walker moves without drift
  Total Sample Size   =512000
  Walker distribution on root = 0 1 
  Using Locality Approximation
===== Memory Usage after the buffer registration =====
Available memory on node 0, free + buffers : 86642 MB
Memory footprint by rank 0 on node 0       : 93 MB
==================================================
====================================================
  SimpleFixedNodeBranch::finalize after a VMC block
    QMC counter        = 6
    time step          = 0.15
    reference energy   = -2.9051
    reference variance = 0.00665211
====================================================
  Execution time = 1.0036e+00
</vmc>
<opt stage="setup">
  <log>
   Reading configurations from h5FileRoot He.log.s006
  QMCCostFunction is created with 1 threads.
  Using Nonlocal PP in Opt: NonLocalECP
   Number of samples loaded to each thread : 500 
  VMC Eavg = -2.9030e+00
  VMC Evar = 6.3677e-03
  Total weights = 5.1200e+05
  Execution time = 4.0884e-02
  </log>
</opt>
<opt stage="main" walkers="512000">
  <log>

*****************************************
Building overlap and Hamiltonian matrices
*****************************************

Among totally 72 optimized parameters, largest LM parameter change : 8.0969e-03 at parameter 10

******************************************************************************
Init Cost =  -2.7575e+00    New Cost =  -2.7575e+00  Delta Cost =  -9.1178e-06
******************************************************************************

The new set of parameters is valid. Updating the trial wave function!

*****************************************************************************
Applying the update for shift_i =   1.0000e-02     and shift_s =   3.9062e-03
*****************************************************************************
  Execution time = 1.2048e+00
  </log>
  <optVariables href="He.log.s006.opt.xml">
ud_0 6.2960e-01 1 1  ON 0
ud_1 4.9548e-01 1 1  ON 1
ud_2 3.8688e-01 1 1  ON 2
ud_3 3.0056e-01 1 1  ON 3
ud_4 2.3118e-01 1 1  ON 4
ud_5 1.7537e-01 1 1  ON 5
ud_6 1.2804e-01 1 1  ON 6
ud_7 8.4489e-02 1 1  ON 7
ud_8 4.6248e-02 1 1  ON 8
ud_9 1.8876e-02 1 1  ON 9
eHe_0 -4.2529e-01 1 1  ON 10
eHe_1 -4.0213e-01 1 1  ON 11
eHe_2 -3.4256e-01 1 1  ON 12
eHe_3 -2.6148e-01 1 1  ON 13
eHe_4 -1.7383e-01 1 1  ON 14
eHe_5 -9.6957e-02 1 1  ON 15
eHe_6 -6.5429e-02 1 1  ON 16
eHe_7 -3.0040e-02 1 1  ON 17
eHe_8 -8.3523e-03 1 1  ON 18
eHe_9 9.8087e-03 1 1  ON 19
uuHe_0 0.0000e+00 1 1  ON 20
uuHe_1 0.0000e+00 1 1  ON 21
uuHe_2 0.0000e+00 1 1  ON 22
uuHe_3 0.0000e+00 1 1  ON 23
uuHe_4 0.0000e+00 1 1  ON 24
uuHe_5 0.0000e+00 1 1  ON 25
uuHe_6 0.0000e+00 1 1  ON 26
uuHe_7 0.0000e+00 1 1  ON 27
uuHe_8 0.0000e+00 1 1  ON 28
uuHe_9 0.0000e+00 1 1  ON 29
uuHe_10 0.0000e+00 1 1  ON 30
uuHe_11 0.0000e+00 1 1  ON 31
uuHe_12 0.0000e+00 1 1  ON 32
uuHe_13 0.0000e+00 1 1  ON 33
uuHe_14 0.0000e+00 1 1  ON 34
uuHe_15 0.0000e+00 1 1  ON 35
uuHe_16 0.0000e+00 1 1  ON 36
uuHe_17 0.0000e+00 1 1  ON 37
uuHe_18 0.0000e+00 1 1  ON 38
uuHe_19 0.0000e+00 1 1  ON 39
uuHe_20 0.0000e+00 1 1  ON 40
uuHe_21 0.0000e+00 1 1  ON 41
uuHe_22 0.0000e+00 1 1  ON 42
uuHe_23 0.0000e+00 1 1  ON 43
uuHe_24 0.0000e+00 1 1  ON 44
uuHe_25 0.0000e+00 1 1  ON 45
udHe_0 1.9064e-02 1 1  ON 46
udHe_1 7.1567e-03 1 1  ON 47
udHe_2 -8.7804e-03 1 1  ON 48
udHe_3 -1.3633e-02 1 1  ON 49
udHe_4 1.9383e-02 1 1  ON 50
udHe_5 2.4170e-02 1 1  ON 51
udHe_6 -2.4462e-02 1 1  ON 52
udHe_7 -6.5548e-03 1 1  ON 53
udHe_8 1.0667e-02 1 1  ON 54
udHe_9 1.9268e-02 1 1  ON 55
udHe_10 -3.7570e-03 1 1  ON 56
udHe_11 -2.3005e-03 1 1  ON 57
udHe_12 -2.5773e-02 1 1  ON 58
udHe_13 1.3088e-02 1 1  ON 59
udHe_14 -1.0894e-03 1 1  ON 60
udHe_15 2.8306e-02 1 1  ON 61
udHe_16 1.1208e-02 1 1  ON 62
udHe_17 -8.3254e-03 1 1  ON 63
udHe_18 -4.3793e-04 1 1  ON 64
udHe_19 -6.9236e-03 1 1  ON 65
udHe_20 4.5968e-02 1 1  ON 66
udHe_21 2.2696e-02 1 1  ON 67
udHe_22 -7.9905e-03 1 1  ON 68
udHe_23 3.9621e-02 1 1  ON 69
udHe_24 1.4109e-02 1 1  ON 70
udHe_25 -2.2362e-02 1 1  ON 71
  </optVariables>
   Restore the number of walkers to 1, removing 0 walkers.
</opt>
</optimization-report>
  QMC Execution time = 1.2167e+00 secs
  Reusing QMCFixedSampleLinearOptimize
 Using QMCCostFunction::QMCCostFunction

=========================================================
  Start QMCFixedSampleLinearOptimize
  File Root He.log.s007 append = no 
=========================================================
  Skip QMCDriver::putQMCInfo 
  Resetting Properties of the walkers 1 x 13

=========================================================
  Start VMC
  File Root He.log.s007 append = no 
=========================================================
Using existing walkers 
  Resetting Properties of the walkers 1 x 13

<vmc function="put">
  qmc_counter=6  my_counter=6
  time step      = 1.5000e-01
  blocks         = 300
  steps          = 2
  substeps       = 5
  current        = 0
  target samples = 5.1200e+05
  walkers/mpi    = 1

  stepsbetweensamples = 1
<parameter name="blocks" condition="int">300</parameter>
<parameter name="blocks_between_recompute" condition="int">0</parameter>
<parameter name="check_properties" condition="int">100</parameter>
<parameter name="checkproperties" condition="int">100</parameter>
<parameter name="current" condition="int">0</parameter>
<parameter name="dmcwalkersperthread" condition="real">5.0000e+02</parameter>
<parameter name="maxcpusecs" condition="real">3.6000e+05</parameter>
<parameter name="record_configs" condition="int">0</parameter>
<parameter name="record_walkers" condition="int">1</parameter>
<parameter name="recordconfigs" condition="int">0</parameter>
<parameter name="recordwalkers" condition="int">1</parameter>
<parameter name="rewind" condition="int">0</parameter>
<parameter name="samples" condition="real">5.1200e+05</parameter>
<parameter name="samplesperthread" condition="real">5.0000e+02</parameter>
<parameter name="steps" condition="int">2</parameter>
<parameter name="stepsbetweensamples" condition="int">1</parameter>
<parameter name="store_configs" condition="int">0</parameter>
<parameter name="storeconfigs" condition="int">0</parameter>
<parameter name="sub_steps" condition="int">5</parameter>
<parameter name="substeps" condition="int">5</parameter>
<parameter name="tau" condition="au">1.5000e-01</parameter>
<parameter name="time_step" condition="au">1.5000e-01</parameter>
<parameter name="timestep" condition="au">1.5000e-01</parameter>
<parameter name="use_drift" condition="string">no</parameter>
<parameter name="usedrift" condition="string">no</parameter>
<parameter name="walkers" condition="int">1</parameter>
<parameter name="warmup_steps" condition="int">0</parameter>
<parameter name="warmupsteps" condition="int">0</parameter>
  DumpConfig==false Nothing (configurations, state) will be saved.
  Walker Samples are dumped every 1 steps.
</vmc>
  EstimatorManagerBase::add replace LocalEnergy estimator.
  EstimatorManagerBase::add replace LocalEnergy estimator.
<optimization-report>
<vmc stage="main" blocks="300">
  Cannot make clones again. Use existing 1 clones
  Initial partition of walkers 0 1 
  Using Particle by Particle moves
  Walker moves without drift
  Total Sample Size   =512000
  Walker distribution on root = 0 1 
  Using Locality Approximation
===== Memory Usage after the buffer registration =====
Available memory on node 0, free + buffers : 86640 MB
Memory footprint by rank 0 on node 0       : 95 MB
==================================================
====================================================
  SimpleFixedNodeBranch::finalize after a VMC block
    QMC counter        = 7
    time step          = 0.15
    reference energy   = -2.90048
    reference variance = 0.00755763
====================================================
  Execution time = 9.9259e-01
</vmc>
<opt stage="setup">
  <log>
   Reading configurations from h5FileRoot He.log.s007
  QMCCostFunction is created with 1 threads.
  Using Nonlocal PP in Opt: NonLocalECP
   Number of samples loaded to each thread : 500 
  VMC Eavg = -2.9031e+00
  VMC Evar = 6.4306e-03
  Total weights = 5.1200e+05
  Execution time = 5.1144e-02
  </log>
</opt>
<opt stage="main" walkers="512000">
  <log>

*****************************************
Building overlap and Hamiltonian matrices
*****************************************

Among totally 72 optimized parameters, largest LM parameter change : 6.4144e-03 at parameter 10

******************************************************************************
Init Cost =  -2.7576e+00    New Cost =  -2.7576e+00  Delta Cost =  -4.2412e-06
******************************************************************************

The new set of parameters is valid. Updating the trial wave function!

*****************************************************************************
Applying the update for shift_i =   1.0000e-02     and shift_s =   3.9062e-03
*****************************************************************************
  Execution time = 1.1789e+00
  </log>
  <optVariables href="He.log.s007.opt.xml">
ud_0 6.3250e-01 1 1  ON 0
ud_1 4.9835e-01 1 1  ON 1
ud_2 3.8973e-01 1 1  ON 2
ud_3 3.0328e-01 1 1  ON 3
ud_4 2.3389e-01 1 1  ON 4
ud_5 1.7792e-01 1 1  ON 5
ud_6 1.3040e-01 1 1  ON 6
ud_7 8.6579e-02 1 1  ON 7
ud_8 4.7982e-02 1 1  ON 8
ud_9 1.9991e-02 1 1  ON 9
eHe_0 -4.3171e-01 1 1  ON 10
eHe_1 -4.0817e-01 1 1  ON 11
eHe_2 -3.4861e-01 1 1  ON 12
eHe_3 -2.6729e-01 1 1  ON 13
eHe_4 -1.7940e-01 1 1  ON 14
eHe_5 -1.0209e-01 1 1  ON 15
eHe_6 -7.0529e-02 1 1  ON 16
eHe_7 -3.4884e-02 1 1  ON 17
eHe_8 -1.2072e-02 1 1  ON 18
eHe_9 7.1190e-03 1 1  ON 19
uuHe_0 0.0000e+00 1 1  ON 20
uuHe_1 0.0000e+00 1 1  ON 21
uuHe_2 0.0000e+00 1 1  ON 22
uuHe_3 0.0000e+00 1 1  ON 23
uuHe_4 0.0000e+00 1 1  ON 24
uuHe_5 0.0000e+00 1 1  ON 25
uuHe_6 0.0000e+00 1 1  ON 26
uuHe_7 0.0000e+00 1 1  ON 27
uuHe_8 0.0000e+00 1 1  ON 28
uuHe_9 0.0000e+00 1 1  ON 29
uuHe_10 0.0000e+00 1 1  ON 30
uuHe_11 0.0000e+00 1 1  ON 31
uuHe_12 0.0000e+00 1 1  ON 32
uuHe_13 0.0000e+00 1 1  ON 33
uuHe_14 0.0000e+00 1 1  ON 34
uuHe_15 0.0000e+00 1 1  ON 35
uuHe_16 0.0000e+00 1 1  ON 36
uuHe_17 0.0000e+00 1 1  ON 37
uuHe_18 0.0000e+00 1 1  ON 38
uuHe_19 0.0000e+00 1 1  ON 39
uuHe_20 0.0000e+00 1 1  ON 40
uuHe_21 0.0000e+00 1 1  ON 41
uuHe_22 0.0000e+00 1 1  ON 42
uuHe_23 0.0000e+00 1 1  ON 43
uuHe_24 0.0000e+00 1 1  ON 44
uuHe_25 0.0000e+00 1 1  ON 45
udHe_0 1.9912e-02 1 1  ON 46
udHe_1 6.7792e-03 1 1  ON 47
udHe_2 -1.0379e-02 1 1  ON 48
udHe_3 -1.3964e-02 1 1  ON 49
udHe_4 2.0128e-02 1 1  ON 50
udHe_5 2.4266e-02 1 1  ON 51
udHe_6 -2.7406e-02 1 1  ON 52
udHe_7 -7.5855e-03 1 1  ON 53
udHe_8 1.3028e-02 1 1  ON 54
udHe_9 2.0828e-02 1 1  ON 55
udHe_10 -4.2346e-03 1 1  ON 56
udHe_11 -2.0282e-03 1 1  ON 57
udHe_12 -2.7915e-02 1 1  ON 58
udHe_13 1.1999e-02 1 1  ON 59
udHe_14 -2.9185e-03 1 1  ON 60
udHe_15 2.9839e-02 1 1  ON 61
udHe_16 1.0672e-02 1 1  ON 62
udHe_17 -9.1455e-03 1 1  ON 63
udHe_18 -3.0218e-04 1 1  ON 64
udHe_19 -6.7999e-03 1 1  ON 65
udHe_20 4.6791e-02 1 1  ON 66
udHe_21 2.4351e-02 1 1  ON 67
udHe_22 -7.7289e-03 1 1  ON 68
udHe_23 4.1623e-02 1 1  ON 69
udHe_24 1.5013e-02 1 1  ON 70
udHe_25 -2.4081e-02 1 1  ON 71
  </optVariables>
   Restore the number of walkers to 1, removing 0 walkers.
</opt>
</optimization-report>
  QMC Execution time = 1.1907e+00 secs
  Reusing QMCFixedSampleLinearOptimize
 Using QMCCostFunction::QMCCostFunction

=========================================================
  Start QMCFixedSampleLinearOptimize
  File Root He.log.s008 append = no 
=========================================================
  Skip QMCDriver::putQMCInfo 
  Resetting Properties of the walkers 1 x 13

=========================================================
  Start VMC
  File Root He.log.s008 append = no 
=========================================================
Using existing walkers 
  Resetting Properties of the walkers 1 x 13

<vmc function="put">
  qmc_counter=7  my_counter=7
  time step      = 1.5000e-01
  blocks         = 300
  steps          = 2
  substeps       = 5
  current        = 0
  target samples = 5.1200e+05
  walkers/mpi    = 1

  stepsbetweensamples = 1
<parameter name="blocks" condition="int">300</parameter>
<parameter name="blocks_between_recompute" condition="int">0</parameter>
<parameter name="check_properties" condition="int">100</parameter>
<parameter name="checkproperties" condition="int">100</parameter>
<parameter name="current" condition="int">0</parameter>
<parameter name="dmcwalkersperthread" condition="real">5.0000e+02</parameter>
<parameter name="maxcpusecs" condition="real">3.6000e+05</parameter>
<parameter name="record_configs" condition="int">0</parameter>
<parameter name="record_walkers" condition="int">1</parameter>
<parameter name="recordconfigs" condition="int">0</parameter>
<parameter name="recordwalkers" condition="int">1</parameter>
<parameter name="rewind" condition="int">0</parameter>
<parameter name="samples" condition="real">5.1200e+05</parameter>
<parameter name="samplesperthread" condition="real">5.0000e+02</parameter>
<parameter name="steps" condition="int">2</parameter>
<parameter name="stepsbetweensamples" condition="int">1</parameter>
<parameter name="store_configs" condition="int">0</parameter>
<parameter name="storeconfigs" condition="int">0</parameter>
<parameter name="sub_steps" condition="int">5</parameter>
<parameter name="substeps" condition="int">5</parameter>
<parameter name="tau" condition="au">1.5000e-01</parameter>
<parameter name="time_step" condition="au">1.5000e-01</parameter>
<parameter name="timestep" condition="au">1.5000e-01</parameter>
<parameter name="use_drift" condition="string">no</parameter>
<parameter name="usedrift" condition="string">no</parameter>
<parameter name="walkers" condition="int">1</parameter>
<parameter name="warmup_steps" condition="int">0</parameter>
<parameter name="warmupsteps" condition="int">0</parameter>
  DumpConfig==false Nothing (configurations, state) will be saved.
  Walker Samples are dumped every 1 steps.
</vmc>
  EstimatorManagerBase::add replace LocalEnergy estimator.
  EstimatorManagerBase::add replace LocalEnergy estimator.
<optimization-report>
<vmc stage="main" blocks="300">
  Cannot make clones again. Use existing 1 clones
  Initial partition of walkers 0 1 
  Using Particle by Particle moves
  Walker moves without drift
  Total Sample Size   =512000
  Walker distribution on root = 0 1 
  Using Locality Approximation
===== Memory Usage after the buffer registration =====
Available memory on node 0, free + buffers : 86636 MB
Memory footprint by rank 0 on node 0       : 98 MB
==================================================
====================================================
  SimpleFixedNodeBranch::finalize after a VMC block
    QMC counter        = 8
    time step          = 0.15
    reference energy   = -2.90199
    reference variance = 0.00721005
====================================================
  Execution time = 1.0208e+00
</vmc>
<opt stage="setup">
  <log>
   Reading configurations from h5FileRoot He.log.s008
  QMCCostFunction is created with 1 threads.
  Using Nonlocal PP in Opt: NonLocalECP
   Number of samples loaded to each thread : 500 
  VMC Eavg = -2.9030e+00
  VMC Evar = 6.4756e-03
  Total weights = 5.1200e+05
  Execution time = 4.0604e-02
  </log>
</opt>
<opt stage="main" walkers="512000">
  <log>

*****************************************
Building overlap and Hamiltonian matrices
*****************************************

Among totally 72 optimized parameters, largest LM parameter change : 5.9070e-03 at parameter 10

******************************************************************************
Init Cost =  -2.7575e+00    New Cost =  -2.7575e+00  Delta Cost =  -2.4864e-06
******************************************************************************

The new set of parameters is valid. Updating the trial wave function!

*****************************************************************************
Applying the update for shift_i =   1.0000e-02     and shift_s =   3.9062e-03
*****************************************************************************
  Execution time = 1.2126e+00
  </log>
  <optVariables href="He.log.s008.opt.xml">
ud_0 6.3511e-01 1 1  ON 0
ud_1 5.0103e-01 1 1  ON 1
ud_2 3.9228e-01 1 1  ON 2
ud_3 3.0570e-01 1 1  ON 3
ud_4 2.3611e-01 1 1  ON 4
ud_5 1.7997e-01 1 1  ON 5
ud_6 1.3233e-01 1 1  ON 6
ud_7 8.8490e-02 1 1  ON 7
ud_8 4.9635e-02 1 1  ON 8
ud_9 2.1322e-02 1 1  ON 9
eHe_0 -4.3761e-01 1 1  ON 10
eHe_1 -4.1384e-01 1 1  ON 11
eHe_2 -3.5440e-01 1 1  ON 12
eHe_3 -2.7285e-01 1 1  ON 13
eHe_4 -1.8438e-01 1 1  ON 14
eHe_5 -1.0612e-01 1 1  ON 15
eHe_6 -7.4389e-02 1 1  ON 16
eHe_7 -3.8530e-02 1 1  ON 17
eHe_8 -1.5373e-02 1 1  ON 18
eHe_9 3.9862e-03 1 1  ON 19
uuHe_0 0.0000e+00 1 1  ON 20
uuHe_1 0.0000e+00 1 1  ON 21
uuHe_2 0.0000e+00 1 1  ON 22
uuHe_3 0.0000e+00 1 1  ON 23
uuHe_4 0.0000e+00 1 1  ON 24
uuHe_5 0.0000e+00 1 1  ON 25
uuHe_6 0.0000e+00 1 1  ON 26
uuHe_7 0.0000e+00 1 1  ON 27
uuHe_8 0.0000e+00 1 1  ON 28
uuHe_9 0.0000e+00 1 1  ON 29
uuHe_10 0.0000e+00 1 1  ON 30
uuHe_11 0.0000e+00 1 1  ON 31
uuHe_12 0.0000e+00 1 1  ON 32
uuHe_13 0.0000e+00 1 1  ON 33
uuHe_14 0.0000e+00 1 1  ON 34
uuHe_15 0.0000e+00 1 1  ON 35
uuHe_16 0.0000e+00 1 1  ON 36
uuHe_17 0.0000e+00 1 1  ON 37
uuHe_18 0.0000e+00 1 1  ON 38
uuHe_19 0.0000e+00 1 1  ON 39
uuHe_20 0.0000e+00 1 1  ON 40
uuHe_21 0.0000e+00 1 1  ON 41
uuHe_22 0.0000e+00 1 1  ON 42
uuHe_23 0.0000e+00 1 1  ON 43
uuHe_24 0.0000e+00 1 1  ON 44
uuHe_25 0.0000e+00 1 1  ON 45
udHe_0 2.0421e-02 1 1  ON 46
udHe_1 6.2898e-03 1 1  ON 47
udHe_2 -1.1624e-02 1 1  ON 48
udHe_3 -1.4001e-02 1 1  ON 49
udHe_4 2.0804e-02 1 1  ON 50
udHe_5 2.4444e-02 1 1  ON 51
udHe_6 -3.0032e-02 1 1  ON 52
udHe_7 -8.5846e-03 1 1  ON 53
udHe_8 1.4972e-02 1 1  ON 54
udHe_9 2.2383e-02 1 1  ON 55
udHe_10 -4.5569e-03 1 1  ON 56
udHe_11 -1.5595e-03 1 1  ON 57
udHe_12 -3.0122e-02 1 1  ON 58
udHe_13 1.1283e-02 1 1  ON 59
udHe_14 -4.2808e-03 1 1  ON 60
udHe_15 3.1339e-02 1 1  ON 61
udHe_16 1.0092e-02 1 1  ON 62
udHe_17 -9.9194e-03 1 1  ON 63
udHe_18 -2.2353e-06 1 1  ON 64
udHe_19 -6.7490e-03 1 1  ON 65
udHe_20 4.7541e-02 1 1  ON 66
udHe_21 2.6123e-02 1 1  ON 67
udHe_22 -7.4573e-03 1 1  ON 68
udHe_23 4.3387e-02 1 1  ON 69
udHe_24 1.5856e-02 1 1  ON 70
udHe_25 -2.5615e-02 1 1  ON 71
  </optVariables>
   Restore the number of walkers to 1, removing 0 walkers.
</opt>
</optimization-report>
  QMC Execution time = 1.2243e+00 secs
  Reusing QMCFixedSampleLinearOptimize
 Using QMCCostFunction::QMCCostFunction

=========================================================
  Start QMCFixedSampleLinearOptimize
  File Root He.log.s009 append = no 
=========================================================
  Skip QMCDriver::putQMCInfo 
  Resetting Properties of the walkers 1 x 13

=========================================================
  Start VMC
  File Root He.log.s009 append = no 
=========================================================
Using existing walkers 
  Resetting Properties of the walkers 1 x 13

<vmc function="put">
  qmc_counter=8  my_counter=8
  time step      = 1.5000e-01
  blocks         = 300
  steps          = 2
  substeps       = 5
  current        = 0
  target samples = 5.1200e+05
  walkers/mpi    = 1

  stepsbetweensamples = 1
<parameter name="blocks" condition="int">300</parameter>
<parameter name="blocks_between_recompute" condition="int">0</parameter>
<parameter name="check_properties" condition="int">100</parameter>
<parameter name="checkproperties" condition="int">100</parameter>
<parameter name="current" condition="int">0</parameter>
<parameter name="dmcwalkersperthread" condition="real">5.0000e+02</parameter>
<parameter name="maxcpusecs" condition="real">3.6000e+05</parameter>
<parameter name="record_configs" condition="int">0</parameter>
<parameter name="record_walkers" condition="int">1</parameter>
<parameter name="recordconfigs" condition="int">0</parameter>
<parameter name="recordwalkers" condition="int">1</parameter>
<parameter name="rewind" condition="int">0</parameter>
<parameter name="samples" condition="real">5.1200e+05</parameter>
<parameter name="samplesperthread" condition="real">5.0000e+02</parameter>
<parameter name="steps" condition="int">2</parameter>
<parameter name="stepsbetweensamples" condition="int">1</parameter>
<parameter name="store_configs" condition="int">0</parameter>
<parameter name="storeconfigs" condition="int">0</parameter>
<parameter name="sub_steps" condition="int">5</parameter>
<parameter name="substeps" condition="int">5</parameter>
<parameter name="tau" condition="au">1.5000e-01</parameter>
<parameter name="time_step" condition="au">1.5000e-01</parameter>
<parameter name="timestep" condition="au">1.5000e-01</parameter>
<parameter name="use_drift" condition="string">no</parameter>
<parameter name="usedrift" condition="string">no</parameter>
<parameter name="walkers" condition="int">1</parameter>
<parameter name="warmup_steps" condition="int">0</parameter>
<parameter name="warmupsteps" condition="int">0</parameter>
  DumpConfig==false Nothing (configurations, state) will be saved.
  Walker Samples are dumped every 1 steps.
</vmc>
  EstimatorManagerBase::add replace LocalEnergy estimator.
  EstimatorManagerBase::add replace LocalEnergy estimator.
<optimization-report>
<vmc stage="main" blocks="300">
  Cannot make clones again. Use existing 1 clones
  Initial partition of walkers 0 1 
  Using Particle by Particle moves
  Walker moves without drift
  Total Sample Size   =512000
  Walker distribution on root = 0 1 
  Using Locality Approximation
===== Memory Usage after the buffer registration =====
Available memory on node 0, free + buffers : 86633 MB
Memory footprint by rank 0 on node 0       : 100 MB
==================================================
====================================================
  SimpleFixedNodeBranch::finalize after a VMC block
    QMC counter        = 9
    time step          = 0.15
    reference energy   = -2.90778
    reference variance = 0.0071353
====================================================
  Execution time = 1.0013e+00
</vmc>
<opt stage="setup">
  <log>
   Reading configurations from h5FileRoot He.log.s009
  QMCCostFunction is created with 1 threads.
  Using Nonlocal PP in Opt: NonLocalECP
   Number of samples loaded to each thread : 500 
  VMC Eavg = -2.9033e+00
  VMC Evar = 6.5246e-03
  Total weights = 5.1200e+05
  Execution time = 4.1329e-02
  </log>
</opt>
<opt stage="main" walkers="512000">
  <log>

*****************************************
Building overlap and Hamiltonian matrices
*****************************************

Among totally 72 optimized parameters, largest LM parameter change : 5.3443e-03 at parameter 10

******************************************************************************
Init Cost =  -2.7578e+00    New Cost =  -2.7578e+00  Delta Cost =  -7.7120e-06
******************************************************************************

The new set of parameters is valid. Updating the trial wave function!

*****************************************************************************
Applying the update for shift_i =   1.0000e-02     and shift_s =   3.9062e-03
*****************************************************************************
  Execution time = 1.1724e+00
  </log>
  <optVariables href="He.log.s009.opt.xml">
ud_0 6.3698e-01 1 1  ON 0
ud_1 5.0291e-01 1 1  ON 1
ud_2 3.9391e-01 1 1  ON 2
ud_3 3.0714e-01 1 1  ON 3
ud_4 2.3746e-01 1 1  ON 4
ud_5 1.8118e-01 1 1  ON 5
ud_6 1.3353e-01 1 1  ON 6
ud_7 8.9617e-02 1 1  ON 7
ud_8 5.0513e-02 1 1  ON 8
ud_9 2.1961e-02 1 1  ON 9
eHe_0 -4.4296e-01 1 1  ON 10
eHe_1 -4.1888e-01 1 1  ON 11
eHe_2 -3.5932e-01 1 1  ON 12
eHe_3 -2.7771e-01 1 1  ON 13
eHe_4 -1.8907e-01 1 1  ON 14
eHe_5 -1.1052e-01 1 1  ON 15
eHe_6 -7.8617e-02 1 1  ON 16
eHe_7 -4.2392e-02 1 1  ON 17
eHe_8 -1.8410e-02 1 1  ON 18
eHe_9 1.7752e-03 1 1  ON 19
uuHe_0 0.0000e+00 1 1  ON 20
uuHe_1 0.0000e+00 1 1  ON 21
uuHe_2 0.0000e+00 1 1  ON 22
uuHe_3 0.0000e+00 1 1  ON 23
uuHe_4 0.0000e+00 1 1  ON 24
uuHe_5 0.0000e+00 1 1  ON 25
uuHe_6 0.0000e+00 1 1  ON 26
uuHe_7 0.0000e+00 1 1  ON 27
uuHe_8 0.0000e+00 1 1  ON 28
uuHe_9 0.0000e+00 1 1  ON 29
uuHe_10 0.0000e+00 1 1  ON 30
uuHe_11 0.0000e+00 1 1  ON 31
uuHe_12 0.0000e+00 1 1  ON 32
uuHe_13 0.0000e+00 1 1  ON 33
uuHe_14 0.0000e+00 1 1  ON 34
uuHe_15 0.0000e+00 1 1  ON 35
uuHe_16 0.0000e+00 1 1  ON 36
uuHe_17 0.0000e+00 1 1  ON 37
uuHe_18 0.0000e+00 1 1  ON 38
uuHe_19 0.0000e+00 1 1  ON 39
uuHe_20 0.0000e+00 1 1  ON 40
uuHe_21 0.0000e+00 1 1  ON 41
uuHe_22 0.0000e+00 1 1  ON 42
uuHe_23 0.0000e+00 1 1  ON 43
uuHe_24 0.0000e+00 1 1  ON 44
uuHe_25 0.0000e+00 1 1  ON 45
udHe_0 2.0844e-02 1 1  ON 46
udHe_1 5.7678e-03 1 1  ON 47
udHe_2 -1.2628e-02 1 1  ON 48
udHe_3 -1.4002e-02 1 1  ON 49
udHe_4 2.1277e-02 1 1  ON 50
udHe_5 2.4545e-02 1 1  ON 51
udHe_6 -3.2321e-02 1 1  ON 52
udHe_7 -9.5780e-03 1 1  ON 53
udHe_8 1.6659e-02 1 1  ON 54
udHe_9 2.3763e-02 1 1  ON 55
udHe_10 -4.7421e-03 1 1  ON 56
udHe_11 -9.9907e-04 1 1  ON 57
udHe_12 -3.2243e-02 1 1  ON 58
udHe_13 1.0386e-02 1 1  ON 59
udHe_14 -5.4718e-03 1 1  ON 60
udHe_15 3.2704e-02 1 1  ON 61
udHe_16 9.2700e-03 1 1  ON 62
udHe_17 -1.0614e-02 1 1  ON 63
udHe_18 3.6606e-04 1 1  ON 64
udHe_19 -6.7311e-03 1 1  ON 65
udHe_20 4.7719e-02 1 1  ON 66
udHe_21 2.7727e-02 1 1  ON 67
udHe_22 -7.2935e-03 1 1  ON 68
udHe_23 4.4698e-02 1 1  ON 69
udHe_24 1.6563e-02 1 1  ON 70
udHe_25 -2.6989e-02 1 1  ON 71
  </optVariables>
   Restore the number of walkers to 1, removing 0 walkers.
</opt>
</optimization-report>
  QMC Execution time = 1.1843e+00 secs
  Reusing QMCFixedSampleLinearOptimize
 Using QMCCostFunction::QMCCostFunction

=========================================================
  Start QMCFixedSampleLinearOptimize
  File Root He.log.s010 append = no 
=========================================================
  Skip QMCDriver::putQMCInfo 
  Resetting Properties of the walkers 1 x 13

=========================================================
  Start VMC
  File Root He.log.s010 append = no 
=========================================================
Using existing walkers 
  Resetting Properties of the walkers 1 x 13

<vmc function="put">
  qmc_counter=9  my_counter=9
  time step      = 1.5000e-01
  blocks         = 300
  steps          = 2
  substeps       = 5
  current        = 0
  target samples = 5.1200e+05
  walkers/mpi    = 1

  stepsbetweensamples = 1
<parameter name="blocks" condition="int">300</parameter>
<parameter name="blocks_between_recompute" condition="int">0</parameter>
<parameter name="check_properties" condition="int">100</parameter>
<parameter name="checkproperties" condition="int">100</parameter>
<parameter name="current" condition="int">0</parameter>
<parameter name="dmcwalkersperthread" condition="real">5.0000e+02</parameter>
<parameter name="maxcpusecs" condition="real">3.6000e+05</parameter>
<parameter name="record_configs" condition="int">0</parameter>
<parameter name="record_walkers" condition="int">1</parameter>
<parameter name="recordconfigs" condition="int">0</parameter>
<parameter name="recordwalkers" condition="int">1</parameter>
<parameter name="rewind" condition="int">0</parameter>
<parameter name="samples" condition="real">5.1200e+05</parameter>
<parameter name="samplesperthread" condition="real">5.0000e+02</parameter>
<parameter name="steps" condition="int">2</parameter>
<parameter name="stepsbetweensamples" condition="int">1</parameter>
<parameter name="store_configs" condition="int">0</parameter>
<parameter name="storeconfigs" condition="int">0</parameter>
<parameter name="sub_steps" condition="int">5</parameter>
<parameter name="substeps" condition="int">5</parameter>
<parameter name="tau" condition="au">1.5000e-01</parameter>
<parameter name="time_step" condition="au">1.5000e-01</parameter>
<parameter name="timestep" condition="au">1.5000e-01</parameter>
<parameter name="use_drift" condition="string">no</parameter>
<parameter name="usedrift" condition="string">no</parameter>
<parameter name="walkers" condition="int">1</parameter>
<parameter name="warmup_steps" condition="int">0</parameter>
<parameter name="warmupsteps" condition="int">0</parameter>
  DumpConfig==false Nothing (configurations, state) will be saved.
  Walker Samples are dumped every 1 steps.
</vmc>
  EstimatorManagerBase::add replace LocalEnergy estimator.
  EstimatorManagerBase::add replace LocalEnergy estimator.
<optimization-report>
<vmc stage="main" blocks="300">
  Cannot make clones again. Use existing 1 clones
  Initial partition of walkers 0 1 
  Using Particle by Particle moves
  Walker moves without drift
  Total Sample Size   =512000
  Walker distribution on root = 0 1 
  Using Locality Approximation
===== Memory Usage after the buffer registration =====
Available memory on node 0, free + buffers : 86631 MB
Memory footprint by rank 0 on node 0       : 102 MB
==================================================
====================================================
  SimpleFixedNodeBranch::finalize after a VMC block
    QMC counter        = 10
    time step          = 0.15
    reference energy   = -2.90777
    reference variance = 0.00631109
[...]
Memory footprint by rank 0 on node 0       : 125 MB
==================================================
====================================================
  SimpleFixedNodeBranch::finalize after a VMC block
    QMC counter        = 20
    time step          = 0.15
    reference energy   = -2.90481
    reference variance = 0.00609093
====================================================
  Execution time = 1.0219e+00
</vmc>
<opt stage="setup">
  <log>
   Reading configurations from h5FileRoot He.log.s020
  QMCCostFunction is created with 1 threads.
  Using Nonlocal PP in Opt: NonLocalECP
   Number of samples loaded to each thread : 500 
  VMC Eavg = -2.9032e+00
  VMC Evar = 6.7604e-03
  Total weights = 5.1200e+05
  Execution time = 4.1658e-02
  </log>
</opt>
<opt stage="main" walkers="512000">
  <log>

*****************************************
Building overlap and Hamiltonian matrices
*****************************************

Among totally 72 optimized parameters, largest LM parameter change : 1.7237e+04 at parameter 64

******************************************************************************
Init Cost =  -2.7577e+00    New Cost =   2.9815e+04  Delta Cost =   2.9817e+04
******************************************************************************

The new set of parameters is not valid. Revert to the old set!

*****************************************************************************
Applying the update for shift_i =   1.0000e-02     and shift_s =   4.4194e-02
*****************************************************************************
  Execution time = 1.1876e+00
  </log>
  <optVariables href="He.log.s020.opt.xml">
ud_0 6.4479e-01 1 1  ON 0
ud_1 5.1060e-01 1 1  ON 1
ud_2 4.0138e-01 1 1  ON 2
ud_3 3.1416e-01 1 1  ON 3
ud_4 2.4426e-01 1 1  ON 4
ud_5 1.8771e-01 1 1  ON 5
ud_6 1.3970e-01 1 1  ON 6
ud_7 9.5385e-02 1 1  ON 7
ud_8 5.5165e-02 1 1  ON 8
ud_9 2.5489e-02 1 1  ON 9
eHe_0 -4.6385e-01 1 1  ON 10
eHe_1 -4.3943e-01 1 1  ON 11
eHe_2 -3.8013e-01 1 1  ON 12
eHe_3 -2.9824e-01 1 1  ON 13
eHe_4 -2.0878e-01 1 1  ON 14
eHe_5 -1.2834e-01 1 1  ON 15
eHe_6 -9.5583e-02 1 1  ON 16
eHe_7 -5.8074e-02 1 1  ON 17
eHe_8 -3.1476e-02 1 1  ON 18
eHe_9 -8.4912e-03 1 1  ON 19
uuHe_0 0.0000e+00 1 1  ON 20
uuHe_1 0.0000e+00 1 1  ON 21
uuHe_2 0.0000e+00 1 1  ON 22
uuHe_3 0.0000e+00 1 1  ON 23
uuHe_4 0.0000e+00 1 1  ON 24
uuHe_5 0.0000e+00 1 1  ON 25
uuHe_6 0.0000e+00 1 1  ON 26
uuHe_7 0.0000e+00 1 1  ON 27
uuHe_8 0.0000e+00 1 1  ON 28
uuHe_9 0.0000e+00 1 1  ON 29
uuHe_10 0.0000e+00 1 1  ON 30
uuHe_11 0.0000e+00 1 1  ON 31
uuHe_12 0.0000e+00 1 1  ON 32
uuHe_13 0.0000e+00 1 1  ON 33
uuHe_14 0.0000e+00 1 1  ON 34
uuHe_15 0.0000e+00 1 1  ON 35
uuHe_16 0.0000e+00 1 1  ON 36
uuHe_17 0.0000e+00 1 1  ON 37
uuHe_18 0.0000e+00 1 1  ON 38
uuHe_19 0.0000e+00 1 1  ON 39
uuHe_20 0.0000e+00 1 1  ON 40
uuHe_21 0.0000e+00 1 1  ON 41
uuHe_22 0.0000e+00 1 1  ON 42
uuHe_23 0.0000e+00 1 1  ON 43
uuHe_24 0.0000e+00 1 1  ON 44
uuHe_25 0.0000e+00 1 1  ON 45
udHe_0 2.0773e-02 1 1  ON 46
udHe_1 3.0420e-03 1 1  ON 47
udHe_2 -1.5272e-02 1 1  ON 48
udHe_3 -1.3304e-02 1 1  ON 49
udHe_4 2.2114e-02 1 1  ON 50
udHe_5 2.4827e-02 1 1  ON 51
udHe_6 -4.2592e-02 1 1  ON 52
udHe_7 -1.5541e-02 1 1  ON 53
udHe_8 2.3909e-02 1 1  ON 54
udHe_9 3.1887e-02 1 1  ON 55
udHe_10 -4.8098e-03 1 1  ON 56
udHe_11 3.5186e-03 1 1  ON 57
udHe_12 -4.2826e-02 1 1  ON 58
udHe_13 6.1003e-03 1 1  ON 59
udHe_14 -1.0506e-02 1 1  ON 60
udHe_15 3.8460e-02 1 1  ON 61
udHe_16 4.0540e-03 1 1  ON 62
udHe_17 -1.3478e-02 1 1  ON 63
udHe_18 3.4695e-03 1 1  ON 64
udHe_19 -6.4719e-03 1 1  ON 65
udHe_20 4.7197e-02 1 1  ON 66
udHe_21 3.4994e-02 1 1  ON 67
udHe_22 -6.7322e-03 1 1  ON 68
udHe_23 4.9700e-02 1 1  ON 69
udHe_24 1.8927e-02 1 1  ON 70
udHe_25 -3.2279e-02 1 1  ON 71
  </optVariables>
   Restore the number of walkers to 1, removing 0 walkers.
</opt>
</optimization-report>
  QMC Execution time = 1.1994e+00 secs

=========================================================
  Start VMC
  File Root He.log.s021 append = no 
=========================================================
  Using the current 1 walkers.
  Total number of walkers: 1.0240e+03
  Total weight: 1.0240e+03
  Resetting Properties of the walkers 1 x 13

<vmc function="put">
  qmc_counter=0  my_counter=0
  time step      = 1.5000e-01
  blocks         = 200
  steps          = 1
  substeps       = 30
  current        = 0
  target samples = 4.0960e+03
  walkers/mpi    = 1

  stepsbetweensamples = 50
<parameter name="blocks" condition="int">200</parameter>
<parameter name="blocks_between_recompute" condition="int">0</parameter>
<parameter name="check_properties" condition="int">100</parameter>
<parameter name="checkproperties" condition="int">100</parameter>
<parameter name="current" condition="int">0</parameter>
<parameter name="dmcwalkersperthread" condition="real">4.0000e+00</parameter>
<parameter name="maxcpusecs" condition="real">3.6000e+05</parameter>
<parameter name="record_configs" condition="int">0</parameter>
<parameter name="record_walkers" condition="int">50</parameter>
<parameter name="recordconfigs" condition="int">0</parameter>
<parameter name="recordwalkers" condition="int">50</parameter>
<parameter name="rewind" condition="int">0</parameter>
<parameter name="samples" condition="real">4.0960e+03</parameter>
<parameter name="samplesperthread" condition="real">4.0000e+00</parameter>
<parameter name="steps" condition="int">1</parameter>
<parameter name="stepsbetweensamples" condition="int">50</parameter>
<parameter name="store_configs" condition="int">0</parameter>
<parameter name="storeconfigs" condition="int">0</parameter>
<parameter name="sub_steps" condition="int">30</parameter>
<parameter name="substeps" condition="int">30</parameter>
<parameter name="tau" condition="au">1.5000e-01</parameter>
<parameter name="time_step" condition="au">1.5000e-01</parameter>
<parameter name="timestep" condition="au">1.5000e-01</parameter>
<parameter name="use_drift" condition="string">no</parameter>
<parameter name="usedrift" condition="string">no</parameter>
<parameter name="walkers" condition="int">1</parameter>
<parameter name="warmup_steps" condition="int">100</parameter>
<parameter name="warmupsteps" condition="int">100</parameter>
  DumpConfig==false Nothing (configurations, state) will be saved.
  Walker Samples are dumped every 50 steps.
</vmc>
  EstimatorManagerBase::add replace LocalEnergy estimator.
  Cannot make clones again. Use existing 1 clones
  Initial partition of walkers 0 1 

  Using Particle by Particle moves
  Walker moves without drift
  Total Sample Size   =4096
  Walker distribution on root = 0 1 
  Using Locality Approximation
===== Memory Usage after the buffer registration =====
Available memory on node 0, free + buffers : 86593 MB
Memory footprint by rank 0 on node 0       : 127 MB
==================================================
  Anonymous Buffer size per walker : 1024 Bytes.
MEMORY increase 0 MB VMC::resetRun
====================================================
  SimpleFixedNodeBranch::finalize after a VMC block
    QMC counter        = 21
    time step          = 0.15
    reference energy   = -2.90378
    reference variance = 0.0068063
====================================================
  QMC Execution time = 1.5450e+00 secs

=========================================================
  Start DMC
  File Root He.log.s022 append = no 
=========================================================
Using existing walkers 
  Resetting Properties of the walkers 1 x 13
  EstimatorManagerBase::add replace LocalEnergy estimator.
  Cannot make clones again. Use existing 1 clones
  Total number of walkers: 4.0960e+03
  Total weight: 4.0960e+03
  Creating WalkerController: target  number of walkers = 4096
  Using WalkerControlMPI for dynamic population control.
  START ALL OVER 
  WalkerControlBase parameters 
    maxCopy = 2
    Max Walkers per MPI rank 9
    Min Walkers per MPI rank 1
    Using non-blocking send/recv
  QMC counter      = 22
  time step        = 2.0000e-02
  effective time step = 2.0000e-02
  trial energy     = -2.9038e+00
  reference energy = -2.9038e+00
  Feedback = 1.0000e+00
  reference variance = 6.8063e-03
  target walkers = 4096
  branching cutoff scheme classic
  branch cutoff = 5.0000e+01 7.5000e+01
  Max and minimum walkers per node= 9 1
  QMC Status (BranchMode) = 0000001101
  Initial partition of walkers on a node: 0 4 
  Updates by particle-by-particle moves
  DMC moves are rejected when a node crossing is detected
  Using Non-local T-moves v0, M. Casula, PRB 74, 161102(R) (2006)
===== Memory Usage after the buffer registration =====
Available memory on node 0, free + buffers : 86591 MB
Memory footprint by rank 0 on node 0       : 127 MB
==================================================
SimpleFixedNodeBranch::checkParameters 
  Average Energy of a population  = -2.9031
  Energy Variance = 0.00712187

  Fluctuating population
  Persistent walkers are killed after 1 MC sweeps
  BranchInterval = 1
  Steps per block = 50
  Number of blocks = 70

  DMC Engine Initialization = 2.5128e-02 secs

 Warmup is completed after 100

  TauEff     = 1.9544e-02
 TauEff/Tau = 9.7718e-01
  Etrial     = -2.8798e+00
 Running average of energy = -2.9035e+00
                  Variance = 6.8318e-03
branch cutoff = 1.0000e+01 1.5000e+01
====================================================
  SimpleFixedNodeBranch::finalize after a DMC block
    QMC counter                   = 22
    time step                     = 0.02
    effective time step           = 0.0195349
    trial energy                  = -2.90464
    reference energy              = -2.90367
    reference variance            = 0.00683178
    target walkers                = 4096
    branch cutoff                 = 10 15
    Max and minimum walkers per node= 9 1
    Feedback                      = 1
    QMC Status (BranchMode)       = 0000001111
====================================================
  QMC Execution time = 2.9103e+00 secs
  Reusing DMC
BRANCH resetRun
 SimpleFixedNodeBranch::resetRun detected changes in <parameter>'s 
 BranchMode : 0000001111 0000001111
  WalkerControlBase parameters 
    maxCopy = 2
    Max Walkers per MPI rank 9
    Min Walkers per MPI rank 1
    Using non-blocking send/recv
 iParam (old):                  0                 1                22              4096                 9                 1                 1                 0
 iParam (new):                100                 1                22              4096                 9                 1                 1                 0
 vParam (old):   2.0000000000e-02  1.9534852268e-02 -2.9046443271e+00 -2.9036682411e+00 -2.9031845468e+00  1.5000000000e+01  1.0000000000e+01  2.0000000000e-01  6.8317760679e-03 -9.8753752044e+03  3.4010000000e+03  1.0000000000e+00  1.0000000000e+01  1.0000000000e+00  1.0000000000e+00  1.0000000000e+00  1.0000000000e+00
 vParam (new):   1.0000000000e-02  1.9534852268e-02 -2.9046443271e+00 -2.9036682411e+00 -2.9031845468e+00  1.5000000000e+01  1.0000000000e+01  2.0000000000e-01  6.8317760679e-03 -9.8753752044e+03  3.4010000000e+03  1.0000000000e+00  1.0000000000e+01  1.0000000000e+00  1.0000000000e+00  1.0000000000e+00  1.0000000000e+00

 Using branching cutoff scheme classic
SimpleFixedNodeBranch::checkParameters 
  Average Energy of a population  = -2.90317
  Energy Variance = 0.00709063

  Using Non-local T-moves v0, M. Casula, PRB 74, 161102(R) (2006)
===== Memory Usage after the buffer registration =====
Available memory on node 0, free + buffers : 86588 MB
Memory footprint by rank 0 on node 0       : 129 MB
==================================================

=========================================================
  Start DMC
  File Root He.log.s023 append = no 
=========================================================
Using existing walkers 
  Resetting Properties of the walkers 1 x 13
  EstimatorManagerBase::add replace LocalEnergy estimator.
  Cannot make clones again. Use existing 1 clones
SimpleFixedNodeBranch::checkParameters 
  Average Energy of a population  = -2.90317
  Energy Variance = 0.00709063

  Fluctuating population
  Persistent walkers are killed after 1 MC sweeps
  BranchInterval = 1
  Steps per block = 100
  Number of blocks = 90

  DMC Engine Initialization = 3.3402442932e-04 secs

 Warmup is completed after 100

  TauEff     = 9.9103332600e-03
 TauEff/Tau = 9.9103332600e-01
  Etrial     = -2.9278655178e+00
 Running average of energy = -2.9040985880e+00
                  Variance = 6.8211365528e-03
branch cutoff = 1.0000000000e+01 1.5000000000e+01
====================================================
  SimpleFixedNodeBranch::finalize after a DMC block
    QMC counter                   = 23
    time step                     = 0.01
    effective time step           = 0.00991096
    trial energy                  = -2.90569
    reference energy              = -2.90374
    reference variance            = 0.00682114
    target walkers                = 4096
    branch cutoff                 = 10 15
    Max and minimum walkers per node= 9 1
    Feedback                      = 1
    QMC Status (BranchMode)       = 0000001111
====================================================
  QMC Execution time = 7.0164e+00 secs
  Reusing DMC
BRANCH resetRun
 SimpleFixedNodeBranch::resetRun detected changes in <parameter>'s 
 BranchMode : 0000001111 0000001111
  WalkerControlBase parameters 
    maxCopy = 2
    Max Walkers per MPI rank 9
    Min Walkers per MPI rank 1
    Using non-blocking send/recv
 iParam (old):                  0                 1                23              4096                 9                 1                 1                 0
 iParam (new):                200                 1                23              4096                 9                 1                 1                 0
 vParam (old):   1.0000000000e-02  9.9109586392e-03 -2.9056932002e+00 -2.9037419801e+00 -2.9017919967e+00  1.5000000000e+01  1.0000000000e+01  2.0000000000e-01  6.8211365528e-03 -2.5846205415e+04  8.9010000000e+03  1.0000000000e+00  1.0000000000e+01  1.0000000000e+00  1.0000000000e+00  1.0000000000e+00  1.0000000000e+00
 vParam (new):   5.0000000000e-03  9.9109586392e-03 -2.9056932002e+00 -2.9037419801e+00 -2.9017919967e+00  1.5000000000e+01  1.0000000000e+01  2.0000000000e-01  6.8211365528e-03 -2.5846205415e+04  8.9010000000e+03  1.0000000000e+00  1.0000000000e+01  1.0000000000e+00  1.0000000000e+00  1.0000000000e+00  1.0000000000e+00

 Using branching cutoff scheme classic
SimpleFixedNodeBranch::checkParameters 
  Average Energy of a population  = -2.9018
  Energy Variance = 0.00670983

  Using Non-local T-moves v0, M. Casula, PRB 74, 161102(R) (2006)
===== Memory Usage after the buffer registration =====
Available memory on node 0, free + buffers : 86585 MB
Memory footprint by rank 0 on node 0       : 130 MB
==================================================

=========================================================
  Start DMC
  File Root He.log.s024 append = no 
=========================================================
Using existing walkers 
  Resetting Properties of the walkers 1 x 13
  EstimatorManagerBase::add replace LocalEnergy estimator.
  Cannot make clones again. Use existing 1 clones
SimpleFixedNodeBranch::checkParameters 
  Average Energy of a population  = -2.9018
  Energy Variance = 0.00670983

  Fluctuating population
  Persistent walkers are killed after 1 MC sweeps
  BranchInterval = 1
  Steps per block = 200
  Number of blocks = 110

  DMC Engine Initialization = 2.7298927307e-04 secs

 Warmup is completed after 200

  TauEff     = 4.9838061282e-03
 TauEff/Tau = 9.9676122565e-01
  Etrial     = -2.8551279385e+00
 Running average of energy = -2.9035750160e+00
                  Variance = 6.6482555624e-03
branch cutoff = 1.0000000000e+01 1.5000000000e+01
====================================================
  SimpleFixedNodeBranch::finalize after a DMC block
    QMC counter                   = 24
    time step                     = 0.005
    effective time step           = 0.00498363
    trial energy                  = -2.9035
    reference energy              = -2.90374
    reference variance            = 0.00664826
    target walkers                = 4096
    branch cutoff                 = 10 15
    Max and minimum walkers per node= 9 1
    Feedback                      = 1
    QMC Status (BranchMode)       = 0000001111
====================================================
  QMC Execution time = 1.6708e+01 secs
  Reusing DMC
BRANCH resetRun
 SimpleFixedNodeBranch::resetRun detected changes in <parameter>'s 
 BranchMode : 0000001111 0000001111
  WalkerControlBase parameters 
    maxCopy = 2
    Max Walkers per MPI rank 9
    Min Walkers per MPI rank 1
    Using non-blocking send/recv
 iParam (old):                  0                 1                24              4096                 9                 1                 1                 0
 iParam (new):                400                 1                24              4096                 9                 1                 1                 0
 vParam (old):   5.0000000000e-03  4.9836292909e-03 -2.9034954604e+00 -2.9037396308e+00 -2.9043145874e+00  1.5000000000e+01  1.0000000000e+01  2.0000000000e-01  6.6482555624e-03 -6.3304428266e+04  2.1801000000e+04  1.0000000000e+00  1.0000000000e+01  1.0000000000e+00  1.0000000000e+00  1.0000000000e+00  1.0000000000e+00
 vParam (new):   2.5000000000e-03  4.9836292909e-03 -2.9034954604e+00 -2.9037396308e+00 -2.9043145874e+00  1.5000000000e+01  1.0000000000e+01  2.0000000000e-01  6.6482555624e-03 -6.3304428266e+04  2.1801000000e+04  1.0000000000e+00  1.0000000000e+01  1.0000000000e+00  1.0000000000e+00  1.0000000000e+00  1.0000000000e+00

 Using branching cutoff scheme classic
SimpleFixedNodeBranch::checkParameters 
  Average Energy of a population  = -2.90441
  Energy Variance = 0.00692041

  Using Non-local T-moves v0, M. Casula, PRB 74, 161102(R) (2006)
===== Memory Usage after the buffer registration =====
Available memory on node 0, free + buffers : 86579 MB
Memory footprint by rank 0 on node 0       : 132 MB
==================================================

=========================================================
  Start DMC
  File Root He.log.s025 append = no 
=========================================================
Using existing walkers 
  Resetting Properties of the walkers 1 x 13
  EstimatorManagerBase::add replace LocalEnergy estimator.
  Cannot make clones again. Use existing 1 clones
SimpleFixedNodeBranch::checkParameters 
  Average Energy of a population  = -2.90441
  Energy Variance = 0.00692041

  Fluctuating population
  Persistent walkers are killed after 1 MC sweeps
  BranchInterval = 1
  Steps per block = 400
  Number of blocks = 130

  DMC Engine Initialization = 3.1304359436e-04 secs

 Warmup is completed after 400

  TauEff     = 2.4971181663e-03
 TauEff/Tau = 9.9884726653e-01
  Etrial     = -2.9057932234e+00
 Running average of energy = -2.9030649818e+00
                  Variance = 6.8082461254e-03
branch cutoff = 1.0000000000e+01 1.5000000000e+01
====================================================
  SimpleFixedNodeBranch::finalize after a DMC block
    QMC counter                   = 25
    time step                     = 0.0025
    effective time step           = 0.00249707
    trial energy                  = -2.90491
    reference energy              = -2.90369
    reference variance            = 0.00680825
    target walkers                = 4096
    branch cutoff                 = 10 15
    Max and minimum walkers per node= 9 1
    Feedback                      = 1
    QMC Status (BranchMode)       = 0000001111
====================================================
  QMC Execution time = 3.8730e+01 secs
  Total Execution time = 9.5114e+01 secs

=========================================================
  A new xml input file : He.log.s025.cont.xml
TACC:  Shutdown complete. Exiting. 
