
 Primary working directories    : /global/cscratch1/sd/aannabe
 Secondary working directories  : /global/cscratch1/sd/aannabe
 Wavefunction directory         : /global/homes/a/aannabe/wfu/
 Main file repository           : /global/cscratch1/sd/aannabe/

 SHA1      : 2873118e99aab1bc19f5b6fc1784693c06d15c95
 NAME      : 2015.1.8
 ARCHNAME  : linux/x86_64
 FC        : /opt/cray/pe/craype/2.5.5/bin/ftn
 BLASLIB   : -Wl,-_start-group /opt/intel/compilers_and_libraries_2016.3.210/linux/mkl/lib/intel64/libmkl_intel_ilp64.a /opt/intel/compilers_and_libraries_2016.3.210/linux/mkl/lib/intel64/libmkl_intel_thread.a /opt/intel/compilers_and_libraries_2016.3.210/linux/mkl/lib/intel64/libmkl_core.a -Wl,-_end-group
 id        : lbl

 Nodes     nprocs
 nid00466     1

 Using customized tuning parameters: mindgm=8; mindgv=16; mindgc=4; mindgr=1; noblas=0; minvec=7
 default implementation of scratch files=df  

 ***,O
 memory,8,g
 gthresh,twoint=1.e-12
 
 gprint,basis,orbitals
 gexpec,ekin,pot
 
 angstrom
 geometry={
 1                                                                               ! Number of atoms
 O 0.0 0.0 0.0
 }
 
 basis={
 Including file /global/homes/a/aannabe/docs/accurate/BFD_Kh/pps/O.pp
 Including file /global/homes/a/aannabe/docs/accurate/BFD_Kh/basis/aug-cc-pVnZ/O_qz.basis
 }
 
 {rhf
  start,atden
  wf,6,7,2
  occ,1,1,1,0,1,0,0,0
  open,1.3,1.5
  orbital,4202.2
 }
 {multi
  maxiter,40
  start,4202.2
  occ,1,1,1,0,1,0,0,0
  closed,1,0,0,0,0,0,0
  wf,6,4,2;state,1
  wf,6,6,2;state,1
  wf,6,7,2;state,1
  natorb,ci,print
  orbital,5202.2
 }
 {rhf,nitord=1,maxit=0
  start,5202.2
  wf,6,7,2
  occ,1,1,1,0,1,0,0,0
  open,1.3,1.5
 }
 scf(i)=energy
 
 _CC_NORM_MAX=2.0
 {fci
 maxit,100
 core
 }
 posthf(i)=energy
 
 table,scf,posthf,ekin,pot
 save,4.csv,new
 
 

 Variables initialized (889), CPU time= 0.01 sec
 Commands  initialized (702), CPU time= 0.00 sec, 572 directives.
 Default parameters read. Elapsed time= 0.14 sec

 Checking input...
 Passed
1


                                         ***  PROGRAM SYSTEM MOLPRO  ***
                                       Copyright, TTI GmbH Stuttgart, 2015
                                    Version 2015.1 linked Sep  7 2016 23:09:38


 **********************************************************************************************************************************
 LABEL *   O                                                                             
  64 bit serial version                                                                  DATE: 05-Nov-18          TIME: 13:22:02  
 **********************************************************************************************************************************

 SHA1:             2873118e99aab1bc19f5b6fc1784693c06d15c95
 **********************************************************************************************************************************

 THRESHOLDS:

 ZERO    =  1.00D-12  ONEINT  =  1.00D-12  TWOINT  =  1.00D-12  PREFAC  =  1.00D-14  LOCALI  =  1.00D-09  EORDER  =  1.00D-04
 ENERGY  =  0.00D+00  ETEST   =  0.00D+00  EDENS   =  0.00D+00  THRDEDEF=  1.00D-06  GRADIENT=  1.00D-02  STEP    =  1.00D-03
 ORBITAL =  1.00D-05  CIVEC   =  1.00D-05  COEFF   =  1.00D-04  PRINTCI =  5.00D-02  PUNCHCI =  9.90D+01  OPTGRAD =  3.00D-04
 OPTENERG=  1.00D-06  OPTSTEP =  3.00D-04  THRGRAD =  1.00D-10  COMPRESS=  1.00D-11  VARMIN  =  1.00D-07  VARMAX  =  1.00D-03
 THRDOUB =  0.00D+00  THRDIV  =  1.00D-05  THRRED  =  1.00D-07  THRPSP  =  1.00D+00  THRDC   =  1.00D-10  THRCS   =  1.00D-10
 THRNRM  =  1.00D-08  THREQ   =  0.00D+00  THRDE   =  1.00D+00  THRREF  =  1.00D-05  SPARFAC =  1.00D+00  THRDLP  =  1.00D-07
 THRDIA  =  1.00D-10  THRDLS  =  1.00D-07  THRGPS  =  0.00D+00  THRKEX  =  0.00D+00  THRDIS  =  2.00D-01  THRVAR  =  1.00D-10
 THRLOC  =  1.00D-06  THRGAP  =  1.00D-06  THRLOCT = -1.00D+00  THRGAPT = -1.00D+00  THRORB  =  1.00D-06  THRMLTP =  0.00D+00
 THRCPQCI=  1.00D-10  KEXTA   =  0.00D+00  THRCOARS=  0.00D+00  SYMTOL  =  1.00D-06  GRADTOL =  1.00D-06  THROVL  =  1.00D-08
 THRORTH =  1.00D-08  GRID    =  1.00D-06  GRIDMAX =  1.00D-03  DTMAX   =  0.00D+00  THROCCDE=  1.00D-01  THROCCDE=  1.00D-01



 ZUNIT=ANG
 

Geometry recognized as XYZ


 Variable memory set to 8000000000 words,  buffer space   230000 words

 SETTING BASIS          =    USERDEF


 Recomputing integrals since basis changed


 Using spherical harmonics



 PROGRAM * SEWARD (Integral evaluation for generally contracted gaussian basis sets)     Author: Roland Lindh, 1990

 Geometry written to block  1 of record 700

 Orientation using atomic masses  
 Molecule type: Atom
 Symmetry elements: X,Y,Z
 Rotational constants:       0.0000000      0.0000000      0.0000000 GHz  (calculated with average atomic masses)

 Point group  D2h 



 ATOMIC COORDINATES

 NR  ATOM    CHARGE       X              Y              Z

   1  O       6.00    0.000000000    0.000000000    0.000000000


          O   CORE POTENTIAL

          p POTENTIAL

 POWERS             1              3              2
 EXPONENTIALS   9.297939       8.864922       8.629257    
 COEFFICIENTS   6.000000       55.78763      -38.81978    

          s - p POTENTIAL

 POWERS             2
 EXPONENTIALS   8.719245    
 COEFFICIENTS   38.41914    


 BASIS DATA

   Nr Sym  Nuc  Type         Exponents   Contraction coefficients

    1.1 Ag    1  1s           0.125346     0.055741
                              0.268022     0.304848
                              0.573098     0.453752
                              1.225429     0.295926
                              2.620277     0.019567
                              5.602818    -0.128627
                             11.980245     0.012024
                             25.616801     0.000407
                             54.775216    -0.000076
    2.1 Ag    1  1s           0.089752     1.000000
    3.1 Ag    1  1s           0.224380     1.000000
    4.1 Ag    1  1s           0.843157     1.000000
    5.1 Ag    1  1s           1.351771     1.000000
    6.1 Ag    1  3d0          0.182284     1.000000
    7.1 Ag    1  3d2+         0.182284     1.000000
    8.1 Ag    1  3d0          0.455711     1.000000
    9.1 Ag    1  3d2+         0.455711     1.000000
   10.1 Ag    1  3d0          1.344331     1.000000
   11.1 Ag    1  3d2+         1.344331     1.000000
   12.1 Ag    1  3d0          4.008867     1.000000
   13.1 Ag    1  3d2+         4.008867     1.000000
   14.1 Ag    1  5g0          0.703632     1.000000
   15.1 Ag    1  5g4+         0.703632     1.000000
   16.1 Ag    1  5g2+         0.703632     1.000000
   17.1 Ag    1  5g0          1.759081     1.000000
   18.1 Ag    1  5g4+         1.759081     1.000000
   19.1 Ag    1  5g2+         1.759081     1.000000
    1.2 B3u   1  2px          0.083598     0.044958
                              0.167017     0.150175
                              0.333673     0.255999
                              0.666627     0.281879
                              1.331816     0.242835
                              2.660761     0.161134
                              5.315785     0.082308
                             10.620108     0.039899
                             21.217318     0.004679
    2.2 B3u   1  2px          0.059425     1.000000
    3.2 B3u   1  2px          0.148562     1.000000
    4.2 B3u   1  2px          0.452364     1.000000
    5.2 B3u   1  2px          1.106737     1.000000
    6.2 B3u   1  4f1+         0.350516     1.000000
    7.2 B3u   1  4f3+         0.350516     1.000000
    8.2 B3u   1  4f1+         0.876289     1.000000
    9.2 B3u   1  4f3+         0.876289     1.000000
   10.2 B3u   1  4f1+         2.763115     1.000000
   11.2 B3u   1  4f3+         2.763115     1.000000
    1.3 B2u   1  2py          0.083598     0.044958
                              0.167017     0.150175
                              0.333673     0.255999
                              0.666627     0.281879
                              1.331816     0.242835
                              2.660761     0.161134
                              5.315785     0.082308
                             10.620108     0.039899
                             21.217318     0.004679
    2.3 B2u   1  2py          0.059425     1.000000
    3.3 B2u   1  2py          0.148562     1.000000
    4.3 B2u   1  2py          0.452364     1.000000
    5.3 B2u   1  2py          1.106737     1.000000
    6.3 B2u   1  4f1-         0.350516     1.000000
    7.3 B2u   1  4f3-         0.350516     1.000000
    8.3 B2u   1  4f1-         0.876289     1.000000
    9.3 B2u   1  4f3-         0.876289     1.000000
   10.3 B2u   1  4f1-         2.763115     1.000000
   11.3 B2u   1  4f3-         2.763115     1.000000
    1.4 B1g   1  3d2-         0.182284     1.000000
    2.4 B1g   1  3d2-         0.455711     1.000000
    3.4 B1g   1  3d2-         1.344331     1.000000
    4.4 B1g   1  3d2-         4.008867     1.000000
    5.4 B1g   1  5g2-         0.703632     1.000000
    6.4 B1g   1  5g4-         0.703632     1.000000
    7.4 B1g   1  5g2-         1.759081     1.000000
    8.4 B1g   1  5g4-         1.759081     1.000000
    1.5 B1u   1  2pz          0.083598     0.044958
                              0.167017     0.150175
                              0.333673     0.255999
                              0.666627     0.281879
                              1.331816     0.242835
                              2.660761     0.161134
                              5.315785     0.082308
                             10.620108     0.039899
                             21.217318     0.004679
    2.5 B1u   1  2pz          0.059425     1.000000
    3.5 B1u   1  2pz          0.148562     1.000000
    4.5 B1u   1  2pz          0.452364     1.000000
    5.5 B1u   1  2pz          1.106737     1.000000
    6.5 B1u   1  4f0          0.350516     1.000000
    7.5 B1u   1  4f2+         0.350516     1.000000
    8.5 B1u   1  4f0          0.876289     1.000000
    9.5 B1u   1  4f2+         0.876289     1.000000
   10.5 B1u   1  4f0          2.763115     1.000000
   11.5 B1u   1  4f2+         2.763115     1.000000
    1.6 B2g   1  3d1+         0.182284     1.000000
    2.6 B2g   1  3d1+         0.455711     1.000000
    3.6 B2g   1  3d1+         1.344331     1.000000
    4.6 B2g   1  3d1+         4.008867     1.000000
    5.6 B2g   1  5g1+         0.703632     1.000000
    6.6 B2g   1  5g3+         0.703632     1.000000
    7.6 B2g   1  5g1+         1.759081     1.000000
    8.6 B2g   1  5g3+         1.759081     1.000000
    1.7 B3g   1  3d1-         0.182284     1.000000
    2.7 B3g   1  3d1-         0.455711     1.000000
    3.7 B3g   1  3d1-         1.344331     1.000000
    4.7 B3g   1  3d1-         4.008867     1.000000
    5.7 B3g   1  5g1-         0.703632     1.000000
    6.7 B3g   1  5g3-         0.703632     1.000000
    7.7 B3g   1  5g1-         1.759081     1.000000
    8.7 B3g   1  5g3-         1.759081     1.000000
    1.8 Au    1  4f2-         0.350516     1.000000
    2.8 Au    1  4f2-         0.876289     1.000000
    3.8 Au    1  4f2-         2.763115     1.000000

 NUCLEAR CHARGE:                    6
 NUMBER OF PRIMITIVE AOS:         136
 NUMBER OF SYMMETRY AOS:          111
 NUMBER OF CONTRACTIONS:           79   (  19Ag  +  11B3u +  11B2u +   8B1g +  11B1u +   8B2g +   8B3g +   3Au  )
 NUMBER OF CORE ORBITALS:           0   (   0Ag  +   0B3u +   0B2u +   0B1g +   0B1u +   0B2g +   0B3g +   0Au  )
 NUMBER OF VALENCE ORBITALS:        4   (   1Ag  +   1B3u +   1B2u +   0B1g +   1B1u +   0B2g +   0B3g +   0Au  )


 NUCLEAR REPULSION ENERGY    0.00000000

 EXTRA SYMMETRY OF AOS IN SYMMETRY 1:   1 1 1 1 1 2 3 2 3 2   3 2 3 4 5 6 4 5 6
 EXTRA SYMMETRY OF AOS IN SYMMETRY 2:   1 1 1 1 1 2 3 2 3 2   3
 EXTRA SYMMETRY OF AOS IN SYMMETRY 3:   1 1 1 1 1 2 3 2 3 2   3
 EXTRA SYMMETRY OF AOS IN SYMMETRY 4:   1 1 1 1 2 3 2 3
 EXTRA SYMMETRY OF AOS IN SYMMETRY 5:   1 1 1 1 1 2 3 2 3 2   3
 EXTRA SYMMETRY OF AOS IN SYMMETRY 6:   1 1 1 1 2 3 2 3
 EXTRA SYMMETRY OF AOS IN SYMMETRY 7:   1 1 1 1 2 3 2 3

 Eigenvalues of metric

         1 0.109E-02 0.169E-01 0.122E+00 0.128E+00 0.128E+00 0.428E+00 0.428E+00 0.428E+00
         2 0.201E-01 0.691E-01 0.255E+00 0.255E+00 0.266E+00 0.877E+00 0.877E+00 0.122E+01
         3 0.201E-01 0.691E-01 0.255E+00 0.255E+00 0.266E+00 0.877E+00 0.877E+00 0.122E+01
         4 0.128E+00 0.428E+00 0.428E+00 0.435E+00 0.121E+01 0.157E+01 0.157E+01 0.223E+01
         5 0.201E-01 0.691E-01 0.255E+00 0.255E+00 0.266E+00 0.877E+00 0.877E+00 0.122E+01
         6 0.128E+00 0.428E+00 0.428E+00 0.435E+00 0.121E+01 0.157E+01 0.157E+01 0.223E+01
         7 0.128E+00 0.428E+00 0.428E+00 0.435E+00 0.121E+01 0.157E+01 0.157E+01 0.223E+01
         8 0.255E+00 0.877E+00 0.187E+01


 Contracted 2-electron integrals neglected if value below      1.0D-12
 AO integral compression algorithm  1   Integral accuracy      1.0D-12

     6.554 MB (compressed) written to integral file ( 69.6%)


 NUMBER OF SORTED TWO-ELECTRON INTEGRALS:     665704.     BUFFER LENGTH:  32768
 NUMBER OF SEGMENTS:   1  SEGMENT LENGTH:     665704      RECORD LENGTH: 524288

 Memory used in sort:       1.22 MW

 SORT1 READ     1222209. AND WROTE      500866. INTEGRALS IN      2 RECORDS. CPU TIME:     0.04 SEC, REAL TIME:     0.06 SEC
 SORT2 READ      500866. AND WROTE      665704. INTEGRALS IN     25 RECORDS. CPU TIME:     0.06 SEC, REAL TIME:     0.11 SEC

 FILE SIZES:   FILE 1:    25.8 MBYTE,  FILE 4:     8.4 MBYTE,   TOTAL:     34.2 MBYTE

 OPERATOR DM      FOR CENTER  0  COORDINATES:    0.000000    0.000000    0.000000
 OPERATOR EKIN    FOR CENTER  0  COORDINATES:    0.000000    0.000000    0.000000
 OPERATOR POT     FOR CENTER  0  COORDINATES:    0.000000    0.000000    0.000000


 **********************************************************************************************************************************
 DATASETS  * FILE   NREC   LENGTH (MB)   RECORD NAMES
              1      20       22.81       500      610      700      900      950      970     1000      129      960     1100   
                                          VAR    BASINP    GEOM    SYMINP    ZMAT    AOBASIS   BASIS     P2S    ABASIS      S 
                                         1400     1410     1420     1200     1210     1080     1600     1650     1300     1700   
                                         EKIN       V       ECP      H0       H01     AOSYM     SMH    MOLCAS    ERIS     OPER   

 PROGRAMS   *        TOTAL       INT
 CPU TIMES  *         2.68      2.55
 REAL TIME  *        19.96 SEC
 DISK USED  *        34.49 MB      
 **********************************************************************************************************************************


 PROGRAM * RHF-SCF (OPEN SHELL)       Authors: W. Meyer, H.-J. Werner


 NUMBER OF ELECTRONS:       4+    2-    SPACE SYMMETRY=7    SPIN SYMMETRY: Triplet 
 CONVERGENCE THRESHOLDS:    1.00E-05 (Density)    1.00E-07 (Energy)
 MAX. NUMBER OF ITERATIONS:       60
 INTERPOLATION TYPE:            DIIS
 INTERPOLATION STEPS:              2 (START)      1 (STEP)
 LEVEL SHIFTS:                 -0.60 (CLOSED) -0.30 (OPEN) 


 Singly occupied orbitals:      1.3       1.5

   Atom=O  basis=ECP2MWB_GUESS     lmin=0  lmax=1

 Orbital guess generated from atomic densities. Full valence occupancy:    1   1   1   0   1   0   0   0


 Molecular orbital dump at record        4202.2

 ITERATION    DDIFF          GRAD             ENERGY        2-EL.EN.            DIPOLE MOMENTS         DIIS   ORB.
    1      0.000D+00      0.000D+00       -15.68650749     20.542386    0.00000    0.00000    0.00000    0    start
    2      0.000D+00      0.182D-01       -15.70695000     21.316582    0.00000    0.00000    0.00000    1    diag,B
    3      0.137D-01      0.444D-02       -15.70808273     21.338788    0.00000    0.00000    0.00000    2    diag,B
    4      0.265D-02      0.177D-02       -15.70845208     21.367140    0.00000    0.00000    0.00000    3    diag,B
    5      0.169D-02      0.449D-03       -15.70848037     21.370802    0.00000    0.00000    0.00000    4    diag,B
    6      0.587D-03      0.871D-04       -15.70848128     21.369585    0.00000    0.00000    0.00000    5    diag,B
    7      0.140D-03      0.205D-04       -15.70848134     21.369431    0.00000    0.00000    0.00000    6    fixocc
    8      0.335D-04      0.547D-05       -15.70848134     21.369345    0.00000    0.00000    0.00000    7    diag,B
    9      0.721D-05      0.158D-05       -15.70848134     21.369347    0.00000    0.00000    0.00000    0    orth

 Final alpha occupancy:   1   1   1   0   1   0   0   0
 Final beta  occupancy:   1   1   0   0   0   0   0   0

 !RHF STATE 1.7 Energy                -15.708481339994
 Nuclear energy                         0.00000000
 One-electron energy                  -26.39315493
 Two-electron energy                   10.68467359
 Virial quotient                       -1.35321557
 !RHF STATE 1.7 Dipole moment           0.00000000     0.00000000     0.00000000
 Dipole moment /Debye                   0.00000000     0.00000000     0.00000000
 

 !RHF expec          <1.7|EKIN|1.7>    11.608262379515
 
 !RHF expec           <1.7|POT|1.7>    -6.640598031230

 ELECTRON ORBITALS
 =================


   Orb  Occ    Energy  Couls-En    Coefficients

                                   1 1s      1 1s      1 1s      1 1s      1 1s      1 3d0     1 3d2+    1 3d0     1 3d2+    1 3d0  
                                   1 3d2+    1 3d0     1 3d2+    1 5g0     1 5g4+    1 5g2+    1 5g0     1 5g4+    1 5g2+ 

   1.1   2    -1.2427   -6.0706  1.000088  0.000052 -0.000116 -0.000051  0.000022 -0.001217  0.002108 -0.001275  0.002209 -0.000109
                                 0.000189 -0.000405  0.000702 -0.000008 -0.000017  0.000013  0.000000  0.000001 -0.000000

                                   1 2px     1 2px     1 2px     1 2px     1 2px     1 4f1+    1 4f3+    1 4f1+    1 4f3+    1 4f1+ 
                                   1 4f3+ 

   1.2   2    -0.5664   -4.7059  1.000039  0.000090 -0.000512  0.000195  0.000070  0.001382 -0.001784  0.001976 -0.002551  0.000941
                                -0.001215

                                   1 2py     1 2py     1 2py     1 2py     1 2py     1 4f1-    1 4f3-    1 4f1-    1 4f3-    1 4f1- 
                                   1 4f3- 

   1.3   +    -0.7029   -4.9319  1.037691 -0.010793 -0.054033 -0.012820  0.012120  0.000739 -0.002863  0.001418 -0.005490  0.000715
                                -0.002770

                                   1 2pz     1 2pz     1 2pz     1 2pz     1 2pz     1 4f0     1 4f2+    1 4f0     1 4f2+    1 4f0  
                                   1 4f2+ 

   1.5   +    -0.7029   -4.9319  1.037691 -0.010793 -0.054033 -0.012820  0.012120  0.001810 -0.002337  0.003472 -0.004483  0.001752
                                -0.002262

 HOMO      1.2    -0.566354 =     -15.4113eV
 LUMO      2.3     0.138889 =       3.7794eV
 LUMO-HOMO         0.705243 =      19.1906eV


 **********************************************************************************************************************************
 DATASETS  * FILE   NREC   LENGTH (MB)   RECORD NAMES
              1      20       22.81       500      610      700      900      950      970     1000      129      960     1100   
                                          VAR    BASINP    GEOM    SYMINP    ZMAT    AOBASIS   BASIS     P2S    ABASIS      S 
                                         1400     1410     1420     1200     1210     1080     1600     1650     1300     1700   
                                         EKIN       V       ECP      H0       H01     AOSYM     SMH    MOLCAS    ERIS     OPER   

              2       4        2.78       700     1000      520     4202   
                                         GEOM     BASIS   MCVARS     RHF  

 PROGRAMS   *        TOTAL       RHF       INT
 CPU TIMES  *         2.77      0.09      2.55
 REAL TIME  *        20.24 SEC
 DISK USED  *        34.49 MB      
 **********************************************************************************************************************************


 PROGRAM * MULTI (Direct Multiconfiguration SCF)       Authors: P.J. Knowles, H.-J. Werner (1984)     S.T. Elbert (1988)


 Number of closed-shell orbitals:   1 (   1   0   0   0   0   0   0   0 )
 Number of active  orbitals:        3 (   0   1   1   0   1   0   0   0 )
 Number of external orbitals:      75 (  18  10  10   8  10   8   8   3 )

 State symmetry 1

 Number of electrons:     4    Spin symmetry=Triplet   Space symmetry=4
 Number of states:        1
 Number of CSFs:          1   (1 determinants, 3 intermediate states)

 State symmetry 2

 Number of electrons:     4    Spin symmetry=Triplet   Space symmetry=6
 Number of states:        1
 Number of CSFs:          1   (1 determinants, 3 intermediate states)

 State symmetry 3

 Number of electrons:     4    Spin symmetry=Triplet   Space symmetry=7
 Number of states:        1
 Number of CSFs:          1   (1 determinants, 3 intermediate states)

 Iteration controls:
             1  2  3  4  5  6  7  8  9 10 11 12 13 14 15 16 17 18 19 20 21 22 23 24 25 26 27 28 29 30 31 32 33 34 35 36 37 38 39
 DIAGCI      T  T  T  T  T  T  T  T  T  T  T  T  T  T  T  T  T  T  T  T  T  T  T  T  T  T  T  T  T  T  T  T  T  T  T  T  T  T  T
 WERNER      T  T  T  T  T  T  T  T  T  T  T  T  T  T  T  T  T  T  T  T  T  T  T  T  T  T  T  T  T  T  T  T  T  T  T  T  T  T  T
 INTERNAL    F  T  T  T  T  T  T  T  T  T  T  T  T  T  T  T  T  T  T  T  T  T  T  T  T  T  T  T  T  T  T  T  T  T  T  T  T  T  T

 Molecular orbitals read from record     4202.2  Type=RHF/CANONICAL (state 1.7)
 *** IN SYMMETRY 1 ORBITAL  1 SYMMETRY CONTAMINATION OF 0.818D-02 HAS BEEN REMOVED

 EXTRA SYMMETRY OF MOS IN SYMMETRY 1:   1 1 2 3 1 2 3 4 5 6   2 3 1 4 5 6 2 3 1
 *** IN SYMMETRY 2 ORBITAL  1 SYMMETRY CONTAMINATION OF 0.974D-02 HAS BEEN REMOVED
 EXTRA SYMMETRY OF MOS IN SYMMETRY 2:   1 1 1 2 3 1 2 3 1 2   3
 *** IN SYMMETRY 3 ORBITAL  1 SYMMETRY CONTAMINATION OF 0.123D-01 HAS BEEN REMOVED
 EXTRA SYMMETRY OF MOS IN SYMMETRY 3:   1 1 1 2 3 1 2 3 1 2   3
 EXTRA SYMMETRY OF MOS IN SYMMETRY 4:   1 1 2 3 1 2 3 1
 *** IN SYMMETRY 5 ORBITAL  1 SYMMETRY CONTAMINATION OF 0.141D-01 HAS BEEN REMOVED
 EXTRA SYMMETRY OF MOS IN SYMMETRY 5:   1 1 1 2 3 1 2 3 1 2   3
 EXTRA SYMMETRY OF MOS IN SYMMETRY 6:   1 1 3 2 1 3 2 1
 EXTRA SYMMETRY OF MOS IN SYMMETRY 7:   1 1 2 3 1 2 3 1

 Wavefunction dump at record             5202.2

 Convergence thresholds  0.10E-01 (gradient)  0.10E-05 (energy)  0.10E-02 (step length)

 Weight factors for state symmetry  1:    0.33333
 Weight factors for state symmetry  2:    0.33333
 Weight factors for state symmetry  3:    0.33333

 Number of orbital rotations:       48   (     0 Core/Active     18 Core/Virtual   0 Active/Active     30 Active/Virtual)
 Total number of variables:         51


 ITER. MIC  NCI  NEG     ENERGY(VAR)     ENERGY(PROJ)   ENERGY CHANGE     GRAD(0)  GRAD(ORB)   GRAD(CI)     STEP       TIME

   1   23   12    0     -15.70317931     -15.70545037   -0.00227106    0.05686992 0.00000000 0.00000000  0.47D-01      0.04
   2   15   12    0     -15.70546096     -15.70546111   -0.00000016    0.00059968 0.00000000 0.00000000  0.34D-03      0.06
   3   15   12    0     -15.70546111     -15.70546111    0.00000000    0.00000006 0.00000000 0.00000000  0.29D-07      0.07

 ** WVFN ****  CONVERGENCE REACHED, FINAL GRADIENT:  0.24D-13



 Results for state 1.4
 =====================

 !MCSCF STATE 1.4 Energy              -15.705461113017
 Nuclear energy                         0.00000000
 Kinetic energy                        11.60608100
 One electron energy                  -26.39987139
 Two electron energy                   10.69441028
 Virial ratio                           2.35320968

 !MCSCF STATE 1.4 Dipole moment         0.00000000     0.00000000     0.00000000
 Dipole moment /Debye                   0.00000000     0.00000000     0.00000000



 Results for state 1.6
 =====================

 !MCSCF STATE 1.6 Energy              -15.705461113017
 Nuclear energy                         0.00000000
 Kinetic energy                        11.60608100
 One electron energy                  -26.39987139
 Two electron energy                   10.69441028
 Virial ratio                           2.35320968

 !MCSCF STATE 1.6 Dipole moment         0.00000000     0.00000000     0.00000000
 Dipole moment /Debye                   0.00000000     0.00000000     0.00000000



 Results for state 1.7
 =====================

 !MCSCF STATE 1.7 Energy              -15.705461113017
 Nuclear energy                         0.00000000
 Kinetic energy                        11.60608100
 One electron energy                  -26.39987139
 Two electron energy                   10.69441028
 Virial ratio                           2.35320968

 !MCSCF STATE 1.7 Dipole moment         0.00000000     0.00000000     0.00000000
 Dipole moment /Debye                   0.00000000     0.00000000     0.00000000

 State-averaged charge density matrix saved on record  5202.2 (density set 1)

 !MCSCF expec        <1.4|EKIN|1.4>    11.606081004305
 !MCSCF expec        <1.6|EKIN|1.6>    11.606081004305
 !MCSCF expec        <1.7|EKIN|1.7>    11.606081004305

 !MCSCF expec         <1.4|POT|1.4>    -6.641285537796
 !MCSCF expec         <1.6|POT|1.6>    -6.641285537796
 !MCSCF expec         <1.7|POT|1.7>    -6.641285537796


 NATURAL ORBITALS (state averaged)
 =================================

   Orb     Occ        Energy       Coefficients

                                   1 1s      1 1s      1 1s      1 1s      1 1s      1 3d0     1 3d2+    1 3d0     1 3d2+    1 3d0  
                                   1 3d2+    1 3d0     1 3d2+    1 5g0     1 5g4+    1 5g2+    1 5g0     1 5g4+    1 5g2+ 

   1.1  2.00000    -1.241991     0.999964  0.000021  0.000192 -0.000215  0.000063  0.000000  0.000000  0.000000  0.000000  0.000000
                                 0.000000  0.000000  0.000000  0.000000  0.000000  0.000000  0.000000  0.000000  0.000000

                                   1 2px     1 2px     1 2px     1 2px     1 2px     1 4f1+    1 4f3+    1 4f1+    1 4f3+    1 4f1+ 
                                   1 4f3+ 

   1.2  1.33333    -0.368868     1.019046 -0.006557 -0.027086 -0.005233  0.005597  0.000000  0.000000  0.000000  0.000000  0.000000
                                 0.000000

                                   1 2py     1 2py     1 2py     1 2py     1 2py     1 4f1-    1 4f3-    1 4f1-    1 4f3-    1 4f1- 
                                   1 4f3- 

   1.3  1.33333    -0.368868     1.019046 -0.006557 -0.027086 -0.005233  0.005597  0.000000  0.000000  0.000000  0.000000  0.000000
                                 0.000000

                                   1 2pz     1 2pz     1 2pz     1 2pz     1 2pz     1 4f0     1 4f2+    1 4f0     1 4f2+    1 4f0  
                                   1 4f2+ 

   1.5  1.33333    -0.368868     1.019046 -0.006557 -0.027086 -0.005233  0.005597  0.000000  0.000000  0.000000  0.000000  0.000000
                                 0.000000
 

 EXTRA SYMMETRY OF MOS IN SYMMETRY 1:   1 1 2 3 1 2 3 6 4 5   2 3 1 6 4 5 3 2 1
 EXTRA SYMMETRY OF MOS IN SYMMETRY 4:   1 1 2 3 1 3 2 1
 EXTRA SYMMETRY OF MOS IN SYMMETRY 7:   1 1 3 2 1 3 2 1

 Natural orbital dump (state averaged) at molpro section  5202.2    (Orbital set 2)


 CI vector for state symmetry 1
 ==============================

 a a 2           1.0000000

 TOTAL ENERGIES                       -15.70546111

 CI vector for state symmetry 2
 ==============================

 a 2 a           1.0000000

 TOTAL ENERGIES                       -15.70546111

 CI vector for state symmetry 3
 ==============================

 2 a a           1.0000000

 TOTAL ENERGIES                       -15.70546111



 **********************************************************************************************************************************
 DATASETS  * FILE   NREC   LENGTH (MB)   RECORD NAMES
              1      21       22.93       500      610      700      900      950      970     1000      129      960     1100   
                                          VAR    BASINP    GEOM    SYMINP    ZMAT    AOBASIS   BASIS     P2S    ABASIS      S 
                                         1400     1410     1420     1200     1210     1080     1600     1650     1300     1700   
                                         EKIN       V       ECP      H0       H01     AOSYM     SMH    MOLCAS    ERIS     OPER   
                                         1380   
                                         JKOP   

              2       5        5.31       700     1000      520     4202     5202   
                                         GEOM     BASIS   MCVARS     RHF     MCSCF   

 PROGRAMS   *        TOTAL     MULTI       RHF       INT
 CPU TIMES  *         2.86      0.09      0.09      2.55
 REAL TIME  *        21.41 SEC
 DISK USED  *        37.78 MB      
 **********************************************************************************************************************************


 PROGRAM * RHF-SCF (OPEN SHELL)       Authors: W. Meyer, H.-J. Werner


 NUMBER OF ELECTRONS:       4+    2-    SPACE SYMMETRY=7    SPIN SYMMETRY: Triplet 
 CONVERGENCE THRESHOLDS:    1.00E-05 (Density)    1.00E-07 (Energy)
 MAX. NUMBER OF ITERATIONS:        0
 INTERPOLATION TYPE:            DIIS
 INTERPOLATION STEPS:              2 (START)      1 (STEP)
 LEVEL SHIFTS:                 -0.60 (CLOSED) -0.30 (OPEN) 


 Singly occupied orbitals:      1.3       1.5
 Molecular orbitals read from record     5202.2  Type=MCSCF/NATURAL (state averaged)

 Molecular orbital dump at record        2101.2

 ITERATION    DDIFF          GRAD             ENERGY        2-EL.EN.            DIPOLE MOMENTS         DIIS   ORB.
    1      0.000D+00      0.000D+00       -15.70546111     21.388821    0.00000    0.00000    0.00000    0    start

 Final alpha occupancy:   1   1   1   0   1   0   0   0
 Final beta  occupancy:   1   1   0   0   0   0   0   0

 !RHF STATE 1.7 Energy                -15.705461113017
 Nuclear energy                         0.00000000
 One-electron energy                  -26.39987139
 Two-electron energy                   10.69441028
 Virial quotient                       -1.35320968
 !RHF STATE 1.7 Dipole moment           0.00000000     0.00000000     0.00000000
 Dipole moment /Debye                   0.00000000     0.00000000     0.00000000
 

 !RHF expec          <1.7|EKIN|1.7>    11.606081004305
 
 !RHF expec           <1.7|POT|1.7>    -6.641285537796

 ELECTRON ORBITALS
 =================


   Orb  Occ    Energy  Couls-En    Coefficients

                                   1 1s      1 1s      1 1s      1 1s      1 1s      1 3d0     1 3d2+    1 3d0     1 3d2+    1 3d0  
                                   1 3d2+    1 3d0     1 3d2+    1 5g0     1 5g4+    1 5g2+    1 5g0     1 5g4+    1 5g2+ 

   1.1   2    -1.2420   -6.0698  0.999964  0.000021  0.000192 -0.000215  0.000063  0.000000  0.000000  0.000000  0.000000  0.000000
                                 0.000000  0.000000  0.000000  0.000000  0.000000  0.000000  0.000000  0.000000  0.000000

                                   1 2px     1 2px     1 2px     1 2px     1 2px     1 4f1+    1 4f3+    1 4f1+    1 4f3+    1 4f1+ 
                                   1 4f3+ 

   1.2   2    -0.3689   -4.5549  1.019046 -0.006557 -0.027086 -0.005233  0.005597  0.000000  0.000000  0.000000  0.000000  0.000000
                                 0.000000

                                   1 2py     1 2py     1 2py     1 2py     1 2py     1 4f1-    1 4f3-    1 4f1-    1 4f3-    1 4f1- 
                                   1 4f3- 

   1.3   +    -0.3689   -4.5549  1.019046 -0.006557 -0.027086 -0.005233  0.005597  0.000000  0.000000  0.000000  0.000000  0.000000
                                 0.000000

                                   1 2pz     1 2pz     1 2pz     1 2pz     1 2pz     1 4f0     1 4f2+    1 4f0     1 4f2+    1 4f0  
                                   1 4f2+ 

   1.5   +    -0.3689   -4.5549  1.019046 -0.006557 -0.027086 -0.005233  0.005597  0.000000  0.000000  0.000000  0.000000  0.000000
                                 0.000000

 HOMO      1.2    -0.368868 =     -10.0374eV
 LUMO      2.2     0.145926 =       3.9709eV
 LUMO-HOMO         0.514794 =      14.0083eV


 **********************************************************************************************************************************
 DATASETS  * FILE   NREC   LENGTH (MB)   RECORD NAMES
              1      21       22.93       500      610      700      900      950      970     1000      129      960     1100   
                                          VAR    BASINP    GEOM    SYMINP    ZMAT    AOBASIS   BASIS     P2S    ABASIS      S 
                                         1400     1410     1420     1200     1210     1080     1600     1650     1300     1700   
                                         EKIN       V       ECP      H0       H01     AOSYM     SMH    MOLCAS    ERIS     OPER   
                                         1380   
                                         JKOP   

              2       6        7.84       700     1000      520     4202     5202     2101   
                                         GEOM     BASIS   MCVARS     RHF     MCSCF     RHF  

 PROGRAMS   *        TOTAL       RHF     MULTI       RHF       INT
 CPU TIMES  *         2.87      0.01      0.09      0.09      2.55
 REAL TIME  *        21.72 SEC
 DISK USED  *        37.78 MB      
 **********************************************************************************************************************************
 SETTING SCF(I)         =       -15.70546111  AU                              
 SETTING _CC_NORM_MAX   =         2.00000000                                  


 PROGRAM * FCI (Full CI)     Author: P.J. Knowles, 1984

 ***  Initialisation ***
 
 Molecular orbitals read from record     2101.2  Type=RHF/CANONICAL (state 1.7)
 
 Frozen orbitals:              0 (  0  0  0  0  0  0  0  0)
 Active orbitals:             79 ( 19 11 11  8 11  8  8  3)
 Active electrons:             6
 Spin quantum number:          1.0
 Orbital pairs:                   502     409     409     370     409     370     370     321
 Strings:                      187715  187648  187648  187830  187648  187830  187830  188352
                                  423     409     409     370     409     370     370     321
 Determinants:                      578599833       578638669       578638669       578667880
                                    578638669       578667880       578667880       578686101

 Load integrals                3.0 sec
 Transform integrals           3.3 sec
 Storage for integrals:        1280149
 Remaining memory:           *********

 Core energy:               0.00000000
 Run Hamiltonian processor DAVIDSON
 Symmetry:                   7
 Trial vector:                  0.00
 Result vector:                 0.00
 Maximum iterations:          100
 Convergence threshold:         0.0000100
 RHS vector:                    0.00
 Hamiltonian shift:             0.0000000
 Output threshold:              0.0500000
 Options:                        0
 Number of roots:             1

 Hamiltonian diagonaliser entered at time      4.66

 Initial configuration generated:
81595660      1.0000000    -15.7054611

 It  Tr    CPU  Convergence   Energy       Pop     dE(next)

  1   1 9915.2  1.00000000   -15.70546111
                                           0.00 -0.20828927 -0.20828926
  2   117628.5  0.19977261   -15.88828742
                                           0.00 -0.01043951 -0.01043127
  3   126326.6  0.03921778   -15.89817309
                                           0.01 -0.00072790 -0.00072301
  4   137391.1  0.01583183   -15.89896394
                                           0.02 -0.00011229 -0.00011053
  5   151336.0  0.00767934   -15.89908752
                                           0.03 -0.00002145 -0.00002087
  6   168949.8  0.00293031   -15.89911029
                                           0.06 -0.00000339 -0.00000325
  7   194336.7  0.00110401   -15.89911392
                                           0.10 -0.00000048 -0.00000045
  8   1*******  0.00035430   -15.89911440
                                           0.14 -0.00000008 -0.00000007
