TACC:  Starting up job 3912613 
TACC:  Starting parallel tasks... 
  Input file(s): Be.log.qmc.in-wfj.xml 

=====================================================
                    QMCPACK 3.7.9

       (c) Copyright 2003-  QMCPACK developers

                    Please cite:
 J. Kim et al. J. Phys. Cond. Mat. 30 195901 (2018)
      https://doi.org/10.1088/1361-648X/aab9c3

  Git branch: develop
  Last git commit: 9a049a3fb3e0d7110d61a924a52203fd8296522a
  Last git commit date: Mon Jul 1 13:42:43 2019 -0500
  Last git commit subject: Merge pull request #1686 from ye-luo/rename-to-LCAOHDFParser
=====================================================
  Global options 

  Total number of MPI ranks = 1024
  Number of MPI groups      = 1
  MPI group ID              = 0
  Number of ranks in group  = 1024
  MPI ranks per node        = 64
  OMP 1st level threads     = 1
  OMP nested threading disabled or only 1 thread on the 2nd level

  Precision used in this calculation, see definitions in the manual:
  Base precision      = double
  Full precision      = double

  Structure-of-arrays (SoA) optimization enabled

  Input XML = Be.log.qmc.in-wfj.xml

  Project = Be.log
  date    = 2019-07-01 21:39:30 CDT
  host    = c414-131.stampede2.tacc.utexas.edu

 Random Number
 -------------
  Offset for the random number seeds based on time: 994

  Range of prime numbers to use as seeds over processors and threads = 7879-17573


 Particle Set 
 ------------
  Name: ion0
  All the species have the same mass 1
  Particle set size: 1

 Particle Set 
 ------------
  Name: e
  All the species have the same mass 1
  Particle set size: 2

 Wavefunction setup: 
 ------------------- 
  Name: psi0
  LCAO: SoaAtomicBasisSet<MultiQuintic,0>
Reading BasisSet from HDF5 file:Be.log.orbs.h5
<input node="atomicBasisSet" name="Gaussian" expandYlm="Gamess" angular="cartesian" elementType="Be" normalized="no" type="Numerical" expM="0" />
  AO BasisSet for Be
   Angular momentum expanded in cartesian functions x^lx y^ly z^lz according to Gamess
   Grid is created by the input paremters in h5
    Using log grid ri = 1e-06 rf = 100 npts = 1001
   R(n,l,m,s) 0 0 0 0
   R(n,l,m,s) 1 1 0 0
   R(n,l,m,s) 2 0 0 0
   R(n,l,m,s) 3 0 0 0
   R(n,l,m,s) 4 1 0 0
   R(n,l,m,s) 5 1 0 0
   R(n,l,m,s) 6 2 0 0
   R(n,l,m,s) 7 2 0 0
   R(n,l,m,s) 8 3 0 0
Expanding Ylm (angular function) according to Gamess using cartesian gaussians
Adding 1 cartesian gaussian orbitals for l= 0
Adding 3 cartesian gaussian orbitals for l= 1
Adding 1 cartesian gaussian orbitals for l= 0
Adding 1 cartesian gaussian orbitals for l= 0
Adding 3 cartesian gaussian orbitals for l= 1
Adding 3 cartesian gaussian orbitals for l= 1
Adding 6 cartesian gaussian orbitals for l= 2
Adding 6 cartesian gaussian orbitals for l= 2
Adding 10 cartesian gaussian orbitals for l= 3
  Setting cutoff radius 17.378

   Maximum Angular Momentum  = 3
   Number of Radial functors = 9
   Basis size                = 34

  Created SPOSet builder named 'LCAOBSet' of type molecularorbital
Reuse SPOSetBuilder "LCAOBSet" type MolecularOrbital
  Building SPOSet '' with '' basis set.
Reuse SPOSetBuilder "LCAOBSet" type MolecularOrbital
  Building SPOSet '' with '' basis set.
  Creating a determinant updet group=0 sposet=updet
  Reusing a SPO set updet
Using DiracDeterminant with DelayedUpdate engine
Using rank-1 Sherman-Morrison Fahy update

  Creating a determinant downdet group=1 sposet=downdet
  Reusing a SPO set downdet
Using DiracDeterminant with DelayedUpdate engine
Using rank-1 Sherman-Morrison Fahy update

  FermionWF = SlaterDet

   Jastrow
   -------
    Name: J2   Type: Two-Body   Function: Bspline

    Radial function for species: u - d
     Number of parameters: 10
     Cusp: -0.5
     Cutoff radius: 10

     Name                        Value Type Recompute Use Index
     ---- ---------------------------- ---- --------- --- -----
     ud_0                 0.000000e+00    1         1  ON     0
     ud_1                 0.000000e+00    1         1  ON     1
     ud_2                 0.000000e+00    1         1  ON     2
     ud_3                 0.000000e+00    1         1  ON     3
     ud_4                 0.000000e+00    1         1  ON     4
     ud_5                 0.000000e+00    1         1  ON     5
     ud_6                 0.000000e+00    1         1  ON     6
     ud_7                 0.000000e+00    1         1  ON     7
     ud_8                 0.000000e+00    1         1  ON     8
     ud_9                 0.000000e+00    1         1  ON     9


   Jastrow
   -------
    Name: J1   Type: One-Body   Function: Bspline

    Radial function for element: Be
     Number of parameters: 10
     Cusp: 0
     Cutoff radius: 10

      Name                        Value Type Recompute Use Index
     ----- ---------------------------- ---- --------- --- -----
     eBe_0                 0.000000e+00    1         1  ON     0
     eBe_1                 0.000000e+00    1         1  ON     1
     eBe_2                 0.000000e+00    1         1  ON     2
     eBe_3                 0.000000e+00    1         1  ON     3
     eBe_4                 0.000000e+00    1         1  ON     4
     eBe_5                 0.000000e+00    1         1  ON     5
     eBe_6                 0.000000e+00    1         1  ON     6
     eBe_7                 0.000000e+00    1         1  ON     7
     eBe_8                 0.000000e+00    1         1  ON     8
     eBe_9                 0.000000e+00    1         1  ON     9


   Jastrow
   -------
    Name: J3   Type: eeI   Function: polynomial

     Ion: Be   electron-electron: u - u
      Number of parameters for e-e: 3, for e-I: 3
      Cutoff radius: 10

Expected 26 parameters, but found 0 in PolynomialFunctor3D.
     Ion: Be   electron-electron: u - d
      Number of parameters for e-e: 3, for e-I: 3
      Cutoff radius: 10

Expected 26 parameters, but found 0 in PolynomialFunctor3D.
  QMCHamiltonian::addOperator Kinetic to H, physical Hamiltonian 
  QMCHamiltonian::addOperator ElecElec to H, physical Hamiltonian 
QMCHamiltonian::addOperatorType added type coulomb named ElecElec
  CoulombAA for ion0 is not created.  Number of particles == 1 and nonPeriodic

  ECPotential builder for pseudopotential 

  Adding pseudopotential for Be
   Linear grid  ri=0 rf=10 npts = 10001
    ECPComponentBuilder::buildSemiLocalAndLocal 
    Assuming Hartree unit
   Number of angular momentum channels 2
   Maximum angular momentum channel 1
   Creating a Linear Grid Rmax=2.37
  Using global grid with delta = 0.001
   Making L=1 a local potential with a radial cutoff of 9.999
    Non-local pseudopotential parameters
    Maximum angular mementum = 0
    Number of non-local channels = 1
       l(0)=0
    Cutoff radius = 2.37
    Spherical grids and weights: 
                        1                 0                 0       0.08333333333
                       -1   1.224646799e-16                 0       0.08333333333
             0.4472135955       0.894427191                 0       0.08333333333
            -0.4472135955      0.7236067977      0.5257311121       0.08333333333
             0.4472135955      0.2763932023      0.8506508084       0.08333333333
            -0.4472135955     -0.2763932023      0.8506508084       0.08333333333
             0.4472135955     -0.7236067977      0.5257311121       0.08333333333
            -0.4472135955      -0.894427191   1.095357397e-16       0.08333333333
             0.4472135955     -0.7236067977     -0.5257311121       0.08333333333
            -0.4472135955     -0.2763932023     -0.8506508084       0.08333333333
             0.4472135955      0.2763932023     -0.8506508084       0.08333333333
            -0.4472135955      0.7236067977     -0.5257311121       0.08333333333
    Maximum cutoff radius 2.37
  QMCHamiltonian::addOperator LocalECP to H, physical Hamiltonian 

  Using NonLocalECP potential 
    Maximum grid on a sphere for NonLocalECPotential: 12
  QMCHamiltonian::addOperator NonLocalECP to H, physical Hamiltonian 
QMCHamiltonian::addOperatorType added type pseudo named PseudoPot

  QMCHamiltonian::add2WalkerProperty added
    4 to P::PropertyList 
    0 to P::Collectables 
    starting Index of the observables in P::PropertyList = 9
ParticleSetPool::randomize 
<init source="ion0" target="e">
</init>
  Initialization Execution time = 0.6589 secs
=========================================================
 Summary of QMC systems 
=========================================================
ParticleSetPool has: 

  ParticleSet 'e' contains 2 particles :  u(1) d(1)

    u -2.5416655400e-01 -6.1460787099e-01  7.8412989768e-02
    d -3.4659802745e-01  2.3707285079e-01 -2.4977962253e-01

  Distance table for dissimilar particles (A-B):
    source: ion0  target: e
    Using structure-of-arrays (SoA) data layout
    Distance computations use open boundary conditions in 3D.

  Distance table for similar particles (A-A):
    source/target: e
    Using structure-of-arrays (SoA) data layout
    Distance computations use open boundary conditions in 3D.


  ParticleSet 'ion0' contains 1 particles :  Be(1)

    Be  0.0000000000e+00  0.0000000000e+00  0.0000000000e+00


  Hamiltonian h0
  Kinetic         Kinetic energy
  ElecElec        CoulombAB source=e

  LocalECP        LocalECPotential: ion0
  NonLocalECP     NonLocalECPotential: ion0


=========================================================
  Start VMC
  File Root Be.log.s000 append = no 
=========================================================
  Adding 1 walkers to 0 existing sets
  Total number of walkers: 1.0240000000e+03
  Total weight: 1.0240000000e+03
  Resetting Properties of the walkers 1 x 13

<vmc function="put">
  qmc_counter=0  my_counter=0
  time step      = 1.5000000000e-01
  blocks         = 200
  steps          = 1
  substeps       = 5
  current        = 0
  target samples = 1.0240000000e+03
  walkers/mpi    = 1

  stepsbetweensamples = 200
<parameter name="blocks" condition="int">200</parameter>
<parameter name="blocks_between_recompute" condition="int">0</parameter>
<parameter name="check_properties" condition="int">100</parameter>
<parameter name="checkproperties" condition="int">100</parameter>
<parameter name="current" condition="int">0</parameter>
<parameter name="dmcwalkersperthread" condition="real">1.0000000000e+00</parameter>
<parameter name="maxcpusecs" condition="real">3.6000000000e+05</parameter>
<parameter name="record_configs" condition="int">0</parameter>
<parameter name="record_walkers" condition="int">200</parameter>
<parameter name="recordconfigs" condition="int">0</parameter>
<parameter name="recordwalkers" condition="int">200</parameter>
<parameter name="rewind" condition="int">0</parameter>
<parameter name="samples" condition="real">1.0240000000e+03</parameter>
<parameter name="samplesperthread" condition="real">1.0000000000e+00</parameter>
<parameter name="steps" condition="int">1</parameter>
<parameter name="stepsbetweensamples" condition="int">200</parameter>
<parameter name="store_configs" condition="int">0</parameter>
<parameter name="storeconfigs" condition="int">0</parameter>
<parameter name="sub_steps" condition="int">5</parameter>
<parameter name="substeps" condition="int">5</parameter>
<parameter name="tau" condition="au">1.5000000000e-01</parameter>
<parameter name="time_step" condition="au">1.5000000000e-01</parameter>
<parameter name="timestep" condition="au">1.5000000000e-01</parameter>
<parameter name="use_drift" condition="string">no</parameter>
<parameter name="usedrift" condition="string">no</parameter>
<parameter name="walkers" condition="int">1</parameter>
<parameter name="warmup_steps" condition="int">100</parameter>
<parameter name="warmupsteps" condition="int">100</parameter>
  DumpConfig==false Nothing (configurations, state) will be saved.
  Walker Samples are dumped every 200 steps.
</vmc>
  Set drift_modifier UNR parameter a = 1.0000000000e+00
  Initial partition of walkers 0 1 

  Using Particle by Particle moves
  Walker moves without drift
  Total Sample Size   =1024
  Walker distribution on root = 0 1 
  Using Locality Approximation
===== Memory Usage after the buffer registration =====
Available memory on node 0, free + buffers : 86379 MB
Memory footprint by rank 0 on node 0       : 61 MB
==================================================
  Anonymous Buffer size per walker : 1024 Bytes.
MEMORY increase 0 MB VMC::resetRun
====================================================
  SimpleFixedNodeBranch::finalize after a VMC block
    QMC counter        = 0
    time step          = 0.15
    reference energy   = -0.964799
    reference variance = 0.0501964
====================================================
  QMC Execution time = 3.4812e-01 secs
Loop execution max-interations = 5

=========================================================
  Start QMCFixedSampleLinearOptimize
  File Root Be.log.s001 append = no 
=========================================================
  Skip QMCDriver::putQMCInfo 
  Resetting Properties of the walkers 1 x 13

=========================================================
  Start VMC
  File Root Be.log.s001 append = no 
=========================================================
  Using the current 1 walkers.
  Total number of walkers: 1.0240e+03
  Total weight: 1.0240e+03
  Resetting Properties of the walkers 1 x 13

<vmc function="put">
  qmc_counter=0  my_counter=0
  time step      = 1.5000e-01
  blocks         = 200
  steps          = 2
  substeps       = 5
  current        = 0
  target samples = 2.5600e+05
  walkers/mpi    = 1

  stepsbetweensamples = 1
<parameter name="blocks" condition="int">200</parameter>
<parameter name="blocks_between_recompute" condition="int">0</parameter>
<parameter name="check_properties" condition="int">100</parameter>
<parameter name="checkproperties" condition="int">100</parameter>
<parameter name="current" condition="int">0</parameter>
<parameter name="dmcwalkersperthread" condition="real">2.5000e+02</parameter>
<parameter name="maxcpusecs" condition="real">3.6000e+05</parameter>
<parameter name="record_configs" condition="int">0</parameter>
<parameter name="record_walkers" condition="int">1</parameter>
<parameter name="recordconfigs" condition="int">0</parameter>
<parameter name="recordwalkers" condition="int">1</parameter>
<parameter name="rewind" condition="int">0</parameter>
<parameter name="samples" condition="real">2.5600e+05</parameter>
<parameter name="samplesperthread" condition="real">2.5000e+02</parameter>
<parameter name="steps" condition="int">2</parameter>
<parameter name="stepsbetweensamples" condition="int">1</parameter>
<parameter name="store_configs" condition="int">0</parameter>
<parameter name="storeconfigs" condition="int">0</parameter>
<parameter name="sub_steps" condition="int">5</parameter>
<parameter name="substeps" condition="int">5</parameter>
<parameter name="tau" condition="au">1.5000e-01</parameter>
<parameter name="time_step" condition="au">1.5000e-01</parameter>
<parameter name="timestep" condition="au">1.5000e-01</parameter>
<parameter name="use_drift" condition="string">no</parameter>
<parameter name="usedrift" condition="string">no</parameter>
<parameter name="walkers" condition="int">1</parameter>
<parameter name="warmup_steps" condition="int">0</parameter>
<parameter name="warmupsteps" condition="int">0</parameter>
  DumpConfig==false Nothing (configurations, state) will be saved.
  Walker Samples are dumped every 1 steps.
</vmc>
    Restarting, cummulative properties:
      energy     = -9.6480e-01
      variance   = 0.0000e+00
      r2accepted = 1.0000e-10
      r2proposed = 1.0000e-10
  Set drift_modifier UNR parameter a = 1.0000e+00
 Using QMCCostFunction::QMCCostFunction
  Set drift_modifier UNR parameter a = 1.0000e+00
  EstimatorManagerBase::add replace LocalEnergy estimator.
<optimization-report>
<vmc stage="main" blocks="200">
  Cannot make clones again. Use existing 1 clones
  Initial partition of walkers 0 1 

  Using Particle by Particle moves
  Walker moves without drift
  Total Sample Size   =256000
  Walker distribution on root = 0 1 
  Using Locality Approximation
===== Memory Usage after the buffer registration =====
Available memory on node 0, free + buffers : 86389 MB
Memory footprint by rank 0 on node 0       : 61 MB
==================================================
  Anonymous Buffer size per walker : 1024 Bytes.
MEMORY increase 0 MB VMC::resetRun
====================================================
  SimpleFixedNodeBranch::finalize after a VMC block
    QMC counter        = 1
    time step          = 0.15
    reference energy   = -0.962949
    reference variance = 0.0474311
====================================================
  Execution time = 6.3146e-01
</vmc>
<opt stage="setup">
  <log>
   Reading configurations from h5FileRoot Be.log.s001
  QMCCostFunction is created with 1 threads.
  Using Nonlocal PP in Opt: NonLocalECP
   Number of samples loaded to each thread : 250 
  VMC Eavg = -9.7604e-01
  VMC Evar = 1.1872e-01
  Total weights = 2.5600e+05
  Execution time = 4.5464e-02
  </log>
</opt>
<opt stage="main" walkers="256000">
  <log>

*****************************************
Building overlap and Hamiltonian matrices
*****************************************

Among totally 20 optimized parameters, largest LM parameter change : 4.7214e-01 at parameter 10

******************************************************************************
Init Cost =   1.1872e-01    New Cost =   6.0399e-02  Delta Cost =  -5.8325e-02
******************************************************************************

The new set of parameters is valid. Updating the trial wave function!

*****************************************************************************
Applying the update for shift_i =   1.0000e-02     and shift_s =   2.5000e-01
*****************************************************************************
  Execution time = 1.6313e+00
  </log>
  <optVariables href="Be.log.s001.opt.xml">
 ud_0                 2.623092e-01 1 1  ON 0
 ud_1                 2.282507e-01 1 1  ON 1
 ud_2                 7.408388e-02 1 1  ON 2
 ud_3                -4.799865e-03 1 1  ON 3
 ud_4                -6.331697e-02 1 1  ON 4
 ud_5                -9.385741e-02 1 1  ON 5
 ud_6                -1.076589e-01 1 1  ON 6
 ud_7                -1.037661e-01 1 1  ON 7
 ud_8                -8.416642e-02 1 1  ON 8
 ud_9                -5.663819e-02 1 1  ON 9
eBe_0                -4.721365e-01 1 1  ON 10
eBe_1                 5.208188e-03 1 1  ON 11
eBe_2                 1.853456e-02 1 1  ON 12
eBe_3                 5.852090e-02 1 1  ON 13
eBe_4                 7.917032e-02 1 1  ON 14
eBe_5                 9.323458e-02 1 1  ON 15
eBe_6                 8.828001e-02 1 1  ON 16
eBe_7                 6.968438e-02 1 1  ON 17
eBe_8                 3.725102e-02 1 1  ON 18
eBe_9                 1.422733e-02 1 1  ON 19
  </optVariables>
   Restore the number of walkers to 1, removing 0 walkers.
</opt>
</optimization-report>
  QMC Execution time = 1.64 secs
  Reusing QMCFixedSampleLinearOptimize
 Using QMCCostFunction::QMCCostFunction

=========================================================
  Start QMCFixedSampleLinearOptimize
  File Root Be.log.s002 append = no 
=========================================================
  Skip QMCDriver::putQMCInfo 
  Resetting Properties of the walkers 1 x 13

=========================================================
  Start VMC
  File Root Be.log.s002 append = no 
=========================================================
Using existing walkers 
  Resetting Properties of the walkers 1 x 13

<vmc function="put">
  qmc_counter=1  my_counter=1
  time step      = 1.5000e-01
  blocks         = 200
  steps          = 2
  substeps       = 5
  current        = 0
  target samples = 2.5600e+05
  walkers/mpi    = 1

  stepsbetweensamples = 1
<parameter name="blocks" condition="int">200</parameter>
<parameter name="blocks_between_recompute" condition="int">0</parameter>
<parameter name="check_properties" condition="int">100</parameter>
<parameter name="checkproperties" condition="int">100</parameter>
<parameter name="current" condition="int">0</parameter>
<parameter name="dmcwalkersperthread" condition="real">2.5000e+02</parameter>
<parameter name="maxcpusecs" condition="real">3.6000e+05</parameter>
<parameter name="record_configs" condition="int">0</parameter>
<parameter name="record_walkers" condition="int">1</parameter>
<parameter name="recordconfigs" condition="int">0</parameter>
<parameter name="recordwalkers" condition="int">1</parameter>
<parameter name="rewind" condition="int">0</parameter>
<parameter name="samples" condition="real">2.5600e+05</parameter>
<parameter name="samplesperthread" condition="real">2.5000e+02</parameter>
<parameter name="steps" condition="int">2</parameter>
<parameter name="stepsbetweensamples" condition="int">1</parameter>
<parameter name="store_configs" condition="int">0</parameter>
<parameter name="storeconfigs" condition="int">0</parameter>
<parameter name="sub_steps" condition="int">5</parameter>
<parameter name="substeps" condition="int">5</parameter>
<parameter name="tau" condition="au">1.5000e-01</parameter>
<parameter name="time_step" condition="au">1.5000e-01</parameter>
<parameter name="timestep" condition="au">1.5000e-01</parameter>
<parameter name="use_drift" condition="string">no</parameter>
<parameter name="usedrift" condition="string">no</parameter>
<parameter name="walkers" condition="int">1</parameter>
<parameter name="warmup_steps" condition="int">0</parameter>
<parameter name="warmupsteps" condition="int">0</parameter>
  DumpConfig==false Nothing (configurations, state) will be saved.
  Walker Samples are dumped every 1 steps.
</vmc>
  Set drift_modifier UNR parameter a = 1.0000e+00
  EstimatorManagerBase::add replace LocalEnergy estimator.
  Set drift_modifier UNR parameter a = 1.0000e+00
  EstimatorManagerBase::add replace LocalEnergy estimator.
<optimization-report>
<vmc stage="main" blocks="200">
  Cannot make clones again. Use existing 1 clones
  Initial partition of walkers 0 1 
  Using Particle by Particle moves
  Walker moves without drift
  Total Sample Size   =256000
  Walker distribution on root = 0 1 
  Using Locality Approximation
===== Memory Usage after the buffer registration =====
Available memory on node 0, free + buffers : 54185 MB
Memory footprint by rank 0 on node 0       : 573 MB
==================================================
====================================================
  SimpleFixedNodeBranch::finalize after a VMC block
    QMC counter        = 2
    time step          = 0.15
    reference energy   = -0.970987
    reference variance = 0.0377208
====================================================
  Execution time = 8.0323e-01
</vmc>
<opt stage="setup">
  <log>
   Reading configurations from h5FileRoot Be.log.s002
  QMCCostFunction is created with 1 threads.
  Using Nonlocal PP in Opt: NonLocalECP
   Number of samples loaded to each thread : 250 
  VMC Eavg = -1.0055e+00
  VMC Evar = 7.2095e-02
  Total weights = 2.5600e+05
  Execution time = 3.0110e-02
  </log>
</opt>
<opt stage="main" walkers="256000">
  <log>

*****************************************
Building overlap and Hamiltonian matrices
*****************************************

Among totally 20 optimized parameters, largest LM parameter change : 3.5420e-01 at parameter 10

******************************************************************************
Init Cost =   7.2095e-02    New Cost =   5.2863e-02  Delta Cost =  -1.9232e-02
******************************************************************************

The new set of parameters is valid. Updating the trial wave function!

*****************************************************************************
Applying the update for shift_i =   1.0000e-02     and shift_s =   6.2500e-02
*****************************************************************************
  Execution time = 8.7696e-01
  </log>
  <optVariables href="Be.log.s002.opt.xml">
 ud_0                 4.845107e-01 1 1  ON 0
 ud_1                 4.425984e-01 1 1  ON 1
 ud_2                 1.847761e-01 1 1  ON 2
 ud_3                 2.796548e-02 1 1  ON 3
 ud_4                -9.631245e-02 1 1  ON 4
 ud_5                -1.749538e-01 1 1  ON 5
 ud_6                -2.185255e-01 1 1  ON 6
 ud_7                -2.245164e-01 1 1  ON 7
 ud_8                -1.889289e-01 1 1  ON 8
 ud_9                -1.280552e-01 1 1  ON 9
eBe_0                -8.263345e-01 1 1  ON 10
eBe_1                -4.867214e-02 1 1  ON 11
eBe_2                -7.484004e-03 1 1  ON 12
eBe_3                 9.505570e-02 1 1  ON 13
eBe_4                 1.455129e-01 1 1  ON 14
eBe_5                 1.879083e-01 1 1  ON 15
eBe_6                 1.844995e-01 1 1  ON 16
eBe_7                 1.466106e-01 1 1  ON 17
eBe_8                 8.033272e-02 1 1  ON 18
eBe_9                 2.808251e-02 1 1  ON 19
  </optVariables>
   Restore the number of walkers to 1, removing 0 walkers.
</opt>
</optimization-report>
  QMC Execution time = 0.8848 secs
  Reusing QMCFixedSampleLinearOptimize
 Using QMCCostFunction::QMCCostFunction

=========================================================
  Start QMCFixedSampleLinearOptimize
  File Root Be.log.s003 append = no 
=========================================================
  Skip QMCDriver::putQMCInfo 
  Resetting Properties of the walkers 1 x 13

=========================================================
  Start VMC
  File Root Be.log.s003 append = no 
=========================================================
Using existing walkers 
  Resetting Properties of the walkers 1 x 13

<vmc function="put">
  qmc_counter=2  my_counter=2
  time step      = 1.5000e-01
  blocks         = 200
  steps          = 2
  substeps       = 5
  current        = 0
  target samples = 2.5600e+05
  walkers/mpi    = 1

  stepsbetweensamples = 1
<parameter name="blocks" condition="int">200</parameter>
<parameter name="blocks_between_recompute" condition="int">0</parameter>
<parameter name="check_properties" condition="int">100</parameter>
<parameter name="checkproperties" condition="int">100</parameter>
<parameter name="current" condition="int">0</parameter>
<parameter name="dmcwalkersperthread" condition="real">2.5000e+02</parameter>
<parameter name="maxcpusecs" condition="real">3.6000e+05</parameter>
<parameter name="record_configs" condition="int">0</parameter>
<parameter name="record_walkers" condition="int">1</parameter>
<parameter name="recordconfigs" condition="int">0</parameter>
<parameter name="recordwalkers" condition="int">1</parameter>
<parameter name="rewind" condition="int">0</parameter>
<parameter name="samples" condition="real">2.5600e+05</parameter>
<parameter name="samplesperthread" condition="real">2.5000e+02</parameter>
<parameter name="steps" condition="int">2</parameter>
<parameter name="stepsbetweensamples" condition="int">1</parameter>
<parameter name="store_configs" condition="int">0</parameter>
<parameter name="storeconfigs" condition="int">0</parameter>
<parameter name="sub_steps" condition="int">5</parameter>
<parameter name="substeps" condition="int">5</parameter>
<parameter name="tau" condition="au">1.5000e-01</parameter>
<parameter name="time_step" condition="au">1.5000e-01</parameter>
<parameter name="timestep" condition="au">1.5000e-01</parameter>
<parameter name="use_drift" condition="string">no</parameter>
<parameter name="usedrift" condition="string">no</parameter>
<parameter name="walkers" condition="int">1</parameter>
<parameter name="warmup_steps" condition="int">0</parameter>
<parameter name="warmupsteps" condition="int">0</parameter>
  DumpConfig==false Nothing (configurations, state) will be saved.
  Walker Samples are dumped every 1 steps.
</vmc>
  Set drift_modifier UNR parameter a = 1.0000e+00
  EstimatorManagerBase::add replace LocalEnergy estimator.
  Set drift_modifier UNR parameter a = 1.0000e+00
  EstimatorManagerBase::add replace LocalEnergy estimator.
<optimization-report>
<vmc stage="main" blocks="200">
  Cannot make clones again. Use existing 1 clones
  Initial partition of walkers 0 1 
  Using Particle by Particle moves
  Walker moves without drift
  Total Sample Size   =256000
  Walker distribution on root = 0 1 
  Using Locality Approximation
===== Memory Usage after the buffer registration =====
Available memory on node 0, free + buffers : 54182 MB
Memory footprint by rank 0 on node 0       : 575 MB
==================================================
====================================================
  SimpleFixedNodeBranch::finalize after a VMC block
    QMC counter        = 3
    time step          = 0.15
    reference energy   = -0.984907
    reference variance = 0.0557961
====================================================
  Execution time = 8.8311e-01
</vmc>
<opt stage="setup">
  <log>
   Reading configurations from h5FileRoot Be.log.s003
  QMCCostFunction is created with 1 threads.
  Using Nonlocal PP in Opt: NonLocalECP
   Number of samples loaded to each thread : 250 
  VMC Eavg = -1.0155e+00
  VMC Evar = 6.2399e-02
  Total weights = 2.5600e+05
  Execution time = 4.3483e-02
  </log>
</opt>
<opt stage="main" walkers="256000">
  <log>

*****************************************
Building overlap and Hamiltonian matrices
*****************************************

Among totally 20 optimized parameters, largest LM parameter change : 1.8336e-01 at parameter 10

******************************************************************************
Init Cost =   6.2399e-02    New Cost =   5.9236e-02  Delta Cost =  -3.1633e-03
******************************************************************************

The new set of parameters is valid. Updating the trial wave function!

*****************************************************************************
Applying the update for shift_i =   1.0000e-02     and shift_s =   1.5625e-02
*****************************************************************************
  Execution time = 9.8441e-01
  </log>
  <optVariables href="Be.log.s003.opt.xml">
 ud_0                 6.606670e-01 1 1  ON 0
 ud_1                 5.860482e-01 1 1  ON 1
 ud_2                 2.669249e-01 1 1  ON 2
 ud_3                 6.430019e-02 1 1  ON 3
 ud_4                -9.775727e-02 1 1  ON 4
 ud_5                -2.113843e-01 1 1  ON 5
 ud_6                -2.862400e-01 1 1  ON 6
 ud_7                -3.145372e-01 1 1  ON 7
 ud_8                -2.809851e-01 1 1  ON 8
 ud_9                -2.027587e-01 1 1  ON 9
eBe_0                -1.009692e+00 1 1  ON 10
eBe_1                -1.040701e-01 1 1  ON 11
eBe_2                -5.991177e-02 1 1  ON 12
eBe_3                 8.604175e-02 1 1  ON 13
eBe_4                 1.663404e-01 1 1  ON 14
eBe_5                 2.450836e-01 1 1  ON 15
eBe_6                 2.572256e-01 1 1  ON 16
eBe_7                 2.220061e-01 1 1  ON 17
eBe_8                 1.312380e-01 1 1  ON 18
eBe_9                 4.718286e-02 1 1  ON 19
  </optVariables>
   Restore the number of walkers to 1, removing 0 walkers.
</opt>
</optimization-report>
  QMC Execution time = 0.9923 secs
  Reusing QMCFixedSampleLinearOptimize
 Using QMCCostFunction::QMCCostFunction

=========================================================
  Start QMCFixedSampleLinearOptimize
  File Root Be.log.s004 append = no 
=========================================================
  Skip QMCDriver::putQMCInfo 
  Resetting Properties of the walkers 1 x 13

=========================================================
  Start VMC
  File Root Be.log.s004 append = no 
=========================================================
Using existing walkers 
  Resetting Properties of the walkers 1 x 13

<vmc function="put">
  qmc_counter=3  my_counter=3
  time step      = 1.5000e-01
  blocks         = 200
  steps          = 2
  substeps       = 5
  current        = 0
  target samples = 2.5600e+05
  walkers/mpi    = 1

  stepsbetweensamples = 1
<parameter name="blocks" condition="int">200</parameter>
<parameter name="blocks_between_recompute" condition="int">0</parameter>
<parameter name="check_properties" condition="int">100</parameter>
<parameter name="checkproperties" condition="int">100</parameter>
<parameter name="current" condition="int">0</parameter>
<parameter name="dmcwalkersperthread" condition="real">2.5000e+02</parameter>
<parameter name="maxcpusecs" condition="real">3.6000e+05</parameter>
<parameter name="record_configs" condition="int">0</parameter>
<parameter name="record_walkers" condition="int">1</parameter>
<parameter name="recordconfigs" condition="int">0</parameter>
<parameter name="recordwalkers" condition="int">1</parameter>
<parameter name="rewind" condition="int">0</parameter>
<parameter name="samples" condition="real">2.5600e+05</parameter>
<parameter name="samplesperthread" condition="real">2.5000e+02</parameter>
<parameter name="steps" condition="int">2</parameter>
<parameter name="stepsbetweensamples" condition="int">1</parameter>
<parameter name="store_configs" condition="int">0</parameter>
<parameter name="storeconfigs" condition="int">0</parameter>
<parameter name="sub_steps" condition="int">5</parameter>
<parameter name="substeps" condition="int">5</parameter>
<parameter name="tau" condition="au">1.5000e-01</parameter>
<parameter name="time_step" condition="au">1.5000e-01</parameter>
<parameter name="timestep" condition="au">1.5000e-01</parameter>
<parameter name="use_drift" condition="string">no</parameter>
<parameter name="usedrift" condition="string">no</parameter>
<parameter name="walkers" condition="int">1</parameter>
<parameter name="warmup_steps" condition="int">0</parameter>
<parameter name="warmupsteps" condition="int">0</parameter>
  DumpConfig==false Nothing (configurations, state) will be saved.
  Walker Samples are dumped every 1 steps.
</vmc>
  Set drift_modifier UNR parameter a = 1.0000e+00
  EstimatorManagerBase::add replace LocalEnergy estimator.
  Set drift_modifier UNR parameter a = 1.0000e+00
  EstimatorManagerBase::add replace LocalEnergy estimator.
<optimization-report>
<vmc stage="main" blocks="200">
  Cannot make clones again. Use existing 1 clones
  Initial partition of walkers 0 1 
  Using Particle by Particle moves
  Walker moves without drift
  Total Sample Size   =256000
  Walker distribution on root = 0 1 
  Using Locality Approximation
===== Memory Usage after the buffer registration =====
Available memory on node 0, free + buffers : 54180 MB
Memory footprint by rank 0 on node 0       : 577 MB
==================================================
====================================================
  SimpleFixedNodeBranch::finalize after a VMC block
    QMC counter        = 4
    time step          = 0.15
    reference energy   = -0.992984
    reference variance = 0.0766842
====================================================
  Execution time = 9.2103e-01
</vmc>
<opt stage="setup">
  <log>
   Reading configurations from h5FileRoot Be.log.s004
  QMCCostFunction is created with 1 threads.
  Using Nonlocal PP in Opt: NonLocalECP
   Number of samples loaded to each thread : 250 
  VMC Eavg = -1.0250e+00
  VMC Evar = 6.2358e-02
  Total weights = 2.5600e+05
  Execution time = 5.1594e-02
  </log>
</opt>
<opt stage="main" walkers="256000">
  <log>

*****************************************
Building overlap and Hamiltonian matrices
*****************************************

Among totally 20 optimized parameters, largest LM parameter change : 1.4005e-01 at parameter 10

******************************************************************************
Init Cost =   6.2358e-02    New Cost =   6.0833e-02  Delta Cost =  -1.5256e-03
******************************************************************************

The new set of parameters is valid. Updating the trial wave function!

*****************************************************************************
Applying the update for shift_i =   1.0000e-02     and shift_s =   3.9062e-03
*****************************************************************************
  Execution time = 1.0388e+00
  </log>
  <optVariables href="Be.log.s004.opt.xml">
 ud_0                 7.885460e-01 1 1  ON 0
 ud_1                 6.660575e-01 1 1  ON 1
 ud_2                 3.183683e-01 1 1  ON 2
 ud_3                 9.261421e-02 1 1  ON 3
 ud_4                -8.845056e-02 1 1  ON 4
 ud_5                -2.215974e-01 1 1  ON 5
 ud_6                -3.161068e-01 1 1  ON 6
 ud_7                -3.642451e-01 1 1  ON 7
 ud_8                -3.453631e-01 1 1  ON 8
 ud_9                -2.644132e-01 1 1  ON 9
eBe_0                -1.149742e+00 1 1  ON 10
eBe_1                -1.600605e-01 1 1  ON 11
eBe_2                -9.914337e-02 1 1  ON 12
eBe_3                 7.275443e-02 1 1  ON 13
eBe_4                 1.737007e-01 1 1  ON 14
eBe_5                 2.773389e-01 1 1  ON 15
eBe_6                 3.120476e-01 1 1  ON 16
eBe_7                 2.902278e-01 1 1  ON 17
eBe_8                 1.840681e-01 1 1  ON 18
eBe_9                 7.227562e-02 1 1  ON 19
  </optVariables>
   Restore the number of walkers to 1, removing 0 walkers.
</opt>
</optimization-report>
  QMC Execution time = 1.047 secs
  Reusing QMCFixedSampleLinearOptimize
 Using QMCCostFunction::QMCCostFunction

=========================================================
  Start QMCFixedSampleLinearOptimize
  File Root Be.log.s005 append = no 
=========================================================
  Skip QMCDriver::putQMCInfo 
  Resetting Properties of the walkers 1 x 13

=========================================================
  Start VMC
  File Root Be.log.s005 append = no 
=========================================================
Using existing walkers 
  Resetting Properties of the walkers 1 x 13

<vmc function="put">
  qmc_counter=4  my_counter=4
  time step      = 1.5000e-01
  blocks         = 200
  steps          = 2
  substeps       = 5
  current        = 0
  target samples = 2.5600e+05
  walkers/mpi    = 1

  stepsbetweensamples = 1
<parameter name="blocks" condition="int">200</parameter>
<parameter name="blocks_between_recompute" condition="int">0</parameter>
<parameter name="check_properties" condition="int">100</parameter>
<parameter name="checkproperties" condition="int">100</parameter>
<parameter name="current" condition="int">0</parameter>
<parameter name="dmcwalkersperthread" condition="real">2.5000e+02</parameter>
<parameter name="maxcpusecs" condition="real">3.6000e+05</parameter>
<parameter name="record_configs" condition="int">0</parameter>
<parameter name="record_walkers" condition="int">1</parameter>
<parameter name="recordconfigs" condition="int">0</parameter>
<parameter name="recordwalkers" condition="int">1</parameter>
<parameter name="rewind" condition="int">0</parameter>
<parameter name="samples" condition="real">2.5600e+05</parameter>
<parameter name="samplesperthread" condition="real">2.5000e+02</parameter>
<parameter name="steps" condition="int">2</parameter>
<parameter name="stepsbetweensamples" condition="int">1</parameter>
<parameter name="store_configs" condition="int">0</parameter>
<parameter name="storeconfigs" condition="int">0</parameter>
<parameter name="sub_steps" condition="int">5</parameter>
<parameter name="substeps" condition="int">5</parameter>
<parameter name="tau" condition="au">1.5000e-01</parameter>
<parameter name="time_step" condition="au">1.5000e-01</parameter>
<parameter name="timestep" condition="au">1.5000e-01</parameter>
<parameter name="use_drift" condition="string">no</parameter>
<parameter name="usedrift" condition="string">no</parameter>
<parameter name="walkers" condition="int">1</parameter>
<parameter name="warmup_steps" condition="int">0</parameter>
<parameter name="warmupsteps" condition="int">0</parameter>
  DumpConfig==false Nothing (configurations, state) will be saved.
  Walker Samples are dumped every 1 steps.
</vmc>
  Set drift_modifier UNR parameter a = 1.0000e+00
  EstimatorManagerBase::add replace LocalEnergy estimator.
  Set drift_modifier UNR parameter a = 1.0000e+00
  EstimatorManagerBase::add replace LocalEnergy estimator.
<optimization-report>
<vmc stage="main" blocks="200">
  Cannot make clones again. Use existing 1 clones
  Initial partition of walkers 0 1 
  Using Particle by Particle moves
  Walker moves without drift
  Total Sample Size   =256000
  Walker distribution on root = 0 1 
  Using Locality Approximation
===== Memory Usage after the buffer registration =====
Available memory on node 0, free + buffers : 54178 MB
Memory footprint by rank 0 on node 0       : 579 MB
==================================================
====================================================
  SimpleFixedNodeBranch::finalize after a VMC block
    QMC counter        = 5
    time step          = 0.15
    reference energy   = -0.984158
    reference variance = 0.106203
====================================================
  Execution time = 9.5995e-01
</vmc>
<opt stage="setup">
  <log>
   Reading configurations from h5FileRoot Be.log.s005
  QMCCostFunction is created with 1 threads.
  Using Nonlocal PP in Opt: NonLocalECP
   Number of samples loaded to each thread : 250 
  VMC Eavg = -1.0249e+00
  VMC Evar = 6.3024e-02
  Total weights = 2.5600e+05
  Execution time = 6.0373e-02
  </log>
</opt>
<opt stage="main" walkers="256000">
  <log>

*****************************************
Building overlap and Hamiltonian matrices
*****************************************

Among totally 20 optimized parameters, largest LM parameter change : 9.6295e-02 at parameter 0

******************************************************************************
Init Cost =   6.3024e-02    New Cost =   6.3083e-02  Delta Cost =   5.8513e-05
******************************************************************************

The new set of parameters is valid. Updating the trial wave function!

*****************************************************************************
Applying the update for shift_i =   1.0000e-02     and shift_s =   3.9062e-03
*****************************************************************************
  Execution time = 1.1025e+00
  </log>
  <optVariables href="Be.log.s005.opt.xml">
 ud_0                 8.848410e-01 1 1  ON 0
 ud_1                 7.207730e-01 1 1  ON 1
 ud_2                 3.613362e-01 1 1  ON 2
 ud_3                 1.211936e-01 1 1  ON 3
 ud_4                -7.091480e-02 1 1  ON 4
 ud_5                -2.185164e-01 1 1  ON 5
 ud_6                -3.285519e-01 1 1  ON 6
 ud_7                -3.927990e-01 1 1  ON 7
 ud_8                -3.885679e-01 1 1  ON 8
 ud_9                -3.213675e-01 1 1  ON 9
eBe_0                -1.216633e+00 1 1  ON 10
eBe_1                -1.985311e-01 1 1  ON 11
eBe_2                -1.345359e-01 1 1  ON 12
eBe_3                 5.019845e-02 1 1  ON 13
eBe_4                 1.631504e-01 1 1  ON 14
eBe_5                 2.828678e-01 1 1  ON 15
eBe_6                 3.370565e-01 1 1  ON 16
eBe_7                 3.415465e-01 1 1  ON 17
eBe_8                 2.377812e-01 1 1  ON 18
eBe_9                 9.718146e-02 1 1  ON 19
  </optVariables>
   Restore the number of walkers to 1, removing 0 walkers.
</opt>
</optimization-report>
  QMC Execution time = 1.11 secs
Loop execution max-interations = 5
  Reusing QMCFixedSampleLinearOptimize
 Using QMCCostFunction::QMCCostFunction

=========================================================
  Start QMCFixedSampleLinearOptimize
  File Root Be.log.s006 append = no 
=========================================================
  Skip QMCDriver::putQMCInfo 
  Resetting Properties of the walkers 1 x 13

=========================================================
  Start VMC
  File Root Be.log.s006 append = no 
=========================================================
  Using the current 1 walkers.
  Total number of walkers: 1.0240e+03
  Total weight: 1.0240e+03
  Resetting Properties of the walkers 1 x 13

<vmc function="put">
  qmc_counter=0  my_counter=5
  time step      = 1.5000e-01
  blocks         = 200
  steps          = 2
  substeps       = 5
  current        = 0
  target samples = 2.5600e+05
  walkers/mpi    = 1

  stepsbetweensamples = 1
<parameter name="blocks" condition="int">200</parameter>
<parameter name="blocks_between_recompute" condition="int">0</parameter>
<parameter name="check_properties" condition="int">100</parameter>
<parameter name="checkproperties" condition="int">100</parameter>
<parameter name="current" condition="int">0</parameter>
<parameter name="dmcwalkersperthread" condition="real">2.5000e+02</parameter>
<parameter name="maxcpusecs" condition="real">3.6000e+05</parameter>
<parameter name="record_configs" condition="int">0</parameter>
<parameter name="record_walkers" condition="int">1</parameter>
<parameter name="recordconfigs" condition="int">0</parameter>
<parameter name="recordwalkers" condition="int">1</parameter>
<parameter name="rewind" condition="int">0</parameter>
<parameter name="samples" condition="real">2.5600e+05</parameter>
<parameter name="samplesperthread" condition="real">2.5000e+02</parameter>
<parameter name="steps" condition="int">2</parameter>
<parameter name="stepsbetweensamples" condition="int">1</parameter>
<parameter name="store_configs" condition="int">0</parameter>
<parameter name="storeconfigs" condition="int">0</parameter>
<parameter name="sub_steps" condition="int">5</parameter>
<parameter name="substeps" condition="int">5</parameter>
<parameter name="tau" condition="au">1.5000e-01</parameter>
<parameter name="time_step" condition="au">1.5000e-01</parameter>
<parameter name="timestep" condition="au">1.5000e-01</parameter>
<parameter name="use_drift" condition="string">no</parameter>
<parameter name="usedrift" condition="string">no</parameter>
<parameter name="walkers" condition="int">1</parameter>
<parameter name="warmup_steps" condition="int">0</parameter>
<parameter name="warmupsteps" condition="int">0</parameter>
  DumpConfig==false Nothing (configurations, state) will be saved.
  Walker Samples are dumped every 1 steps.
</vmc>
  Set drift_modifier UNR parameter a = 1.0000e+00
  EstimatorManagerBase::add replace LocalEnergy estimator.
  Set drift_modifier UNR parameter a = 1.0000e+00
  EstimatorManagerBase::add replace LocalEnergy estimator.
<optimization-report>
<vmc stage="main" blocks="200">
  Cannot make clones again. Use existing 1 clones
  Initial partition of walkers 0 1 
  Using Particle by Particle moves
  Walker moves without drift
  Total Sample Size   =256000
  Walker distribution on root = 0 1 
  Using Locality Approximation
===== Memory Usage after the buffer registration =====
Available memory on node 0, free + buffers : 54176 MB
Memory footprint by rank 0 on node 0       : 580 MB
==================================================
====================================================
  SimpleFixedNodeBranch::finalize after a VMC block
    QMC counter        = 6
    time step          = 0.15
    reference energy   = -0.987889
    reference variance = 0.122428
====================================================
  Execution time = 9.9415e-01
</vmc>
<opt stage="setup">
  <log>
   Reading configurations from h5FileRoot Be.log.s006
  QMCCostFunction is created with 1 threads.
  Using Nonlocal PP in Opt: NonLocalECP
   Number of samples loaded to each thread : 250 
  VMC Eavg = -1.0269e+00
  VMC Evar = 6.4801e-02
  Total weights = 2.5600e+05
  Execution time = 7.6002e-02
  </log>
</opt>
<opt stage="main" walkers="256000">
  <log>

*****************************************
Building overlap and Hamiltonian matrices
*****************************************

Among totally 20 optimized parameters, largest LM parameter change : 7.9687e-02 at parameter 0

******************************************************************************
Init Cost =   6.4801e-02    New Cost =   6.4842e-02  Delta Cost =   4.1064e-05
******************************************************************************

The new set of parameters is valid. Updating the trial wave function!

*****************************************************************************
Applying the update for shift_i =   1.0000e-02     and shift_s =   3.9062e-03
*****************************************************************************
  Execution time = 1.1620e+00
  </log>
  <optVariables href="Be.log.s006.opt.xml">
 ud_0                 9.645279e-01 1 1  ON 0
 ud_1                 7.578778e-01 1 1  ON 1
 ud_2                 3.913656e-01 1 1  ON 2
 ud_3                 1.448635e-01 1 1  ON 3
 ud_4                -5.499746e-02 1 1  ON 4
 ud_5                -2.112955e-01 1 1  ON 5
 ud_6                -3.297597e-01 1 1  ON 6
 ud_7                -4.073769e-01 1 1  ON 7
 ud_8                -4.155375e-01 1 1  ON 8
 ud_9                -3.624825e-01 1 1  ON 9
eBe_0                -1.267760e+00 1 1  ON 10
eBe_1                -2.322243e-01 1 1  ON 11
eBe_2                -1.641309e-01 1 1  ON 12
eBe_3                 3.152823e-02 1 1  ON 13
eBe_4                 1.539415e-01 1 1  ON 14
eBe_5                 2.845111e-01 1 1  ON 15
eBe_6                 3.574789e-01 1 1  ON 16
eBe_7                 3.790283e-01 1 1  ON 17
eBe_8                 2.814706e-01 1 1  ON 18
eBe_9                 1.262429e-01 1 1  ON 19
  </optVariables>
   Restore the number of walkers to 1, removing 0 walkers.
</opt>
</optimization-report>
  QMC Execution time = 1.17 secs
  Reusing QMCFixedSampleLinearOptimize
 Using QMCCostFunction::QMCCostFunction

=========================================================
  Start QMCFixedSampleLinearOptimize
  File Root Be.log.s007 append = no 
=========================================================
  Skip QMCDriver::putQMCInfo 
  Resetting Properties of the walkers 1 x 13

=========================================================
  Start VMC
  File Root Be.log.s007 append = no 
=========================================================
Using existing walkers 
  Resetting Properties of the walkers 1 x 13

<vmc function="put">
  qmc_counter=1  my_counter=6
  time step      = 1.5000e-01
  blocks         = 200
  steps          = 2
  substeps       = 5
  current        = 0
  target samples = 2.5600e+05
  walkers/mpi    = 1

  stepsbetweensamples = 1
<parameter name="blocks" condition="int">200</parameter>
<parameter name="blocks_between_recompute" condition="int">0</parameter>
<parameter name="check_properties" condition="int">100</parameter>
<parameter name="checkproperties" condition="int">100</parameter>
<parameter name="current" condition="int">0</parameter>
<parameter name="dmcwalkersperthread" condition="real">2.5000e+02</parameter>
<parameter name="maxcpusecs" condition="real">3.6000e+05</parameter>
<parameter name="record_configs" condition="int">0</parameter>
<parameter name="record_walkers" condition="int">1</parameter>
<parameter name="recordconfigs" condition="int">0</parameter>
<parameter name="recordwalkers" condition="int">1</parameter>
<parameter name="rewind" condition="int">0</parameter>
<parameter name="samples" condition="real">2.5600e+05</parameter>
<parameter name="samplesperthread" condition="real">2.5000e+02</parameter>
<parameter name="steps" condition="int">2</parameter>
<parameter name="stepsbetweensamples" condition="int">1</parameter>
<parameter name="store_configs" condition="int">0</parameter>
<parameter name="storeconfigs" condition="int">0</parameter>
<parameter name="sub_steps" condition="int">5</parameter>
<parameter name="substeps" condition="int">5</parameter>
<parameter name="tau" condition="au">1.5000e-01</parameter>
<parameter name="time_step" condition="au">1.5000e-01</parameter>
<parameter name="timestep" condition="au">1.5000e-01</parameter>
<parameter name="use_drift" condition="string">no</parameter>
<parameter name="usedrift" condition="string">no</parameter>
<parameter name="walkers" condition="int">1</parameter>
<parameter name="warmup_steps" condition="int">0</parameter>
<parameter name="warmupsteps" condition="int">0</parameter>
  DumpConfig==false Nothing (configurations, state) will be saved.
  Walker Samples are dumped every 1 steps.
</vmc>
  Set drift_modifier UNR parameter a = 1.0000e+00
  EstimatorManagerBase::add replace LocalEnergy estimator.
  Set drift_modifier UNR parameter a = 1.0000e+00
  EstimatorManagerBase::add replace LocalEnergy estimator.
<optimization-report>
<vmc stage="main" blocks="200">
  Cannot make clones again. Use existing 1 clones
  Initial partition of walkers 0 1 
  Using Particle by Particle moves
  Walker moves without drift
  Total Sample Size   =256000
  Walker distribution on root = 0 1 
  Using Locality Approximation
===== Memory Usage after the buffer registration =====
Available memory on node 0, free + buffers : 54174 MB
Memory footprint by rank 0 on node 0       : 582 MB
==================================================
====================================================
  SimpleFixedNodeBranch::finalize after a VMC block
    QMC counter        = 7
    time step          = 0.15
    reference energy   = -0.965264
    reference variance = 0.123245
====================================================
  Execution time = 1.0247e+00
</vmc>
<opt stage="setup">
  <log>
   Reading configurations from h5FileRoot Be.log.s007
  QMCCostFunction is created with 1 threads.
  Using Nonlocal PP in Opt: NonLocalECP
   Number of samples loaded to each thread : 250 
  VMC Eavg = -1.0251e+00
  VMC Evar = 6.5401e-02
  Total weights = 2.5600e+05
  Execution time = 8.4668e-02
  </log>
</opt>
<opt stage="main" walkers="256000">
  <log>

*****************************************
Building overlap and Hamiltonian matrices
*****************************************

Among totally 20 optimized parameters, largest LM parameter change : 7.0135e-02 at parameter 0

******************************************************************************
Init Cost =   6.5401e-02    New Cost =   6.5878e-02  Delta Cost =   4.7693e-04
******************************************************************************

The new set of parameters is valid. Updating the trial wave function!

*****************************************************************************
Applying the update for shift_i =   1.0000e-02     and shift_s =   3.9062e-03
*****************************************************************************
  Execution time = 1.2078e+00
  </log>
  <optVariables href="Be.log.s007.opt.xml">
 ud_0                 1.034663e+00 1 1  ON 0
 ud_1                 7.946856e-01 1 1  ON 1
 ud_2                 4.203328e-01 1 1  ON 2
 ud_3                 1.649549e-01 1 1  ON 3
 ud_4                -4.123912e-02 1 1  ON 4
 ud_5                -2.043099e-01 1 1  ON 5
 ud_6                -3.304668e-01 1 1  ON 6
 ud_7                -4.194151e-01 1 1  ON 7
 ud_8                -4.377598e-01 1 1  ON 8
 ud_9                -3.960857e-01 1 1  ON 9
eBe_0                -1.294689e+00 1 1  ON 10
eBe_1                -2.545699e-01 1 1  ON 11
eBe_2                -1.879573e-01 1 1  ON 12
eBe_3                 1.332795e-02 1 1  ON 13
eBe_4                 1.395576e-01 1 1  ON 14
eBe_5                 2.840360e-01 1 1  ON 15
eBe_6                 3.678110e-01 1 1  ON 16
eBe_7                 4.053392e-01 1 1  ON 17
eBe_8                 3.178138e-01 1 1  ON 18
eBe_9                 1.491700e-01 1 1  ON 19
  </optVariables>
   Restore the number of walkers to 1, removing 0 walkers.
</opt>
</optimization-report>
  QMC Execution time = 1.215 secs
  Reusing QMCFixedSampleLinearOptimize
 Using QMCCostFunction::QMCCostFunction

=========================================================
  Start QMCFixedSampleLinearOptimize
  File Root Be.log.s008 append = no 
=========================================================
  Skip QMCDriver::putQMCInfo 
  Resetting Properties of the walkers 1 x 13

=========================================================
  Start VMC
  File Root Be.log.s008 append = no 
=========================================================
Using existing walkers 
  Resetting Properties of the walkers 1 x 13

<vmc function="put">
  qmc_counter=2  my_counter=7
  time step      = 1.5000e-01
  blocks         = 200
  steps          = 2
  substeps       = 5
  current        = 0
  target samples = 2.5600e+05
  walkers/mpi    = 1

  stepsbetweensamples = 1
<parameter name="blocks" condition="int">200</parameter>
<parameter name="blocks_between_recompute" condition="int">0</parameter>
<parameter name="check_properties" condition="int">100</parameter>
<parameter name="checkproperties" condition="int">100</parameter>
<parameter name="current" condition="int">0</parameter>
<parameter name="dmcwalkersperthread" condition="real">2.5000e+02</parameter>
<parameter name="maxcpusecs" condition="real">3.6000e+05</parameter>
<parameter name="record_configs" condition="int">0</parameter>
<parameter name="record_walkers" condition="int">1</parameter>
<parameter name="recordconfigs" condition="int">0</parameter>
<parameter name="recordwalkers" condition="int">1</parameter>
<parameter name="rewind" condition="int">0</parameter>
<parameter name="samples" condition="real">2.5600e+05</parameter>
<parameter name="samplesperthread" condition="real">2.5000e+02</parameter>
<parameter name="steps" condition="int">2</parameter>
<parameter name="stepsbetweensamples" condition="int">1</parameter>
<parameter name="store_configs" condition="int">0</parameter>
<parameter name="storeconfigs" condition="int">0</parameter>
<parameter name="sub_steps" condition="int">5</parameter>
<parameter name="substeps" condition="int">5</parameter>
<parameter name="tau" condition="au">1.5000e-01</parameter>
<parameter name="time_step" condition="au">1.5000e-01</parameter>
<parameter name="timestep" condition="au">1.5000e-01</parameter>
<parameter name="use_drift" condition="string">no</parameter>
<parameter name="usedrift" condition="string">no</parameter>
<parameter name="walkers" condition="int">1</parameter>
<parameter name="warmup_steps" condition="int">0</parameter>
<parameter name="warmupsteps" condition="int">0</parameter>
  DumpConfig==false Nothing (configurations, state) will be saved.
  Walker Samples are dumped every 1 steps.
</vmc>
  Set drift_modifier UNR parameter a = 1.0000e+00
  EstimatorManagerBase::add replace LocalEnergy estimator.
  Set drift_modifier UNR parameter a = 1.0000e+00
  EstimatorManagerBase::add replace LocalEnergy estimator.
<optimization-report>
<vmc stage="main" blocks="200">
  Cannot make clones again. Use existing 1 clones
  Initial partition of walkers 0 1 
  Using Particle by Particle moves
  Walker moves without drift
  Total Sample Size   =256000
  Walker distribution on root = 0 1 
  Using Locality Approximation
===== Memory Usage after the buffer registration =====
Available memory on node 0, free + buffers : 54172 MB
Memory footprint by rank 0 on node 0       : 584 MB
==================================================
====================================================
  SimpleFixedNodeBranch::finalize after a VMC block
    QMC counter        = 8
    time step          = 0.15
    reference energy   = -0.990215
    reference variance = 0.102638
====================================================
  Execution time = 1.0456e+00
</vmc>
<opt stage="setup">
  <log>
   Reading configurations from h5FileRoot Be.log.s008
  QMCCostFunction is created with 1 threads.
  Using Nonlocal PP in Opt: NonLocalECP
   Number of samples loaded to each thread : 250 
  VMC Eavg = -1.0278e+00
  VMC Evar = 6.6002e-02
  Total weights = 2.5600e+05
  Execution time = 9.3486e-02
  </log>
</opt>
<opt stage="main" walkers="256000">
  <log>

*****************************************
Building overlap and Hamiltonian matrices
*****************************************

Among totally 20 optimized parameters, largest LM parameter change : 5.7253e-02 at parameter 0

******************************************************************************
Init Cost =   6.6002e-02    New Cost =   6.5772e-02  Delta Cost =  -2.2923e-04
******************************************************************************

The new set of parameters is valid. Updating the trial wave function!

*****************************************************************************
Applying the update for shift_i =   1.0000e-02     and shift_s =   3.9062e-03
*****************************************************************************
  Execution time = 1.2456e+00
  </log>
  <optVariables href="Be.log.s008.opt.xml">
 ud_0                 1.091916e+00 1 1  ON 0
 ud_1                 8.141232e-01 1 1  ON 1
 ud_2                 4.384743e-01 1 1  ON 2
 ud_3                 1.810276e-01 1 1  ON 3
 ud_4                -2.683959e-02 1 1  ON 4
 ud_5                -1.934682e-01 1 1  ON 5
 ud_6                -3.244256e-01 1 1  ON 6
 ud_7                -4.182660e-01 1 1  ON 7
 ud_8                -4.442197e-01 1 1  ON 8
 ud_9                -4.171716e-01 1 1  ON 9
eBe_0                -1.338736e+00 1 1  ON 10
eBe_1                -2.810796e-01 1 1  ON 11
eBe_2                -2.069194e-01 1 1  ON 12
eBe_3                -3.408495e-04 1 1  ON 13
eBe_4                 1.317538e-01 1 1  ON 14
eBe_5                 2.812412e-01 1 1  ON 15
eBe_6                 3.764414e-01 1 1  ON 16
eBe_7                 4.313409e-01 1 1  ON 17
eBe_8                 3.533361e-01 1 1  ON 18
eBe_9                 1.786258e-01 1 1  ON 19
  </optVariables>
   Restore the number of walkers to 1, removing 0 walkers.
</opt>
</optimization-report>
  QMC Execution time = 1.253 secs
  Reusing QMCFixedSampleLinearOptimize
 Using QMCCostFunction::QMCCostFunction

=========================================================
  Start QMCFixedSampleLinearOptimize
  File Root Be.log.s009 append = no 
=========================================================
  Skip QMCDriver::putQMCInfo 
  Resetting Properties of the walkers 1 x 13

=========================================================
  Start VMC
  File Root Be.log.s009 append = no 
=========================================================
Using existing walkers 
  Resetting Properties of the walkers 1 x 13

<vmc function="put">
  qmc_counter=3  my_counter=8
  time step      = 1.5000e-01
  blocks         = 200
  steps          = 2
  substeps       = 5
  current        = 0
  target samples = 2.5600e+05
  walkers/mpi    = 1

  stepsbetweensamples = 1
<parameter name="blocks" condition="int">200</parameter>
<parameter name="blocks_between_recompute" condition="int">0</parameter>
<parameter name="check_properties" condition="int">100</parameter>
<parameter name="checkproperties" condition="int">100</parameter>
<parameter name="current" condition="int">0</parameter>
<parameter name="dmcwalkersperthread" condition="real">2.5000e+02</parameter>
<parameter name="maxcpusecs" condition="real">3.6000e+05</parameter>
<parameter name="record_configs" condition="int">0</parameter>
<parameter name="record_walkers" condition="int">1</parameter>
<parameter name="recordconfigs" condition="int">0</parameter>
<parameter name="recordwalkers" condition="int">1</parameter>
<parameter name="rewind" condition="int">0</parameter>
<parameter name="samples" condition="real">2.5600e+05</parameter>
<parameter name="samplesperthread" condition="real">2.5000e+02</parameter>
<parameter name="steps" condition="int">2</parameter>
<parameter name="stepsbetweensamples" condition="int">1</parameter>
<parameter name="store_configs" condition="int">0</parameter>
<parameter name="storeconfigs" condition="int">0</parameter>
<parameter name="sub_steps" condition="int">5</parameter>
<parameter name="substeps" condition="int">5</parameter>
<parameter name="tau" condition="au">1.5000e-01</parameter>
<parameter name="time_step" condition="au">1.5000e-01</parameter>
<parameter name="timestep" condition="au">1.5000e-01</parameter>
<parameter name="use_drift" condition="string">no</parameter>
<parameter name="usedrift" condition="string">no</parameter>
<parameter name="walkers" condition="int">1</parameter>
<parameter name="warmup_steps" condition="int">0</parameter>
<parameter name="warmupsteps" condition="int">0</parameter>
  DumpConfig==false Nothing (configurations, state) will be saved.
  Walker Samples are dumped every 1 steps.
</vmc>
  Set drift_modifier UNR parameter a = 1.0000e+00
  EstimatorManagerBase::add replace LocalEnergy estimator.
  Set drift_modifier UNR parameter a = 1.0000e+00
  EstimatorManagerBase::add replace LocalEnergy estimator.
<optimization-report>
<vmc stage="main" blocks="200">
  Cannot make clones again. Use existing 1 clones
  Initial partition of walkers 0 1 
  Using Particle by Particle moves
  Walker moves without drift
  Total Sample Size   =256000
  Walker distribution on root = 0 1 
  Using Locality Approximation
===== Memory Usage after the buffer registration =====
Available memory on node 0, free + buffers : 54170 MB
Memory footprint by rank 0 on node 0       : 586 MB
==================================================
====================================================
  SimpleFixedNodeBranch::finalize after a VMC block
    QMC counter        = 9
    time step          = 0.15
    reference energy   = -0.994971
    reference variance = 0.11865
====================================================
  Execution time = 1.0553e+00
</vmc>
<opt stage="setup">
  <log>
   Reading configurations from h5FileRoot Be.log.s009
  QMCCostFunction is created with 1 threads.
  Using Nonlocal PP in Opt: NonLocalECP
   Number of samples loaded to each thread : 250 
  VMC Eavg = -1.0290e+00
  VMC Evar = 6.5351e-02
  Total weights = 2.5600e+05
  Execution time = 9.7580e-02
  </log>
</opt>
<opt stage="main" walkers="256000">
  <log>

*****************************************
Building overlap and Hamiltonian matrices
*****************************************

Among totally 20 optimized parameters, largest LM parameter change : 4.4717e-02 at parameter 0

******************************************************************************
Init Cost =   6.5351e-02    New Cost =   6.5639e-02  Delta Cost =   2.8823e-04
******************************************************************************

The new set of parameters is valid. Updating the trial wave function!

*****************************************************************************
Applying the update for shift_i =   1.0000e-02     and shift_s =   3.9062e-03
*****************************************************************************
  Execution time = 1.2594e+00
  </log>
  <optVariables href="Be.log.s009.opt.xml">
 ud_0                 1.136633e+00 1 1  ON 0
 ud_1                 8.393419e-01 1 1  ON 1
 ud_2                 4.633770e-01 1 1  ON 2
 ud_3                 1.975354e-01 1 1  ON 3
 ud_4                -1.500491e-02 1 1  ON 4
 ud_5                -1.853444e-01 1 1  ON 5
 ud_6                -3.198658e-01 1 1  ON 6
 ud_7                -4.197759e-01 1 1  ON 7
 ud_8                -4.495022e-01 1 1  ON 8
 ud_9                -4.343384e-01 1 1  ON 9
eBe_0                -1.366817e+00 1 1  ON 10
eBe_1                -2.991333e-01 1 1  ON 11
eBe_2                -2.191199e-01 1 1  ON 12
eBe_3                -9.117730e-03 1 1  ON 13
eBe_4                 1.241927e-01 1 1  ON 14
eBe_5                 2.767124e-01 1 1  ON 15
eBe_6                 3.747038e-01 1 1  ON 16
eBe_7                 4.423540e-01 1 1  ON 17
eBe_8                 3.842948e-01 1 1  ON 18
eBe_9                 2.040832e-01 1 1  ON 19
  </optVariables>
   Restore the number of walkers to 1, removing 0 walkers.
</opt>
</optimization-report>
  QMC Execution time = 1.267 secs
  Reusing QMCFixedSampleLinearOptimize
 Using QMCCostFunction::QMCCostFunction

=========================================================
  Start QMCFixedSampleLinearOptimize
  File Root Be.log.s010 append = no 
=========================================================
  Skip QMCDriver::putQMCInfo 
  Resetting Properties of the walkers 1 x 13

=========================================================
  Start VMC
  File Root Be.log.s010 append = no 
=========================================================
Using existing walkers 
  Resetting Properties of the walkers 1 x 13

<vmc function="put">
  qmc_counter=4  my_counter=9
  time step      = 1.5000e-01
  blocks         = 200
  steps          = 2
  substeps       = 5
  current        = 0
  target samples = 2.5600e+05
  walkers/mpi    = 1

  stepsbetweensamples = 1
<parameter name="blocks" condition="int">200</parameter>
<parameter name="blocks_between_recompute" condition="int">0</parameter>
<parameter name="check_properties" condition="int">100</parameter>
<parameter name="checkproperties" condition="int">100</parameter>
<parameter name="current" condition="int">0</parameter>
<parameter name="dmcwalkersperthread" condition="real">2.5000e+02</parameter>
<parameter name="maxcpusecs" condition="real">3.6000e+05</parameter>
<parameter name="record_configs" condition="int">0</parameter>
<parameter name="record_walkers" condition="int">1</parameter>
<parameter name="recordconfigs" condition="int">0</parameter>
<parameter name="recordwalkers" condition="int">1</parameter>
<parameter name="rewind" condition="int">0</parameter>
<parameter name="samples" condition="real">2.5600e+05</parameter>
<parameter name="samplesperthread" condition="real">2.5000e+02</parameter>
<parameter name="steps" condition="int">2</parameter>
<parameter name="stepsbetweensamples" condition="int">1</parameter>
<parameter name="store_configs" condition="int">0</parameter>
<parameter name="storeconfigs" condition="int">0</parameter>
<parameter name="sub_steps" condition="int">5</parameter>
<parameter name="substeps" condition="int">5</parameter>
<parameter name="tau" condition="au">1.5000e-01</parameter>
<parameter name="time_step" condition="au">1.5000e-01</parameter>
<parameter name="timestep" condition="au">1.5000e-01</parameter>
<parameter name="use_drift" condition="string">no</parameter>
<parameter name="usedrift" condition="string">no</parameter>
<parameter name="walkers" condition="int">1</parameter>
<parameter name="warmup_steps" condition="int">0</parameter>
<parameter name="warmupsteps" condition="int">0</parameter>
  DumpConfig==false Nothing (configurations, state) will be saved.
  Walker Samples are dumped every 1 steps.
</vmc>
  Set drift_modifier UNR parameter a = 1.0000e+00
  EstimatorManagerBase::add replace LocalEnergy estimator.
  Set drift_modifier UNR parameter a = 1.0000e+00
  EstimatorManagerBase::add replace LocalEnergy estimator.
<optimization-report>
<vmc stage="main" blocks="200">
  Cannot make clones again. Use existing 1 clones
  Initial partition of walkers 0 1 
  Using Particle by Particle moves
  Walker moves without drift
  Total Sample Size   =256000
  Walker distribution on root = 0 1 
  Using Locality Approximation
===== Memory Usage after the buffer registration =====
Available memory on node 0, free + buffers : 54168 MB
Memory footprint by rank 0 on node 0       : 587 MB
==================================================
====================================================
  SimpleFixedNodeBranch::finalize after a VMC block
    QMC counter        = 10
    time step          = 0.15
    reference energy   = -0.965884
    reference variance = 0.146022
====================================================
  Execution time = 1.0632e+00
</vmc>
<opt stage="setup">
  <log>
   Reading configurations from h5FileRoot Be.log.s010
  QMCCostFunction is created with 1 threads.
  Using Nonlocal PP in Opt: NonLocalECP
   Number of samples loaded to each thread : 250 
  VMC Eavg = -1.0262e+00
  VMC Evar = 6.7044e-02
  Total weights = 2.5600e+05
  Execution time = 1.0194e-01
  </log>
</opt>
<opt stage="main" walkers="256000">
  <log>

*****************************************
Building overlap and Hamiltonian matrices
*****************************************

Among totally 20 optimized parameters, largest LM parameter change : 3.9376e-02 at parameter 0

******************************************************************************
Init Cost =   6.7044e-02    New Cost =   6.7417e-02  Delta Cost =   3.7300e-04
******************************************************************************

The new set of parameters is valid. Updating the trial wave function!

*****************************************************************************
Applying the update for shift_i =   1.0000e-02     and shift_s =   3.9062e-03
*****************************************************************************
  Execution time = 1.2886e+00
  </log>
  <optVariables href="Be.log.s010.opt.xml">
 ud_0                 1.176009e+00 1 1  ON 0
 ud_1                 8.615126e-01 1 1  ON 1
 ud_2                 4.847362e-01 1 1  ON 2
 ud_3                 2.133082e-01 1 1  ON 3
 ud_4                 2.778954e-04 1 1  ON 4
 ud_5                -1.739520e-01 1 1  ON 5
 ud_6                -3.131427e-01 1 1  ON 6
 ud_7                -4.186856e-01 1 1  ON 7
 ud_8                -4.552435e-01 1 1  ON 8
 ud_9                -4.475102e-01 1 1  ON 9
eBe_0                -1.372319e+00 1 1  ON 10
eBe_1                -3.154187e-01 1 1  ON 11
eBe_2                -2.398308e-01 1 1  ON 12
eBe_3                -2.863995e-02 1 1  ON 13
eBe_4                 1.099293e-01 1 1  ON 14
eBe_5                 2.713571e-01 1 1  ON 15
eBe_6                 3.803410e-01 1 1  ON 16
eBe_7                 4.573026e-01 1 1  ON 17
eBe_8                 4.074430e-01 1 1  ON 18
eBe_9                 2.290853e-01 1 1  ON 19
  </optVariables>
   Restore the number of walkers to 1, removing 0 walkers.
</opt>
</optimization-report>
  QMC Execution time = 1.296 secs
Loop execution max-interations = 10
  Reusing QMCFixedSampleLinearOptimize
 Using QMCCostFunction::QMCCostFunction

=========================================================
  Start QMCFixedSampleLinearOptimize
  File Root Be.log.s011 append = no 
=========================================================
  Skip QMCDriver::putQMCInfo 
  Resetting Properties of the walkers 1 x 13

=========================================================
  Start VMC
  File Root Be.log.s011 append = no 
=========================================================
  Using the current 1 walkers.
  Total number of walkers: 1.0240e+03
  Total weight: 1.0240e+03
  Resetting Properties of the walkers 1 x 13

<vmc function="put">
  qmc_counter=0  my_counter=10
  time step      = 1.5000e-01
  blocks         = 200
  steps          = 3
  substeps       = 5
  current        = 0
  target samples = 5.1200e+05
  walkers/mpi    = 1

  stepsbetweensamples = 1
<parameter name="blocks" condition="int">200</parameter>
<parameter name="blocks_between_recompute" condition="int">0</parameter>
<parameter name="check_properties" condition="int">100</parameter>
<parameter name="checkproperties" condition="int">100</parameter>
<parameter name="current" condition="int">0</parameter>
<parameter name="dmcwalkersperthread" condition="real">5.0000e+02</parameter>
<parameter name="maxcpusecs" condition="real">3.6000e+05</parameter>
<parameter name="record_configs" condition="int">0</parameter>
<parameter name="record_walkers" condition="int">1</parameter>
<parameter name="recordconfigs" condition="int">0</parameter>
<parameter name="recordwalkers" condition="int">1</parameter>
<parameter name="rewind" condition="int">0</parameter>
<parameter name="samples" condition="real">5.1200e+05</parameter>
<parameter name="samplesperthread" condition="real">5.0000e+02</parameter>
<parameter name="steps" condition="int">3</parameter>
<parameter name="stepsbetweensamples" condition="int">1</parameter>
<parameter name="store_configs" condition="int">0</parameter>
<parameter name="storeconfigs" condition="int">0</parameter>
<parameter name="sub_steps" condition="int">5</parameter>
<parameter name="substeps" condition="int">5</parameter>
<parameter name="tau" condition="au">1.5000e-01</parameter>
<parameter name="time_step" condition="au">1.5000e-01</parameter>
<parameter name="timestep" condition="au">1.5000e-01</parameter>
<parameter name="use_drift" condition="string">no</parameter>
<parameter name="usedrift" condition="string">no</parameter>
<parameter name="walkers" condition="int">1</parameter>
<parameter name="warmup_steps" condition="int">0</parameter>
<parameter name="warmupsteps" condition="int">0</parameter>
  DumpConfig==false Nothing (configurations, state) will be saved.
  Walker Samples are dumped every 1 steps.
</vmc>
  Set drift_modifier UNR parameter a = 1.0000e+00
  EstimatorManagerBase::add replace LocalEnergy estimator.
  Set drift_modifier UNR parameter a = 1.0000e+00
  EstimatorManagerBase::add replace LocalEnergy estimator.
<optimization-report>
<vmc stage="main" blocks="200">
  Cannot make clones again. Use existing 1 clones
  Initial partition of walkers 0 1 
  Using Particle by Particle moves
  Walker moves without drift
  Total Sample Size   =512000
  Walker distribution on root = 0 1 
  Using Locality Approximation
===== Memory Usage after the buffer registration =====
Available memory on node 0, free + buffers : 54166 MB
Memory footprint by rank 0 on node 0       : 589 MB
==================================================
====================================================
  SimpleFixedNodeBranch::finalize after a VMC block
    QMC counter        = 11
    time step          = 0.15
    reference energy   = -0.971068
    reference variance = 0.142275
====================================================
  Execution time = 1.2470e+00
</vmc>
<opt stage="setup">
  <log>
   Reading configurations from h5FileRoot Be.log.s011
  QMCCostFunction is created with 1 threads.
  Using Nonlocal PP in Opt: NonLocalECP
   Number of samples loaded to each thread : 500 
  VMC Eavg = -1.0284e+00
  VMC Evar = 6.5829e-02
  Total weights = 5.1200e+05
  Execution time = 2.0564e-01
  </log>
</opt>
<opt stage="main" walkers="512000">
  <log>

*****************************************
Building overlap and Hamiltonian matrices
*****************************************

Among totally 20 optimized parameters, largest LM parameter change : 3.6321e-02 at parameter 0

******************************************************************************
Init Cost =  -9.7369e-01    New Cost =  -9.7375e-01  Delta Cost =  -5.8217e-05
******************************************************************************

The new set of parameters is valid. Updating the trial wave function!

*****************************************************************************
Applying the update for shift_i =   1.0000e-02     and shift_s =   3.9062e-03
*****************************************************************************
  Execution time = 1.6648e+00
  </log>
  <optVariables href="Be.log.s011.opt.xml">
 ud_0                 1.212330e+00 1 1  ON 0
 ud_1                 8.823797e-01 1 1  ON 1
 ud_2                 5.034974e-01 1 1  ON 2
 ud_3                 2.296959e-01 1 1  ON 3
 ud_4                 1.387754e-02 1 1  ON 4
 ud_5                -1.631039e-01 1 1  ON 5
 ud_6                -3.053060e-01 1 1  ON 6
 ud_7                -4.146389e-01 1 1  ON 7
 ud_8                -4.548987e-01 1 1  ON 8
 ud_9                -4.563133e-01 1 1  ON 9
eBe_0                -1.393520e+00 1 1  ON 10
eBe_1                -3.279645e-01 1 1  ON 11
eBe_2                -2.456122e-01 1 1  ON 12
eBe_3                -3.124280e-02 1 1  ON 13
eBe_4                 1.086979e-01 1 1  ON 14
eBe_5                 2.695104e-01 1 1  ON 15
eBe_6                 3.764032e-01 1 1  ON 16
eBe_7                 4.603870e-01 1 1  ON 17
eBe_8                 4.215556e-01 1 1  ON 18
eBe_9                 2.451345e-01 1 1  ON 19
  </optVariables>
   Restore the number of walkers to 1, removing 0 walkers.
</opt>
</optimization-report>
  QMC Execution time = 1.673 secs
  Reusing QMCFixedSampleLinearOptimize
 Using QMCCostFunction::QMCCostFunction

=========================================================
  Start QMCFixedSampleLinearOptimize
  File Root Be.log.s012 append = no 
=========================================================
[...]

******************************************************************************
Init Cost =  -9.7290e-01    New Cost =  -9.7294e-01  Delta Cost =  -4.2388e-05
******************************************************************************

The new set of parameters is valid. Updating the trial wave function!

*****************************************************************************
Applying the update for shift_i =   1.0000e-02     and shift_s =   3.9062e-03
*****************************************************************************
  Execution time = 1.7693e+00
  </log>
  <optVariables href="Be.log.s017.opt.xml">
 ud_0                 1.364015e+00 1 1  ON 0
 ud_1                 9.715853e-01 1 1  ON 1
 ud_2                 5.877738e-01 1 1  ON 2
 ud_3                 3.051908e-01 1 1  ON 3
 ud_4                 8.418595e-02 1 1  ON 4
 ud_5                -1.002480e-01 1 1  ON 5
 ud_6                -2.497240e-01 1 1  ON 6
 ud_7                -3.703142e-01 1 1  ON 7
 ud_8                -4.239181e-01 1 1  ON 8
 ud_9                -4.497839e-01 1 1  ON 9
eBe_0                -1.457947e+00 1 1  ON 10
eBe_1                -3.890881e-01 1 1  ON 11
eBe_2                -3.034356e-01 1 1  ON 12
eBe_3                -8.368652e-02 1 1  ON 13
eBe_4                 6.488794e-02 1 1  ON 14
eBe_5                 2.353095e-01 1 1  ON 15
eBe_6                 3.624901e-01 1 1  ON 16
eBe_7                 4.758249e-01 1 1  ON 17
eBe_8                 4.897788e-01 1 1  ON 18
eBe_9                 3.639936e-01 1 1  ON 19
  </optVariables>
   Restore the number of walkers to 1, removing 0 walkers.
</opt>
</optimization-report>
  QMC Execution time = 1.777 secs
  Reusing QMCFixedSampleLinearOptimize
 Using QMCCostFunction::QMCCostFunction

=========================================================
  Start QMCFixedSampleLinearOptimize
  File Root Be.log.s018 append = no 
=========================================================
  Skip QMCDriver::putQMCInfo 
  Resetting Properties of the walkers 1 x 13

=========================================================
  Start VMC
  File Root Be.log.s018 append = no 
=========================================================
Using existing walkers 
  Resetting Properties of the walkers 1 x 13

<vmc function="put">
  qmc_counter=7  my_counter=17
  time step      = 1.5000e-01
  blocks         = 200
  steps          = 3
  substeps       = 5
  current        = 0
  target samples = 5.1200e+05
  walkers/mpi    = 1

  stepsbetweensamples = 1
<parameter name="blocks" condition="int">200</parameter>
<parameter name="blocks_between_recompute" condition="int">0</parameter>
<parameter name="check_properties" condition="int">100</parameter>
<parameter name="checkproperties" condition="int">100</parameter>
<parameter name="current" condition="int">0</parameter>
<parameter name="dmcwalkersperthread" condition="real">5.0000e+02</parameter>
<parameter name="maxcpusecs" condition="real">3.6000e+05</parameter>
<parameter name="record_configs" condition="int">0</parameter>
<parameter name="record_walkers" condition="int">1</parameter>
<parameter name="recordconfigs" condition="int">0</parameter>
<parameter name="recordwalkers" condition="int">1</parameter>
<parameter name="rewind" condition="int">0</parameter>
<parameter name="samples" condition="real">5.1200e+05</parameter>
<parameter name="samplesperthread" condition="real">5.0000e+02</parameter>
<parameter name="steps" condition="int">3</parameter>
<parameter name="stepsbetweensamples" condition="int">1</parameter>
<parameter name="store_configs" condition="int">0</parameter>
<parameter name="storeconfigs" condition="int">0</parameter>
<parameter name="sub_steps" condition="int">5</parameter>
<parameter name="substeps" condition="int">5</parameter>
<parameter name="tau" condition="au">1.5000e-01</parameter>
<parameter name="time_step" condition="au">1.5000e-01</parameter>
<parameter name="timestep" condition="au">1.5000e-01</parameter>
<parameter name="use_drift" condition="string">no</parameter>
<parameter name="usedrift" condition="string">no</parameter>
<parameter name="walkers" condition="int">1</parameter>
<parameter name="warmup_steps" condition="int">0</parameter>
<parameter name="warmupsteps" condition="int">0</parameter>
  DumpConfig==false Nothing (configurations, state) will be saved.
  Walker Samples are dumped every 1 steps.
</vmc>
  Set drift_modifier UNR parameter a = 1.0000e+00
  EstimatorManagerBase::add replace LocalEnergy estimator.
  Set drift_modifier UNR parameter a = 1.0000e+00
  EstimatorManagerBase::add replace LocalEnergy estimator.
<optimization-report>
<vmc stage="main" blocks="200">
  Cannot make clones again. Use existing 1 clones
  Initial partition of walkers 0 1 
  Using Particle by Particle moves
  Walker moves without drift
  Total Sample Size   =512000
  Walker distribution on root = 0 1 
  Using Locality Approximation
===== Memory Usage after the buffer registration =====
Available memory on node 0, free + buffers : 54141 MB
Memory footprint by rank 0 on node 0       : 602 MB
==================================================
====================================================
  SimpleFixedNodeBranch::finalize after a VMC block
    QMC counter        = 18
    time step          = 0.15
    reference energy   = -0.957067
    reference variance = 0.15873
====================================================
  Execution time = 1.2871e+00
</vmc>
<opt stage="setup">
  <log>
   Reading configurations from h5FileRoot Be.log.s018
  QMCCostFunction is created with 1 threads.
  Using Nonlocal PP in Opt: NonLocalECP
   Number of samples loaded to each thread : 500 
  VMC Eavg = -1.0261e+00
  VMC Evar = 6.7232e-02
  Total weights = 5.1200e+05
  Execution time = 2.5490e-01
  </log>
</opt>
<opt stage="main" walkers="512000">
  <log>

*****************************************
Building overlap and Hamiltonian matrices
*****************************************

Among totally 20 optimized parameters, largest LM parameter change : 1.8429e-02 at parameter 0

******************************************************************************
Init Cost =  -9.7144e-01    New Cost =  -9.7152e-01  Delta Cost =  -7.3006e-05
******************************************************************************

The new set of parameters is valid. Updating the trial wave function!

*****************************************************************************
Applying the update for shift_i =   1.0000e-02     and shift_s =   3.9062e-03
*****************************************************************************
  Execution time = 1.7971e+00
  </log>
  <optVariables href="Be.log.s018.opt.xml">
 ud_0                 1.382444e+00 1 1  ON 0
 ud_1                 9.829439e-01 1 1  ON 1
 ud_2                 6.003039e-01 1 1  ON 2
 ud_3                 3.189962e-01 1 1  ON 3
 ud_4                 9.792829e-02 1 1  ON 4
 ud_5                -8.681276e-02 1 1  ON 5
 ud_6                -2.383242e-01 1 1  ON 6
 ud_7                -3.609086e-01 1 1  ON 7
 ud_8                -4.171209e-01 1 1  ON 8
 ud_9                -4.455061e-01 1 1  ON 9
eBe_0                -1.457006e+00 1 1  ON 10
eBe_1                -3.946868e-01 1 1  ON 11
eBe_2                -3.133615e-01 1 1  ON 12
eBe_3                -9.397939e-02 1 1  ON 13
eBe_4                 5.465859e-02 1 1  ON 14
eBe_5                 2.283864e-01 1 1  ON 15
eBe_6                 3.585490e-01 1 1  ON 16
eBe_7                 4.763892e-01 1 1  ON 17
eBe_8                 4.964419e-01 1 1  ON 18
eBe_9                 3.784644e-01 1 1  ON 19
  </optVariables>
   Restore the number of walkers to 1, removing 0 walkers.
</opt>
</optimization-report>
  QMC Execution time = 1.805 secs
  Reusing QMCFixedSampleLinearOptimize
 Using QMCCostFunction::QMCCostFunction

=========================================================
  Start QMCFixedSampleLinearOptimize
  File Root Be.log.s019 append = no 
=========================================================
  Skip QMCDriver::putQMCInfo 
  Resetting Properties of the walkers 1 x 13

=========================================================
  Start VMC
  File Root Be.log.s019 append = no 
=========================================================
Using existing walkers 
  Resetting Properties of the walkers 1 x 13

<vmc function="put">
  qmc_counter=8  my_counter=18
  time step      = 1.5000e-01
  blocks         = 200
  steps          = 3
  substeps       = 5
  current        = 0
  target samples = 5.1200e+05
  walkers/mpi    = 1

  stepsbetweensamples = 1
<parameter name="blocks" condition="int">200</parameter>
<parameter name="blocks_between_recompute" condition="int">0</parameter>
<parameter name="check_properties" condition="int">100</parameter>
<parameter name="checkproperties" condition="int">100</parameter>
<parameter name="current" condition="int">0</parameter>
<parameter name="dmcwalkersperthread" condition="real">5.0000e+02</parameter>
<parameter name="maxcpusecs" condition="real">3.6000e+05</parameter>
<parameter name="record_configs" condition="int">0</parameter>
<parameter name="record_walkers" condition="int">1</parameter>
<parameter name="recordconfigs" condition="int">0</parameter>
<parameter name="recordwalkers" condition="int">1</parameter>
<parameter name="rewind" condition="int">0</parameter>
<parameter name="samples" condition="real">5.1200e+05</parameter>
<parameter name="samplesperthread" condition="real">5.0000e+02</parameter>
<parameter name="steps" condition="int">3</parameter>
<parameter name="stepsbetweensamples" condition="int">1</parameter>
<parameter name="store_configs" condition="int">0</parameter>
<parameter name="storeconfigs" condition="int">0</parameter>
<parameter name="sub_steps" condition="int">5</parameter>
<parameter name="substeps" condition="int">5</parameter>
<parameter name="tau" condition="au">1.5000e-01</parameter>
<parameter name="time_step" condition="au">1.5000e-01</parameter>
<parameter name="timestep" condition="au">1.5000e-01</parameter>
<parameter name="use_drift" condition="string">no</parameter>
<parameter name="usedrift" condition="string">no</parameter>
<parameter name="walkers" condition="int">1</parameter>
<parameter name="warmup_steps" condition="int">0</parameter>
<parameter name="warmupsteps" condition="int">0</parameter>
  DumpConfig==false Nothing (configurations, state) will be saved.
  Walker Samples are dumped every 1 steps.
</vmc>
  Set drift_modifier UNR parameter a = 1.0000e+00
  EstimatorManagerBase::add replace LocalEnergy estimator.
  Set drift_modifier UNR parameter a = 1.0000e+00
  EstimatorManagerBase::add replace LocalEnergy estimator.
<optimization-report>
<vmc stage="main" blocks="200">
  Cannot make clones again. Use existing 1 clones
  Initial partition of walkers 0 1 
  Using Particle by Particle moves
  Walker moves without drift
  Total Sample Size   =512000
  Walker distribution on root = 0 1 
  Using Locality Approximation
===== Memory Usage after the buffer registration =====
Available memory on node 0, free + buffers : 54138 MB
Memory footprint by rank 0 on node 0       : 604 MB
==================================================
====================================================
  SimpleFixedNodeBranch::finalize after a VMC block
    QMC counter        = 19
    time step          = 0.15
    reference energy   = -0.967899
    reference variance = 0.149288
====================================================
  Execution time = 1.2948e+00
</vmc>
<opt stage="setup">
  <log>
   Reading configurations from h5FileRoot Be.log.s019
  QMCCostFunction is created with 1 threads.
  Using Nonlocal PP in Opt: NonLocalECP
   Number of samples loaded to each thread : 500 
  VMC Eavg = -1.0272e+00
  VMC Evar = 6.7864e-02
  Total weights = 5.1200e+05
  Execution time = 2.5915e-01
  </log>
</opt>
<opt stage="main" walkers="512000">
  <log>

*****************************************
Building overlap and Hamiltonian matrices
*****************************************

Among totally 20 optimized parameters, largest LM parameter change : 1.6811e-02 at parameter 0

******************************************************************************
Init Cost =  -9.7243e-01    New Cost =  -9.7245e-01  Delta Cost =  -1.6121e-05
******************************************************************************

The new set of parameters is valid. Updating the trial wave function!

*****************************************************************************
Applying the update for shift_i =   1.0000e-02     and shift_s =   3.9062e-03
*****************************************************************************
  Execution time = 1.8060e+00
  </log>
  <optVariables href="Be.log.s019.opt.xml">
 ud_0                 1.399255e+00 1 1  ON 0
 ud_1                 9.933438e-01 1 1  ON 1
 ud_2                 6.146121e-01 1 1  ON 2
 ud_3                 3.330530e-01 1 1  ON 3
 ud_4                 1.113673e-01 1 1  ON 4
 ud_5                -7.423919e-02 1 1  ON 5
 ud_6                -2.263983e-01 1 1  ON 6
 ud_7                -3.499858e-01 1 1  ON 7
 ud_8                -4.080776e-01 1 1  ON 8
 ud_9                -4.401527e-01 1 1  ON 9
eBe_0                -1.468169e+00 1 1  ON 10
eBe_1                -4.010733e-01 1 1  ON 11
eBe_2                -3.173795e-01 1 1  ON 12
eBe_3                -9.682629e-02 1 1  ON 13
eBe_4                 5.321241e-02 1 1  ON 14
eBe_5                 2.264665e-01 1 1  ON 15
eBe_6                 3.538066e-01 1 1  ON 16
eBe_7                 4.716947e-01 1 1  ON 17
eBe_8                 4.959153e-01 1 1  ON 18
eBe_9                 3.916209e-01 1 1  ON 19
  </optVariables>
   Restore the number of walkers to 1, removing 0 walkers.
</opt>
</optimization-report>
  QMC Execution time = 1.814 secs
  Reusing QMCFixedSampleLinearOptimize
 Using QMCCostFunction::QMCCostFunction

=========================================================
  Start QMCFixedSampleLinearOptimize
  File Root Be.log.s020 append = no 
=========================================================
  Skip QMCDriver::putQMCInfo 
  Resetting Properties of the walkers 1 x 13

=========================================================
  Start VMC
  File Root Be.log.s020 append = no 
=========================================================
Using existing walkers 
  Resetting Properties of the walkers 1 x 13

<vmc function="put">
  qmc_counter=9  my_counter=19
  time step      = 1.5000e-01
  blocks         = 200
  steps          = 3
  substeps       = 5
  current        = 0
  target samples = 5.1200e+05
  walkers/mpi    = 1

  stepsbetweensamples = 1
<parameter name="blocks" condition="int">200</parameter>
<parameter name="blocks_between_recompute" condition="int">0</parameter>
<parameter name="check_properties" condition="int">100</parameter>
<parameter name="checkproperties" condition="int">100</parameter>
<parameter name="current" condition="int">0</parameter>
<parameter name="dmcwalkersperthread" condition="real">5.0000e+02</parameter>
<parameter name="maxcpusecs" condition="real">3.6000e+05</parameter>
<parameter name="record_configs" condition="int">0</parameter>
<parameter name="record_walkers" condition="int">1</parameter>
<parameter name="recordconfigs" condition="int">0</parameter>
<parameter name="recordwalkers" condition="int">1</parameter>
<parameter name="rewind" condition="int">0</parameter>
<parameter name="samples" condition="real">5.1200e+05</parameter>
<parameter name="samplesperthread" condition="real">5.0000e+02</parameter>
<parameter name="steps" condition="int">3</parameter>
<parameter name="stepsbetweensamples" condition="int">1</parameter>
<parameter name="store_configs" condition="int">0</parameter>
<parameter name="storeconfigs" condition="int">0</parameter>
<parameter name="sub_steps" condition="int">5</parameter>
<parameter name="substeps" condition="int">5</parameter>
<parameter name="tau" condition="au">1.5000e-01</parameter>
<parameter name="time_step" condition="au">1.5000e-01</parameter>
<parameter name="timestep" condition="au">1.5000e-01</parameter>
<parameter name="use_drift" condition="string">no</parameter>
<parameter name="usedrift" condition="string">no</parameter>
<parameter name="walkers" condition="int">1</parameter>
<parameter name="warmup_steps" condition="int">0</parameter>
<parameter name="warmupsteps" condition="int">0</parameter>
  DumpConfig==false Nothing (configurations, state) will be saved.
  Walker Samples are dumped every 1 steps.
</vmc>
  Set drift_modifier UNR parameter a = 1.0000e+00
  EstimatorManagerBase::add replace LocalEnergy estimator.
  Set drift_modifier UNR parameter a = 1.0000e+00
  EstimatorManagerBase::add replace LocalEnergy estimator.
<optimization-report>
<vmc stage="main" blocks="200">
  Cannot make clones again. Use existing 1 clones
  Initial partition of walkers 0 1 
  Using Particle by Particle moves
  Walker moves without drift
  Total Sample Size   =512000
  Walker distribution on root = 0 1 
  Using Locality Approximation
===== Memory Usage after the buffer registration =====
Available memory on node 0, free + buffers : 54136 MB
Memory footprint by rank 0 on node 0       : 605 MB
==================================================
====================================================
  SimpleFixedNodeBranch::finalize after a VMC block
    QMC counter        = 20
    time step          = 0.15
    reference energy   = -0.975631
    reference variance = 0.136905
====================================================
  Execution time = 1.2954e+00
</vmc>
<opt stage="setup">
  <log>
   Reading configurations from h5FileRoot Be.log.s020
  QMCCostFunction is created with 1 threads.
  Using Nonlocal PP in Opt: NonLocalECP
   Number of samples loaded to each thread : 500 
  VMC Eavg = -1.0284e+00
  VMC Evar = 6.7168e-02
  Total weights = 5.1200e+05
  Execution time = 2.5888e-01
  </log>
</opt>
<opt stage="main" walkers="512000">
  <log>

*****************************************
Building overlap and Hamiltonian matrices
*****************************************

Among totally 20 optimized parameters, largest LM parameter change : 1.5525e-02 at parameter 1

******************************************************************************
Init Cost =  -9.7363e-01    New Cost =  -9.7365e-01  Delta Cost =  -1.9622e-05
******************************************************************************

The new set of parameters is valid. Updating the trial wave function!

*****************************************************************************
Applying the update for shift_i =   1.0000e-02     and shift_s =   3.9062e-03
*****************************************************************************
  Execution time = 1.8097e+00
  </log>
  <optVariables href="Be.log.s020.opt.xml">
 ud_0                 1.412792e+00 1 1  ON 0
 ud_1                 1.008869e+00 1 1  ON 1
 ud_2                 6.273073e-01 1 1  ON 2
 ud_3                 3.432072e-01 1 1  ON 3
 ud_4                 1.218004e-01 1 1  ON 4
 ud_5                -6.412287e-02 1 1  ON 5
 ud_6                -2.161919e-01 1 1  ON 6
 ud_7                -3.406902e-01 1 1  ON 7
 ud_8                -3.989307e-01 1 1  ON 8
 ud_9                -4.332118e-01 1 1  ON 9
eBe_0                -1.479415e+00 1 1  ON 10
eBe_1                -4.104672e-01 1 1  ON 11
eBe_2                -3.232469e-01 1 1  ON 12
eBe_3                -1.016528e-01 1 1  ON 13
eBe_4                 4.878670e-02 1 1  ON 14
eBe_5                 2.228488e-01 1 1  ON 15
eBe_6                 3.508954e-01 1 1  ON 16
eBe_7                 4.672218e-01 1 1  ON 17
eBe_8                 4.981708e-01 1 1  ON 18
eBe_9                 4.041684e-01 1 1  ON 19
  </optVariables>
   Restore the number of walkers to 1, removing 0 walkers.
</opt>
</optimization-report>
  QMC Execution time = 1.817 secs
  Total Execution time = 30.2 secs

=========================================================
  A new xml input file : Be.log.s020.cont.xml
TACC:  Shutdown complete. Exiting. 
