
 Primary working directories    : /global/cscratch1/sd/aannabe
 Secondary working directories  : /global/cscratch1/sd/aannabe
 Wavefunction directory         : /global/homes/a/aannabe/wfu/
 Main file repository           : /global/cscratch1/sd/aannabe/

 SHA1      : 2873118e99aab1bc19f5b6fc1784693c06d15c95
 NAME      : 2015.1.8
 ARCHNAME  : linux/x86_64
 FC        : /opt/cray/pe/craype/2.5.5/bin/ftn
 BLASLIB   : -Wl,-_start-group /opt/intel/compilers_and_libraries_2016.3.210/linux/mkl/lib/intel64/libmkl_intel_ilp64.a /opt/intel/compilers_and_libraries_2016.3.210/linux/mkl/lib/intel64/libmkl_intel_thread.a /opt/intel/compilers_and_libraries_2016.3.210/linux/mkl/lib/intel64/libmkl_core.a -Wl,-_end-group
 id        : lbl

 Nodes     nprocs
 nid00485     1

 Using customized tuning parameters: mindgm=8; mindgv=16; mindgc=4; mindgr=1; noblas=0; minvec=7
 default implementation of scratch files=df  

 ***,Zn
 memory,512,m
 gthresh,twoint=1.e-12
 
 gprint,basis,orbitals
 gexpec,ekin,pot
 
 angstrom
 geometry={
 1                                                                               ! Number of atoms
 Zn 0.0 0.0 0.0
 }
 
 basis={
 Including file /global/homes/a/aannabe/docs/accurate/ccECP_Kh/pps/Zn.pp
                                              !include,/global/homes/a/aannabe/docs/accurate/ccECP_Kh/basis/aug-cc-pVnZ/Zn_dz.basis
 Including file /global/homes/a/aannabe/docs/accurate/ccECP_Kh/basis/cc-pVnZ/Zn_dz.basis
 }
 
 {rhf
  start,5202.2
  wf,20,1,0
  occ,4,1,1,1,1,1,1,0
 }
 
 scf(i)=energy
 
 _CC_NORM_MAX=2.0
 {rccsd(t)
 maxit,100
 core
 }
 posthf(i)=energy
 
 table,scf,posthf,ekin,pot
 save,2.csv,new
 
 

 Variables initialized (889), CPU time= 0.01 sec
 Commands  initialized (702), CPU time= 0.02 sec, 572 directives.
 Default parameters read. Elapsed time= 0.23 sec

 Checking input...
 Passed
1


                                         ***  PROGRAM SYSTEM MOLPRO  ***
                                       Copyright, TTI GmbH Stuttgart, 2015
                                    Version 2015.1 linked Sep  7 2016 23:09:38


 **********************************************************************************************************************************
 LABEL *   Zn                                                                            
  64 bit serial version                                                                  DATE: 13-Nov-18          TIME: 22:25:09  
 **********************************************************************************************************************************

 SHA1:             2873118e99aab1bc19f5b6fc1784693c06d15c95
 **********************************************************************************************************************************

 THRESHOLDS:

 ZERO    =  1.00D-12  ONEINT  =  1.00D-12  TWOINT  =  1.00D-12  PREFAC  =  1.00D-14  LOCALI  =  1.00D-09  EORDER  =  1.00D-04
 ENERGY  =  0.00D+00  ETEST   =  0.00D+00  EDENS   =  0.00D+00  THRDEDEF=  1.00D-06  GRADIENT=  1.00D-02  STEP    =  1.00D-03
 ORBITAL =  1.00D-05  CIVEC   =  1.00D-05  COEFF   =  1.00D-04  PRINTCI =  5.00D-02  PUNCHCI =  9.90D+01  OPTGRAD =  3.00D-04
 OPTENERG=  1.00D-06  OPTSTEP =  3.00D-04  THRGRAD =  1.00D-10  COMPRESS=  1.00D-11  VARMIN  =  1.00D-07  VARMAX  =  1.00D-03
 THRDOUB =  0.00D+00  THRDIV  =  1.00D-05  THRRED  =  1.00D-07  THRPSP  =  1.00D+00  THRDC   =  1.00D-10  THRCS   =  1.00D-10
 THRNRM  =  1.00D-08  THREQ   =  0.00D+00  THRDE   =  1.00D+00  THRREF  =  1.00D-05  SPARFAC =  1.00D+00  THRDLP  =  1.00D-07
 THRDIA  =  1.00D-10  THRDLS  =  1.00D-07  THRGPS  =  0.00D+00  THRKEX  =  0.00D+00  THRDIS  =  2.00D-01  THRVAR  =  1.00D-10
 THRLOC  =  1.00D-06  THRGAP  =  1.00D-06  THRLOCT = -1.00D+00  THRGAPT = -1.00D+00  THRORB  =  1.00D-06  THRMLTP =  0.00D+00
 THRCPQCI=  1.00D-10  KEXTA   =  0.00D+00  THRCOARS=  0.00D+00  SYMTOL  =  1.00D-06  GRADTOL =  1.00D-06  THROVL  =  1.00D-08
 THRORTH =  1.00D-08  GRID    =  1.00D-06  GRIDMAX =  1.00D-03  DTMAX   =  0.00D+00  THROCCDE=  1.00D-01  THROCCDE=  1.00D-01



 ZUNIT=ANG
 

Geometry recognized as XYZ


 Variable memory set to  512000000 words,  buffer space   230000 words

 SETTING BASIS          =    USERDEF


 Recomputing integrals since basis changed


 Using spherical harmonics



 PROGRAM * SEWARD (Integral evaluation for generally contracted gaussian basis sets)     Author: Roland Lindh, 1990

 Geometry written to block  1 of record 700

 Orientation using atomic masses  
 Molecule type: Atom
 Symmetry elements: X,Y,Z
 Rotational constants:       0.0000000      0.0000000      0.0000000 GHz  (calculated with average atomic masses)

 Point group  D2h 



 ATOMIC COORDINATES

 NR  ATOM    CHARGE       X              Y              Z

   1  ZN     20.00    0.000000000    0.000000000    0.000000000


          ZN  CORE POTENTIAL

          d POTENTIAL

 POWERS             1              3              2              2
 EXPONENTIALS   35.80798       34.53646       28.62830       7.962397    
 COEFFICIENTS   20.00000       716.1595      -204.6839      0.7602661    

          s - d POTENTIAL

 POWERS             2              2
 EXPONENTIALS   14.63499       35.02141    
 COEFFICIENTS   95.87640       431.7080    

          p - d POTENTIAL

 POWERS             2              2
 EXPONENTIALS   14.57429       42.22979    
 COEFFICIENTS   74.01270       313.5777    


 BASIS DATA

   Nr Sym  Nuc  Type         Exponents   Contraction coefficients

    1.1 Ag    1  1s         114.485022     0.000429   -0.000109    0.000666    0.000000
    2.1 Ag                   61.996430    -0.019339    0.004459    0.006269    0.000000
    3.1 Ag                   40.117132     0.086254   -0.020067   -0.046603    0.000000
    4.1 Ag                   20.119649    -0.088955    0.022338    0.050399    0.000000
                             10.171676    -0.402671    0.096698    0.363493    0.000000
                              5.601641     0.067304   -0.021966   -0.242840    0.000000
                              2.864122     0.479215   -0.128768   -0.382281    0.000000
                              1.592779     0.503960   -0.181706   -0.861567    0.000000
                              0.826525     0.222088   -0.162311    0.706077    0.000000
                              0.263975     0.012203    0.116264    1.495001    0.000000
                              0.145302    -0.004300    0.411314   -0.453994    0.000000
                              0.068195     0.001243    0.494257   -0.597822    0.000000
                              0.031465    -0.000267    0.138103   -0.256117    1.000000
    5.1 Ag    1  1s           1.375940     1.000000
    6.1 Ag    1  1s           5.098898     1.000000
    7.1 Ag    1  3d0        270.014061    -0.000016
                            100.161579     0.000696
                             43.530609     0.013536
                             21.262419     0.069350
                             10.577821     0.149559
                              5.343620     0.239588
                              2.704857     0.286744
                              1.353018     0.271459
                              0.660873     0.202426
                              0.309149     0.103307
                              0.133879     0.023211
    8.1 Ag    1  3d2+       270.014061    -0.000016
                            100.161579     0.000696
                             43.530609     0.013536
                             21.262419     0.069350
                             10.577821     0.149559
                              5.343620     0.239588
                              2.704857     0.286744
                              1.353018     0.271459
                              0.660873     0.202426
                              0.309149     0.103307
                              0.133879     0.023211
    9.1 Ag    1  3d0        270.014061     0.000013
                            100.161579    -0.000889
                             43.530609    -0.018640
                             21.262419    -0.094646
                             10.577821    -0.215659
                              5.343620    -0.322469
                              2.704857    -0.197529
                              1.353018     0.164448
                              0.660873     0.410017
                              0.309149     0.327838
                              0.133879     0.105749
   10.1 Ag    1  3d2+       270.014061     0.000013
                            100.161579    -0.000889
                             43.530609    -0.018640
                             21.262419    -0.094646
                             10.577821    -0.215659
                              5.343620    -0.322469
                              2.704857    -0.197529
                              1.353018     0.164448
                              0.660873     0.410017
                              0.309149     0.327838
                              0.133879     0.105749
   11.1 Ag    1  3d0        270.014061     0.000000
                            100.161579     0.000000
                             43.530609     0.000000
                             21.262419     0.000000
                             10.577821     0.000000
                              5.343620     0.000000
                              2.704857     0.000000
                              1.353018     0.000000
                              0.660873     0.000000
                              0.309149     0.000000
                              0.133879     1.000000
   12.1 Ag    1  3d2+       270.014061     0.000000
                            100.161579     0.000000
                             43.530609     0.000000
                             21.262419     0.000000
                             10.577821     0.000000
                              5.343620     0.000000
                              2.704857     0.000000
                              1.353018     0.000000
                              0.660873     0.000000
                              0.309149     0.000000
                              0.133879     1.000000
   13.1 Ag    1  3d0          2.029918     1.000000
   14.1 Ag    1  3d2+         2.029918     1.000000
   15.1 Ag    1  3d0          4.655140     1.000000
   16.1 Ag    1  3d2+         4.655140     1.000000
    1.2 B3u   1  2px        158.770986    -0.000153    0.000053   -0.000170    0.000000
    2.2 B3u                  75.802876     0.001893   -0.000571    0.000604    0.000000
    3.2 B3u                  44.547824     0.010461   -0.001073   -0.019987    0.000000
    4.2 B3u                  31.445269    -0.045141    0.007463    0.061153    0.000000
                             13.080125    -0.084201    0.018676    0.067317    0.000000
                              7.788616     0.104973   -0.028090   -0.139211    0.000000
                              4.195040     0.307714   -0.054438   -0.527041    0.000000
                              2.362276     0.368563   -0.093744   -0.176194    0.000000
                              1.302584     0.286336   -0.054169    0.037129    0.000000
                              0.660704     0.095156   -0.007972    1.079322    0.000000
                              0.249042     0.005851    0.356198   -0.050149    0.000000
                              0.091781    -0.000034    0.412399   -0.688971    0.000000
                              0.048931     0.000252    0.361321    0.037331    1.000000
    5.2 B3u   1  2px          1.706665     1.000000
    6.2 B3u   1  2px          7.892989     1.000000
    7.2 B3u   1  4f1+         3.171936     1.000000
    8.2 B3u   1  4f3+         3.171936     1.000000
    9.2 B3u   1  4f1+         8.867564     1.000000
   10.2 B3u   1  4f3+         8.867564     1.000000
    1.3 B2u   1  2py        158.770986    -0.000153    0.000053   -0.000170    0.000000
    2.3 B2u                  75.802876     0.001893   -0.000571    0.000604    0.000000
    3.3 B2u                  44.547824     0.010461   -0.001073   -0.019987    0.000000
    4.3 B2u                  31.445269    -0.045141    0.007463    0.061153    0.000000
                             13.080125    -0.084201    0.018676    0.067317    0.000000
                              7.788616     0.104973   -0.028090   -0.139211    0.000000
                              4.195040     0.307714   -0.054438   -0.527041    0.000000
                              2.362276     0.368563   -0.093744   -0.176194    0.000000
                              1.302584     0.286336   -0.054169    0.037129    0.000000
                              0.660704     0.095156   -0.007972    1.079322    0.000000
                              0.249042     0.005851    0.356198   -0.050149    0.000000
                              0.091781    -0.000034    0.412399   -0.688971    0.000000
                              0.048931     0.000252    0.361321    0.037331    1.000000
    5.3 B2u   1  2py          1.706665     1.000000
    6.3 B2u   1  2py          7.892989     1.000000
    7.3 B2u   1  4f1-         3.171936     1.000000
    8.3 B2u   1  4f3-         3.171936     1.000000
    9.3 B2u   1  4f1-         8.867564     1.000000
   10.3 B2u   1  4f3-         8.867564     1.000000
    1.4 B1g   1  3d2-       270.014061    -0.000016    0.000013    0.000000
    2.4 B1g                 100.161579     0.000696   -0.000889    0.000000
    3.4 B1g                  43.530609     0.013536   -0.018640    0.000000
                             21.262419     0.069350   -0.094646    0.000000
                             10.577821     0.149559   -0.215659    0.000000
                              5.343620     0.239588   -0.322469    0.000000
                              2.704857     0.286744   -0.197529    0.000000
                              1.353018     0.271459    0.164448    0.000000
                              0.660873     0.202426    0.410017    0.000000
                              0.309149     0.103307    0.327838    0.000000
                              0.133879     0.023211    0.105749    1.000000
    4.4 B1g   1  3d2-         2.029918     1.000000
    5.4 B1g   1  3d2-         4.655140     1.000000
    1.5 B1u   1  2pz        158.770986    -0.000153    0.000053   -0.000170    0.000000
    2.5 B1u                  75.802876     0.001893   -0.000571    0.000604    0.000000
    3.5 B1u                  44.547824     0.010461   -0.001073   -0.019987    0.000000
    4.5 B1u                  31.445269    -0.045141    0.007463    0.061153    0.000000
                             13.080125    -0.084201    0.018676    0.067317    0.000000
                              7.788616     0.104973   -0.028090   -0.139211    0.000000
                              4.195040     0.307714   -0.054438   -0.527041    0.000000
                              2.362276     0.368563   -0.093744   -0.176194    0.000000
                              1.302584     0.286336   -0.054169    0.037129    0.000000
                              0.660704     0.095156   -0.007972    1.079322    0.000000
                              0.249042     0.005851    0.356198   -0.050149    0.000000
                              0.091781    -0.000034    0.412399   -0.688971    0.000000
                              0.048931     0.000252    0.361321    0.037331    1.000000
    5.5 B1u   1  2pz          1.706665     1.000000
    6.5 B1u   1  2pz          7.892989     1.000000
    7.5 B1u   1  4f0          3.171936     1.000000
    8.5 B1u   1  4f2+         3.171936     1.000000
    9.5 B1u   1  4f0          8.867564     1.000000
   10.5 B1u   1  4f2+         8.867564     1.000000
    1.6 B2g   1  3d1+       270.014061    -0.000016    0.000013    0.000000
    2.6 B2g                 100.161579     0.000696   -0.000889    0.000000
    3.6 B2g                  43.530609     0.013536   -0.018640    0.000000
                             21.262419     0.069350   -0.094646    0.000000
                             10.577821     0.149559   -0.215659    0.000000
                              5.343620     0.239588   -0.322469    0.000000
                              2.704857     0.286744   -0.197529    0.000000
                              1.353018     0.271459    0.164448    0.000000
                              0.660873     0.202426    0.410017    0.000000
                              0.309149     0.103307    0.327838    0.000000
                              0.133879     0.023211    0.105749    1.000000
    4.6 B2g   1  3d1+         2.029918     1.000000
    5.6 B2g   1  3d1+         4.655140     1.000000
    1.7 B3g   1  3d1-       270.014061    -0.000016    0.000013    0.000000
    2.7 B3g                 100.161579     0.000696   -0.000889    0.000000
    3.7 B3g                  43.530609     0.013536   -0.018640    0.000000
                             21.262419     0.069350   -0.094646    0.000000
                             10.577821     0.149559   -0.215659    0.000000
                              5.343620     0.239588   -0.322469    0.000000
                              2.704857     0.286744   -0.197529    0.000000
                              1.353018     0.271459    0.164448    0.000000
                              0.660873     0.202426    0.410017    0.000000
                              0.309149     0.103307    0.327838    0.000000
                              0.133879     0.023211    0.105749    1.000000
    4.7 B3g   1  3d1-         2.029918     1.000000
    5.7 B3g   1  3d1-         4.655140     1.000000
    1.8 Au    1  4f2-         3.171936     1.000000
    2.8 Au    1  4f2-         8.867564     1.000000

 NUCLEAR CHARGE:                   20
 NUMBER OF PRIMITIVE AOS:         158
 NUMBER OF SYMMETRY AOS:          139
 NUMBER OF CONTRACTIONS:           63   (  16Ag  +  10B3u +  10B2u +   5B1g +  10B1u +   5B2g +   5B3g +   2Au  )
 NUMBER OF CORE ORBITALS:           4   (   1Ag  +   1B3u +   1B2u +   0B1g +   1B1u +   0B2g +   0B3g +   0Au  )
 NUMBER OF VALENCE ORBITALS:        6   (   3Ag  +   0B3u +   0B2u +   1B1g +   0B1u +   1B2g +   1B3g +   0Au  )


 NUCLEAR REPULSION ENERGY    0.00000000

 EXTRA SYMMETRY OF AOS IN SYMMETRY 1:   1 1 1 1 1 1 2 3 2 3   2 3 2 3 2 3
 EXTRA SYMMETRY OF AOS IN SYMMETRY 2:   1 1 1 1 1 1 2 3 2 3
 EXTRA SYMMETRY OF AOS IN SYMMETRY 3:   1 1 1 1 1 1 2 3 2 3
 EXTRA SYMMETRY OF AOS IN SYMMETRY 5:   1 1 1 1 1 1 2 3 2 3

 Eigenvalues of metric

         1 0.953E-02 0.350E-01 0.350E-01 0.718E-01 0.945E-01 0.945E-01 0.317E+00 0.564E+00
         2 0.824E-02 0.894E-01 0.252E+00 0.434E+00 0.434E+00 0.111E+01 0.157E+01 0.157E+01
         3 0.824E-02 0.894E-01 0.252E+00 0.434E+00 0.434E+00 0.111E+01 0.157E+01 0.157E+01
         4 0.350E-01 0.945E-01 0.564E+00 0.160E+01 0.271E+01
         5 0.824E-02 0.894E-01 0.252E+00 0.434E+00 0.434E+00 0.111E+01 0.157E+01 0.157E+01
         6 0.350E-01 0.945E-01 0.564E+00 0.160E+01 0.271E+01
         7 0.350E-01 0.945E-01 0.564E+00 0.160E+01 0.271E+01
         8 0.434E+00 0.157E+01


 Contracted 2-electron integrals neglected if value below      1.0D-12
 AO integral compression algorithm  1   Integral accuracy      1.0D-12

     3.670 MB (compressed) written to integral file ( 71.8%)


 NUMBER OF SORTED TWO-ELECTRON INTEGRALS:     280021.     BUFFER LENGTH:  32768
 NUMBER OF SEGMENTS:   1  SEGMENT LENGTH:     280021      RECORD LENGTH: 524288

 Memory used in sort:       0.84 MW

 SORT1 READ      606445. AND WROTE      231448. INTEGRALS IN      1 RECORDS. CPU TIME:     0.01 SEC, REAL TIME:     0.03 SEC
 SORT2 READ      231448. AND WROTE      280021. INTEGRALS IN     14 RECORDS. CPU TIME:     0.04 SEC, REAL TIME:     0.07 SEC

 FILE SIZES:   FILE 1:    22.9 MBYTE,  FILE 4:     4.2 MBYTE,   TOTAL:     27.1 MBYTE

 OPERATOR DM      FOR CENTER  0  COORDINATES:    0.000000    0.000000    0.000000
 OPERATOR EKIN    FOR CENTER  0  COORDINATES:    0.000000    0.000000    0.000000
 OPERATOR POT     FOR CENTER  0  COORDINATES:    0.000000    0.000000    0.000000


 **********************************************************************************************************************************
 DATASETS  * FILE   NREC   LENGTH (MB)   RECORD NAMES
              1      20       20.79       500      610      700      900      950      970     1000      129      960     1100   
                                          VAR    BASINP    GEOM    SYMINP    ZMAT    AOBASIS   BASIS     P2S    ABASIS      S 
                                         1400     1410     1420     1200     1210     1080     1600     1650     1300     1700   
                                         EKIN       V       ECP      H0       H01     AOSYM     SMH    MOLCAS    ERIS     OPER   

 PROGRAMS   *        TOTAL       INT
 CPU TIMES  *         1.26      1.11
 REAL TIME  *         2.84 SEC
 DISK USED  *        27.37 MB      
 **********************************************************************************************************************************


 PROGRAM * RHF-SCF (CLOSED SHELL)       Authors: W. Meyer, H.-J. Werner


 NUMBER OF ELECTRONS:      10+   10-    SPACE SYMMETRY=1    SPIN SYMMETRY: Singlet 
 CONVERGENCE THRESHOLDS:    1.00E-05 (Density)    1.00E-07 (Energy)
 MAX. NUMBER OF ITERATIONS:       60
 INTERPOLATION TYPE:            DIIS
 INTERPOLATION STEPS:              2 (START)      1 (STEP)
 LEVEL SHIFTS:                  0.00 (CLOSED)  0.00 (OPEN) 

 Number of closed-shell orbitals:   10 (   4   1   1   1   1   1   1   0 )



   Atom=ZN basis=cc-pVTZ-PP        lmin=0  lmax=2

 Orbital guess generated from atomic densities. Full valence occupancy:    4   1   1   1   1   1   1   0


 Molecular orbital dump at record        2100.2

 ITERATION    DDIFF          GRAD             ENERGY        2-EL.EN.            DIPOLE MOMENTS         DIIS   ORB.
    1      0.000D+00      0.000D+00      -225.27294680    362.330883    0.00000    0.00000    0.00000    0    start
    2      0.000D+00      0.111D-01      -225.27266091    365.131729    0.00000    0.00000    0.00000    1    diag
    3      0.357D-02      0.113D-01      -225.27504424    363.611531    0.00000    0.00000    0.00000    2    diag
    4      0.184D-02      0.307D-03      -225.27504600    363.650560    0.00000    0.00000    0.00000    3    diag
    5      0.684D-04      0.694D-05      -225.27504600    363.649140    0.00000    0.00000    0.00000    4    diag
    6      0.112D-04      0.948D-06      -225.27504600    363.649189    0.00000    0.00000    0.00000    5    diag
    7      0.310D-05      0.819D-07      -225.27504600    363.649166    0.00000    0.00000    0.00000    0    orth

 Final occupancy:   4   1   1   1   1   1   1   0

 !RHF STATE 1.1 Energy               -225.275046001698
 Nuclear energy                         0.00000000
 One-electron energy                 -407.09962901
 Two-electron energy                  181.82458301
 Virial quotient                       -1.50083007
 !RHF STATE 1.1 Dipole moment           0.00000000     0.00000000     0.00000000
 Dipole moment /Debye                   0.00000000     0.00000000     0.00000000
 

 !RHF expec          <1.1|EKIN|1.1>   150.100301377900
 
 !RHF expec           <1.1|POT|1.1>   -28.852501656533

 ELECTRON ORBITALS
 =================


   Orb  Occ    Energy  Couls-En    Coefficients

                                   1 1s      1 1s      1 1s      1 1s      1 1s      1 1s      1 3d0     1 3d2+    1 3d0     1 3d2+ 
                                   1 3d0     1 3d2+    1 3d0     1 3d2+    1 3d0     1 3d2+ 

   1.1   2    -5.8440  -31.7532  0.999997  0.000009 -0.000004 -0.000009  0.000004  0.000001  0.000000 -0.000000  0.000000  0.000000
                                -0.000000  0.000000 -0.000000  0.000000  0.000000  0.000000

   2.1   2    -0.7633  -20.3817  0.000000 -0.000000  0.000000  0.000000 -0.000000  0.000000  1.000009  0.000061  0.000019  0.000000
                                 0.000002  0.000000 -0.000014 -0.000000  0.000004  0.000000

   3.1   2    -0.7633  -20.3817 -0.000000  0.000000  0.000000  0.000000  0.000000  0.000000 -0.000061  1.000009 -0.000000  0.000019
                                -0.000000  0.000002  0.000000 -0.000014 -0.000000  0.000004

   4.1   2    -0.2984   -8.3522  0.000022  1.000041  0.000026 -0.000046 -0.000026  0.000012 -0.000000 -0.000000 -0.000000  0.000000
                                 0.000000 -0.000000  0.000000  0.000000 -0.000000  0.000000

                                   1 2px     1 2px     1 2px     1 2px     1 2px     1 2px     1 4f1+    1 4f3+    1 4f1+    1 4f3+ 


   1.2   2    -3.9222  -27.7537  1.002155  0.013142  0.011835 -0.003697 -0.002352  0.000619  0.000000  0.000000 -0.000000 -0.000000

                                   1 2py     1 2py     1 2py     1 2py     1 2py     1 2py     1 4f1-    1 4f3-    1 4f1-    1 4f3- 


   1.3   2    -3.9222  -27.7537  1.002155  0.013142  0.011835 -0.003697 -0.002352  0.000619  0.000000 -0.000000 -0.000000  0.000000

                                   1 3d2-    1 3d2-    1 3d2-    1 3d2-    1 3d2- 

   1.4   2    -0.7633  -20.3817  1.000009  0.000019  0.000002 -0.000014  0.000004

                                   1 2pz     1 2pz     1 2pz     1 2pz     1 2pz     1 2pz     1 4f0     1 4f2+    1 4f0     1 4f2+ 


   1.5   2    -3.9222  -27.7537  1.002155  0.013142  0.011835 -0.003697 -0.002352  0.000619  0.000000  0.000000 -0.000000  0.000000

                                   1 3d1+    1 3d1+    1 3d1+    1 3d1+    1 3d1+ 

   1.6   2    -0.7633  -20.3817  1.000009  0.000019  0.000002 -0.000014  0.000004

                                   1 3d1-    1 3d1-    1 3d1-    1 3d1-    1 3d1- 

   1.7   2    -0.7633  -20.3817  1.000009  0.000019  0.000002 -0.000014  0.000004

 HOMO      4.1    -0.298388 =      -8.1196eV
 LUMO      2.2     0.058526 =       1.5926eV
 LUMO-HOMO         0.356915 =       9.7121eV


 **********************************************************************************************************************************
 DATASETS  * FILE   NREC   LENGTH (MB)   RECORD NAMES
              1      20       20.79       500      610      700      900      950      970     1000      129      960     1100   
                                          VAR    BASINP    GEOM    SYMINP    ZMAT    AOBASIS   BASIS     P2S    ABASIS      S 
                                         1400     1410     1420     1200     1210     1080     1600     1650     1300     1700   
                                         EKIN       V       ECP      H0       H01     AOSYM     SMH    MOLCAS    ERIS     OPER   

              2       4        2.77       700     1000      520     2100   
                                         GEOM     BASIS   MCVARS     RHF  

 PROGRAMS   *        TOTAL       RHF       INT
 CPU TIMES  *         1.32      0.06      1.11
 REAL TIME  *         3.14 SEC
 DISK USED  *        27.37 MB      
 **********************************************************************************************************************************
 SETTING SCF(I)         =      -225.27504600  AU                              
 SETTING _CC_NORM_MAX   =         2.00000000                                  


 PROGRAM * CCSD (Restricted open-shell coupled cluster)     Authors: C. Hampel, H.-J. Werner, 1991, M. Deegan, P.J. Knowles, 1992


 Convergence thresholds:  THRVAR = 1.00D-08  THRDEN = 1.00D-06

 CCSD(T)     terms to be evaluated (factor= 1.000)


 Number of closed-shell orbitals:  10 (   4   1   1   1   1   1   1   0 )
 Number of external orbitals:      53 (  12   9   9   4   9   4   4   2 )

 Memory could be reduced to 0.88 Mwords without degradation in triples

 Number of N-1 electron functions:              20
 Number of N-2 electron functions:             190
 Number of singly external CSFs:               174
 Number of doubly external CSFs:             52258
 Total number of CSFs:                       52432

 Molecular orbitals read from record     2100.2  Type=RHF/CANONICAL (state 1.1)

 Integral transformation finished. Total CPU:   0.01 sec, npass=  1  Memory used:   0.19 MW

 Starting RMP2 calculation

 Wavefunction is spin-projected

 ITER.      SQ.NORM     CORR.ENERGY   TOTAL ENERGY   ENERGY CHANGE        DEN1      VAR(S)    VAR(P)  DIIS     TIME
   1      1.10038309    -0.83983741  -226.11488341    -0.83983741    -0.00100959  0.14D-13  0.61D-03  1  1     0.03
   2      1.10190664    -0.84089745  -226.11594345    -0.00106004    -0.00001230  0.74D-15  0.12D-04  2  2     0.03
   3      1.10213866    -0.84099368  -226.11603968    -0.00009622    -0.00000004  0.11D-16  0.35D-07  3  3     0.03
   4      1.10214530    -0.84099490  -226.11604090    -0.00000122    -0.00000000  0.22D-18  0.16D-09  4  4     0.03
   5      1.10214538    -0.84099489  -226.11604089     0.00000001    -0.00000000  0.44D-20  0.34D-12  5  5     0.03

 Norm of t1 vector:      0.00000065      S-energy:    -0.00000000      T1 diagnostic:  0.00000010
 Norm of t2 vector:      0.31960190      P-energy:    -0.84099489
                                         Alpha-Beta:  -0.57538717
                                         Alpha-Alpha: -0.13280386
                                         Beta-Beta:   -0.13280386

 Spin contamination <S**2-Sz**2-Sz>     0.00000000
  Reference energy                   -225.275046001697
  RHF-RMP2 correlation energy          -0.840994890532
 !RHF-RMP2 energy                    -226.116040892230
 (NB above energy spin projected)

 Starting RCCSD calculation

 ITER.      SQ.NORM     CORR.ENERGY   TOTAL ENERGY   ENERGY CHANGE        DEN1      VAR(S)    VAR(P)  DIIS     TIME
   1      1.08883830    -0.73610093  -226.01114694    -0.73610093    -0.04352097  0.48D-02  0.70D-02  0  0     0.13
   2      1.10637561    -0.77413014  -226.04917614    -0.03802920    -0.00535974  0.55D-03  0.15D-02  1  1     0.22
   3      1.11007559    -0.76827502  -226.04332102     0.00585512    -0.00058201  0.20D-03  0.28D-03  2  2     0.31
   4      1.11507831    -0.76992628  -226.04497228    -0.00165126    -0.00012930  0.41D-04  0.70D-04  3  3     0.40
   5      1.11953434    -0.77126417  -226.04631017    -0.00133789    -0.00000734  0.38D-05  0.28D-05  4  4     0.49
   6      1.12051390    -0.77142664  -226.04647264    -0.00016248    -0.00000019  0.11D-06  0.61D-07  5  5     0.58
   7      1.12056576    -0.77143149  -226.04647749    -0.00000485    -0.00000003  0.26D-07  0.11D-07  6  6     0.66
   8      1.12058601    -0.77143566  -226.04648166    -0.00000417    -0.00000001  0.42D-08  0.20D-08  6  1     0.75
   9      1.12059014    -0.77143628  -226.04648228    -0.00000061    -0.00000000  0.17D-09  0.15D-09  6  2     0.83

 Norm of t1 vector:      0.09111462      S-energy:     0.00000003      T1 diagnostic:  0.01440649
                                                                       D1 diagnostic:  0.04280831
 Norm of t2 vector:      0.33509441      P-energy:    -0.77143631
                                         Alpha-Beta:  -0.55327995
                                         Alpha-Alpha: -0.10907818
                                         Beta-Beta:   -0.10907818

 Doubles amplitudes (print threshold =  0.500E-01):

         I         J         SYM. A    SYM. B    A         B      T(IJ, AB) [Alpha-Beta]

         4         4         2         2         1         1     -0.07996098
         4         4         2         2         1         2     -0.05530483
         4         4         2         2         2         1     -0.05530483
         4         4         3         3         1         1     -0.07996098
         4         4         3         3         1         2     -0.05530483
         4         4         3         3         2         1     -0.05530483
         4         4         5         5         1         1     -0.07996098
         4         4         5         5         1         2     -0.05530483
         4         4         5         5         2         1     -0.05530483

 Spin contamination <S**2-Sz**2-Sz>     0.00000000

 Memory could be reduced to 0.91 Mwords without degradation in triples
 

  Correlated core orbitals:             1.1       1.2       1.3       1.5
  Orbital energies:                    -5.8440   -3.9222   -3.9222   -3.9222
 
  RCCSD core-core energy               -0.089428545963
  RCCSD core-valence energy            -0.263531415214
  RCCSD valence correlation energy     -0.418476316139
 

 RESULTS
 =======

  Reference energy                   -225.275046001697
  RCCSD singles energy                  0.000000031274
  RCCSD pair energy                    -0.771436308590
  RCCSD correlation energy             -0.771436277316
  Triples (T) contribution             -0.017852324596
  Total correlation energy             -0.789288601912
 
  RHF-RCCSD energy                   -226.046482279014
  RHF-RCCSD[T] energy                -226.066485961647
  RHF-RCCSD-T energy                 -226.063943191471
 !RHF-RCCSD(T) energy                -226.064334603609

 Program statistics:

 Available memory in ccsd:               511999000
 Min. memory needed in ccsd:                163928
 Max. memory used in ccsd:                  226804
 Max. memory used in cckext:                264488 ( 9 integral passes)
 Max. memory used in cckint:                188361 ( 1 integral passes)



 **********************************************************************************************************************************
 DATASETS  * FILE   NREC   LENGTH (MB)   RECORD NAMES
              1      20       20.79       500      610      700      900      950      970     1000      129      960     1100   
                                          VAR    BASINP    GEOM    SYMINP    ZMAT    AOBASIS   BASIS     P2S    ABASIS      S 
                                         1400     1410     1420     1200     1210     1080     1600     1650     1300     1700   
                                         EKIN       V       ECP      H0       H01     AOSYM     SMH    MOLCAS    ERIS     OPER   

              2       4        2.77       700     1000      520     2100   
                                         GEOM     BASIS   MCVARS     RHF  

 PROGRAMS   *        TOTAL  RCCSD(T)       RHF       INT
 CPU TIMES  *         3.05      1.73      0.06      1.11
 REAL TIME  *         6.25 SEC
 DISK USED  *        40.11 MB      
 **********************************************************************************************************************************
 SETTING POSTHF(I)      =      -226.06433460  AU                              
                                                                                                                                                                                                                                                                

         SCF            POSTHF        EKIN          POT
    -225.2750460   -226.0643346   150.1003014   -28.85250166
                                                  

 RCCSD(T)/USERDEF energy=   -226.064334603609

        RCCSD(T)        RHF-SCF 
   -226.06433460   -225.27504600
 **********************************************************************************************************************************
 Variable memory released
