TACC:  Starting up job 3912549 
TACC:  Starting parallel tasks... 
  Input file(s): Se.log.qmc.in-wfj.xml 

=====================================================
                    QMCPACK 3.7.9

       (c) Copyright 2003-  QMCPACK developers

                    Please cite:
 J. Kim et al. J. Phys. Cond. Mat. 30 195901 (2018)
      https://doi.org/10.1088/1361-648X/aab9c3

  Git branch: develop
  Last git commit: 9a049a3fb3e0d7110d61a924a52203fd8296522a
  Last git commit date: Mon Jul 1 13:42:43 2019 -0500
  Last git commit subject: Merge pull request #1686 from ye-luo/rename-to-LCAOHDFParser
=====================================================
  Global options 

  Total number of MPI ranks = 1024
  Number of MPI groups      = 1
  MPI group ID              = 0
  Number of ranks in group  = 1024
  MPI ranks per node        = 64
  OMP 1st level threads     = 1
  OMP nested threading disabled or only 1 thread on the 2nd level

  Precision used in this calculation, see definitions in the manual:
  Base precision      = double
  Full precision      = double

  Structure-of-arrays (SoA) optimization enabled

  Input XML = Se.log.qmc.in-wfj.xml

  Project = Se.log
  date    = 2019-07-01 20:12:16 CDT
  host    = c405-092.stampede2.tacc.utexas.edu

 Random Number
 -------------
  Offset for the random number seeds based on time: 880

  Range of prime numbers to use as seeds over processors and threads = 6857-16447


 Particle Set 
 ------------
  Name: ion0
  All the species have the same mass 1
  Particle set size: 1

 Particle Set 
 ------------
  Name: e
  All the species have the same mass 1
  Particle set size: 6

 Wavefunction setup: 
 ------------------- 
  Name: psi0
  LCAO: SoaAtomicBasisSet<MultiQuintic,1>
Reading BasisSet from HDF5 file:Se.log.h5
<input node="atomicBasisSet" name="gaussian" expandYlm="pyscf" angular="spherical" elementType="Se" normalized="no" type="Numerical" expM="0" />
  AO BasisSet for Se
   Spherical Harmonics contain (-1)^m factor
   Angular momentum m expanded as -l, ... ,l, with the exception of L=1 (1,-1,0)
   Grid is created by the input paremters in h5
    Using log grid ri = 1e-06 rf = 100 npts = 1001
   R(n,l,m,s) 0 0 0 0
   R(n,l,m,s) 1 0 0 0
   R(n,l,m,s) 2 0 0 0
   R(n,l,m,s) 3 0 0 0
   R(n,l,m,s) 4 0 0 0
   R(n,l,m,s) 5 1 0 0
   R(n,l,m,s) 6 1 0 0
   R(n,l,m,s) 7 1 0 0
   R(n,l,m,s) 8 1 0 0
   R(n,l,m,s) 9 1 0 0
   R(n,l,m,s) 10 2 0 0
   R(n,l,m,s) 11 2 0 0
   R(n,l,m,s) 12 2 0 0
   R(n,l,m,s) 13 2 0 0
   R(n,l,m,s) 14 3 0 0
   R(n,l,m,s) 15 3 0 0
   R(n,l,m,s) 16 3 0 0
   R(n,l,m,s) 17 4 0 0
   R(n,l,m,s) 18 4 0 0
   R(n,l,m,s) 19 5 0 0
Expanding Ylm as L=1 as (1,-1,0) and L>1 as -l,-l+1,...,l-1,l
   Adding 1 spherical orbitals
   Adding 1 spherical orbitals
   Adding 1 spherical orbitals
   Adding 1 spherical orbitals
   Adding 1 spherical orbitals
   Adding 3 spherical orbitals
   Adding 3 spherical orbitals
   Adding 3 spherical orbitals
   Adding 3 spherical orbitals
   Adding 3 spherical orbitals
   Adding 5 spherical orbitals
   Adding 5 spherical orbitals
   Adding 5 spherical orbitals
   Adding 5 spherical orbitals
   Adding 7 spherical orbitals
   Adding 7 spherical orbitals
   Adding 7 spherical orbitals
   Adding 9 spherical orbitals
   Adding 9 spherical orbitals
   Adding 11 spherical orbitals
  Setting cutoff radius 12.7057

   Maximum Angular Momentum  = 5
   Number of Radial functors = 20
   Basis size                = 90

  Created SPOSet builder named 'LCAOBSet' of type molecularorbital
Reuse SPOSetBuilder "LCAOBSet" type MolecularOrbital
  Building SPOSet '' with '' basis set.
Reuse SPOSetBuilder "LCAOBSet" type MolecularOrbital
  Building SPOSet '' with '' basis set.
  Creating a determinant updet group=0 sposet=updet
  Reusing a SPO set updet
Using DiracDeterminant with DelayedUpdate engine
Using rank-1 Sherman-Morrison Fahy update

  Creating a determinant downdet group=1 sposet=downdet
  Reusing a SPO set downdet
Using DiracDeterminant with DelayedUpdate engine
Using rank-1 Sherman-Morrison Fahy update

  FermionWF = SlaterDet

   Jastrow
   -------
    Name: J2   Type: Two-Body   Function: Bspline

    Radial function for species: u - u
     Number of parameters: 10
     Cusp: -0.25
     Cutoff radius: 10

     Name                        Value Type Recompute Use Index
     ---- ---------------------------- ---- --------- --- -----
     uu_0                 4.811516e-01    1         1  ON     0
     uu_1                 2.858896e-01    1         1  ON     1
     uu_2                 1.479843e-01    1         1  ON     2
     uu_3                 4.614895e-02    1         1  ON     3
     uu_4                -3.193821e-02    1         1  ON     4
     uu_5                -8.696220e-02    1         1  ON     5
     uu_6                -1.249658e-01    1         1  ON     6
     uu_7                -1.459348e-01    1         1  ON     7
     uu_8                -1.461626e-01    1         1  ON     8
     uu_9                -1.248947e-01    1         1  ON     9

    Radial function for species: u - d
     Number of parameters: 10
     Cusp: -0.5
     Cutoff radius: 10

     Name                        Value Type Recompute Use Index
     ---- ---------------------------- ---- --------- --- -----
     ud_0                 7.668982e-01    1         1  ON     0
     ud_1                 4.248254e-01    1         1  ON     1
     ud_2                 2.145270e-01    1         1  ON     2
     ud_3                 8.533137e-02    1         1  ON     3
     ud_4                -5.001855e-03    1         1  ON     4
     ud_5                -7.173563e-02    1         1  ON     5
     ud_6                -1.210611e-01    1         1  ON     6
     ud_7                -1.521546e-01    1         1  ON     7
     ud_8                -1.586795e-01    1         1  ON     8
     ud_9                -1.516388e-01    1         1  ON     9


   Jastrow
   -------
    Name: J1   Type: One-Body   Function: Bspline

    Radial function for element: Se
     Number of parameters: 10
     Cusp: 0
     Cutoff radius: 10

      Name                        Value Type Recompute Use Index
     ----- ---------------------------- ---- --------- --- -----
     eSe_0                -9.881563e-01    1         1  ON     0
     eSe_1                -8.062116e-01    1         1  ON     1
     eSe_2                -5.210610e-01    1         1  ON     2
     eSe_3                -1.669116e-01    1         1  ON     3
     eSe_4                 1.394687e-01    1         1  ON     4
     eSe_5                 3.922611e-01    1         1  ON     5
     eSe_6                 5.601358e-01    1         1  ON     6
     eSe_7                 6.435531e-01    1         1  ON     7
     eSe_8                 5.480765e-01    1         1  ON     8
     eSe_9                 2.070095e-01    1         1  ON     9


   Jastrow
   -------
    Name: J3   Type: eeI   Function: polynomial

     Ion: Se   electron-electron: u - u
      Number of parameters for e-e: 3, for e-I: 3
      Cutoff radius: 10

Expected 26 parameters, but found 0 in PolynomialFunctor3D.
         Name                        Value Type Recompute Use Index
      ------- ---------------------------- ---- --------- --- -----
       uuSe_0                 0.000000e+00    1         1  ON     0
       uuSe_1                 0.000000e+00    1         1  ON     1
       uuSe_2                 0.000000e+00    1         1  ON     2
       uuSe_3                 0.000000e+00    1         1  ON     3
       uuSe_4                 0.000000e+00    1         1  ON     4
       uuSe_5                 0.000000e+00    1         1  ON     5
       uuSe_6                 0.000000e+00    1         1  ON     6
       uuSe_7                 0.000000e+00    1         1  ON     7
       uuSe_8                 0.000000e+00    1         1  ON     8
       uuSe_9                 0.000000e+00    1         1  ON     9
      uuSe_10                 0.000000e+00    1         1  ON    10
      uuSe_11                 0.000000e+00    1         1  ON    11
      uuSe_12                 0.000000e+00    1         1  ON    12
      uuSe_13                 0.000000e+00    1         1  ON    13
      uuSe_14                 0.000000e+00    1         1  ON    14
      uuSe_15                 0.000000e+00    1         1  ON    15
      uuSe_16                 0.000000e+00    1         1  ON    16
      uuSe_17                 0.000000e+00    1         1  ON    17
      uuSe_18                 0.000000e+00    1         1  ON    18
      uuSe_19                 0.000000e+00    1         1  ON    19
      uuSe_20                 0.000000e+00    1         1  ON    20
      uuSe_21                 0.000000e+00    1         1  ON    21
      uuSe_22                 0.000000e+00    1         1  ON    22
      uuSe_23                 0.000000e+00    1         1  ON    23
      uuSe_24                 0.000000e+00    1         1  ON    24
      uuSe_25                 0.000000e+00    1         1  ON    25

     Ion: Se   electron-electron: u - d
      Number of parameters for e-e: 3, for e-I: 3
      Cutoff radius: 10

Expected 26 parameters, but found 0 in PolynomialFunctor3D.
         Name                        Value Type Recompute Use Index
      ------- ---------------------------- ---- --------- --- -----
       udSe_0                 0.000000e+00    1         1  ON     0
       udSe_1                 0.000000e+00    1         1  ON     1
       udSe_2                 0.000000e+00    1         1  ON     2
       udSe_3                 0.000000e+00    1         1  ON     3
       udSe_4                 0.000000e+00    1         1  ON     4
       udSe_5                 0.000000e+00    1         1  ON     5
       udSe_6                 0.000000e+00    1         1  ON     6
       udSe_7                 0.000000e+00    1         1  ON     7
       udSe_8                 0.000000e+00    1         1  ON     8
       udSe_9                 0.000000e+00    1         1  ON     9
      udSe_10                 0.000000e+00    1         1  ON    10
      udSe_11                 0.000000e+00    1         1  ON    11
      udSe_12                 0.000000e+00    1         1  ON    12
      udSe_13                 0.000000e+00    1         1  ON    13
      udSe_14                 0.000000e+00    1         1  ON    14
      udSe_15                 0.000000e+00    1         1  ON    15
      udSe_16                 0.000000e+00    1         1  ON    16
      udSe_17                 0.000000e+00    1         1  ON    17
      udSe_18                 0.000000e+00    1         1  ON    18
      udSe_19                 0.000000e+00    1         1  ON    19
      udSe_20                 0.000000e+00    1         1  ON    20
      udSe_21                 0.000000e+00    1         1  ON    21
      udSe_22                 0.000000e+00    1         1  ON    22
      udSe_23                 0.000000e+00    1         1  ON    23
      udSe_24                 0.000000e+00    1         1  ON    24
      udSe_25                 0.000000e+00    1         1  ON    25

  QMCHamiltonian::addOperator Kinetic to H, physical Hamiltonian 
  QMCHamiltonian::addOperator ElecElec to H, physical Hamiltonian 
QMCHamiltonian::addOperatorType added type coulomb named ElecElec
  CoulombAA for ion0 is not created.  Number of particles == 1 and nonPeriodic

  ECPotential builder for pseudopotential 

  Adding pseudopotential for Se
   Linear grid  ri=0 rf=10 npts = 10001
    ECPComponentBuilder::buildSemiLocalAndLocal 
    Assuming Hartree unit
   Number of angular momentum channels 4
   Maximum angular momentum channel 3
   Creating a Linear Grid Rmax=3.085
  Using global grid with delta = 0.001
   Making L=3 a local potential with a radial cutoff of 9.999
    Non-local pseudopotential parameters
    Maximum angular mementum = 2
    Number of non-local channels = 3
       l(0)=0
       l(1)=1
       l(2)=2
    Cutoff radius = 3.085
    Spherical grids and weights: 
                        1                 0                 0       0.08333333333
                       -1   1.224646799e-16                 0       0.08333333333
             0.4472135955       0.894427191                 0       0.08333333333
            -0.4472135955      0.7236067977      0.5257311121       0.08333333333
             0.4472135955      0.2763932023      0.8506508084       0.08333333333
            -0.4472135955     -0.2763932023      0.8506508084       0.08333333333
             0.4472135955     -0.7236067977      0.5257311121       0.08333333333
            -0.4472135955      -0.894427191   1.095357397e-16       0.08333333333
             0.4472135955     -0.7236067977     -0.5257311121       0.08333333333
            -0.4472135955     -0.2763932023     -0.8506508084       0.08333333333
             0.4472135955      0.2763932023     -0.8506508084       0.08333333333
            -0.4472135955      0.7236067977     -0.5257311121       0.08333333333
    Maximum cutoff radius 3.085
  QMCHamiltonian::addOperator LocalECP to H, physical Hamiltonian 

  Using NonLocalECP potential 
    Maximum grid on a sphere for NonLocalECPotential: 12
  QMCHamiltonian::addOperator NonLocalECP to H, physical Hamiltonian 
QMCHamiltonian::addOperatorType added type pseudo named PseudoPot

  QMCHamiltonian::add2WalkerProperty added
    4 to P::PropertyList 
    0 to P::Collectables 
    starting Index of the observables in P::PropertyList = 9
ParticleSetPool::randomize 
<init source="ion0" target="e">
</init>
  Initialization Execution time = 0.3791 secs
=========================================================
 Summary of QMC systems 
=========================================================
ParticleSetPool has: 

  ParticleSet 'e' contains 6 particles :  u(4) d(2)

    u -1.2737380224e+00 -2.7041840251e-01 -1.7299138252e+00
    u -8.2438375325e-01  5.6247244969e-01 -2.4858351708e+00
    u -8.6336596112e-01 -4.0806323933e-01  1.4000427060e+00
    u  1.5020983489e+00  4.0100164803e-01  4.9586306411e-01
    d  4.0108962970e-01  1.2773901604e+00 -1.8172882324e+00
    d  1.3868063535e-01 -9.4464426899e-01  6.7926796088e-01

  Distance table for dissimilar particles (A-B):
    source: ion0  target: e
    Using structure-of-arrays (SoA) data layout
    Distance computations use open boundary conditions in 3D.

  Distance table for similar particles (A-A):
    source/target: e
    Using structure-of-arrays (SoA) data layout
    Distance computations use open boundary conditions in 3D.


  ParticleSet 'ion0' contains 1 particles :  Se(1)

    Se  0.0000000000e+00  0.0000000000e+00  0.0000000000e+00


  Hamiltonian h0
  Kinetic         Kinetic energy
  ElecElec        CoulombAB source=e

  LocalECP        LocalECPotential: ion0
  NonLocalECP     NonLocalECPotential: ion0


=========================================================
  Start VMC
  File Root Se.log.s000 append = no 
=========================================================
  Adding 1 walkers to 0 existing sets
  Total number of walkers: 1.0240000000e+03
  Total weight: 1.0240000000e+03
  Resetting Properties of the walkers 1 x 13

<vmc function="put">
  qmc_counter=0  my_counter=0
  time step      = 1.5000000000e-01
  blocks         = 200
  steps          = 1
  substeps       = 5
  current        = 0
  target samples = 1.0240000000e+03
  walkers/mpi    = 1

  stepsbetweensamples = 200
<parameter name="blocks" condition="int">200</parameter>
<parameter name="blocks_between_recompute" condition="int">0</parameter>
<parameter name="check_properties" condition="int">100</parameter>
<parameter name="checkproperties" condition="int">100</parameter>
<parameter name="current" condition="int">0</parameter>
<parameter name="dmcwalkersperthread" condition="real">1.0000000000e+00</parameter>
<parameter name="maxcpusecs" condition="real">3.6000000000e+05</parameter>
<parameter name="record_configs" condition="int">0</parameter>
<parameter name="record_walkers" condition="int">200</parameter>
<parameter name="recordconfigs" condition="int">0</parameter>
<parameter name="recordwalkers" condition="int">200</parameter>
<parameter name="rewind" condition="int">0</parameter>
<parameter name="samples" condition="real">1.0240000000e+03</parameter>
<parameter name="samplesperthread" condition="real">1.0000000000e+00</parameter>
<parameter name="steps" condition="int">1</parameter>
<parameter name="stepsbetweensamples" condition="int">200</parameter>
<parameter name="store_configs" condition="int">0</parameter>
<parameter name="storeconfigs" condition="int">0</parameter>
<parameter name="sub_steps" condition="int">5</parameter>
<parameter name="substeps" condition="int">5</parameter>
<parameter name="tau" condition="au">1.5000000000e-01</parameter>
<parameter name="time_step" condition="au">1.5000000000e-01</parameter>
<parameter name="timestep" condition="au">1.5000000000e-01</parameter>
<parameter name="use_drift" condition="string">no</parameter>
<parameter name="usedrift" condition="string">no</parameter>
<parameter name="walkers" condition="int">1</parameter>
<parameter name="warmup_steps" condition="int">100</parameter>
<parameter name="warmupsteps" condition="int">100</parameter>
  DumpConfig==false Nothing (configurations, state) will be saved.
  Walker Samples are dumped every 200 steps.
</vmc>
  Set drift_modifier UNR parameter a = 1.0000000000e+00
  Initial partition of walkers 0 1 

  Using Particle by Particle moves
  Walker moves without drift
  Total Sample Size   =1024
  Walker distribution on root = 0 1 
  Using Locality Approximation
===== Memory Usage after the buffer registration =====
Available memory on node 0, free + buffers : 53112 MB
Memory footprint by rank 0 on node 0       : 576 MB
==================================================
  Anonymous Buffer size per walker : 2336 Bytes.
MEMORY increase 0 MB VMC::resetRun
====================================================
  SimpleFixedNodeBranch::finalize after a VMC block
    QMC counter        = 0
    time step          = 0.15
    reference energy   = -9.27602
    reference variance = 0.0625157
====================================================
  QMC Execution time = 2.2620e+00 secs
Loop execution max-interations = 20

=========================================================
  Start QMCFixedSampleLinearOptimize
  File Root Se.log.s001 append = no 
=========================================================
  Skip QMCDriver::putQMCInfo 
  Resetting Properties of the walkers 1 x 13

=========================================================
  Start VMC
  File Root Se.log.s001 append = no 
=========================================================
  Using the current 1 walkers.
  Total number of walkers: 1.0240e+03
  Total weight: 1.0240e+03
  Resetting Properties of the walkers 1 x 13

<vmc function="put">
  qmc_counter=0  my_counter=0
  time step      = 1.5000e-01
  blocks         = 500
  steps          = 1
  substeps       = 5
  current        = 0
  target samples = 5.1200e+05
  walkers/mpi    = 1

  stepsbetweensamples = 1
<parameter name="blocks" condition="int">500</parameter>
<parameter name="blocks_between_recompute" condition="int">0</parameter>
<parameter name="check_properties" condition="int">100</parameter>
<parameter name="checkproperties" condition="int">100</parameter>
<parameter name="current" condition="int">0</parameter>
<parameter name="dmcwalkersperthread" condition="real">5.0000e+02</parameter>
<parameter name="maxcpusecs" condition="real">3.6000e+05</parameter>
<parameter name="record_configs" condition="int">0</parameter>
<parameter name="record_walkers" condition="int">1</parameter>
<parameter name="recordconfigs" condition="int">0</parameter>
<parameter name="recordwalkers" condition="int">1</parameter>
<parameter name="rewind" condition="int">0</parameter>
<parameter name="samples" condition="real">5.1200e+05</parameter>
<parameter name="samplesperthread" condition="real">5.0000e+02</parameter>
<parameter name="steps" condition="int">1</parameter>
<parameter name="stepsbetweensamples" condition="int">1</parameter>
<parameter name="store_configs" condition="int">0</parameter>
<parameter name="storeconfigs" condition="int">0</parameter>
<parameter name="sub_steps" condition="int">5</parameter>
<parameter name="substeps" condition="int">5</parameter>
<parameter name="tau" condition="au">1.5000e-01</parameter>
<parameter name="time_step" condition="au">1.5000e-01</parameter>
<parameter name="timestep" condition="au">1.5000e-01</parameter>
<parameter name="use_drift" condition="string">no</parameter>
<parameter name="usedrift" condition="string">no</parameter>
<parameter name="walkers" condition="int">1</parameter>
<parameter name="warmup_steps" condition="int">0</parameter>
<parameter name="warmupsteps" condition="int">0</parameter>
  DumpConfig==false Nothing (configurations, state) will be saved.
  Walker Samples are dumped every 1 steps.
</vmc>
    Restarting, cummulative properties:
      energy     = -9.2760e+00
      variance   = 0.0000e+00
      r2accepted = 1.0000e-10
      r2proposed = 1.0000e-10
  Set drift_modifier UNR parameter a = 1.0000e+00
 Using QMCCostFunction::QMCCostFunction
  Set drift_modifier UNR parameter a = 1.0000e+00
  EstimatorManagerBase::add replace LocalEnergy estimator.
<optimization-report>
<vmc stage="main" blocks="500">
  Cannot make clones again. Use existing 1 clones
  Initial partition of walkers 0 1 

  Using Particle by Particle moves
  Walker moves without drift
  Total Sample Size   =512000
  Walker distribution on root = 0 1 
  Using Locality Approximation
===== Memory Usage after the buffer registration =====
Available memory on node 0, free + buffers : 53098 MB
Memory footprint by rank 0 on node 0       : 576 MB
==================================================
  Anonymous Buffer size per walker : 2336 Bytes.
MEMORY increase 0 MB VMC::resetRun
====================================================
  SimpleFixedNodeBranch::finalize after a VMC block
    QMC counter        = 1
    time step          = 0.15
    reference energy   = -9.28281
    reference variance = 0.0498759
====================================================
  Execution time = 4.1205e+00
</vmc>
<opt stage="setup">
  <log>
   Reading configurations from h5FileRoot Se.log.s001
  QMCCostFunction is created with 1 threads.
  Using Nonlocal PP in Opt: NonLocalECP
   Number of samples loaded to each thread : 500 
  VMC Eavg = -9.2845e+00
  VMC Evar = 3.3269e-01
  Total weights = 5.1200e+05
  Execution time = 1.3784e+00
  </log>
</opt>
<opt stage="main" walkers="512000">
  <log>

*****************************************
Building overlap and Hamiltonian matrices
*****************************************

Among totally 82 optimized parameters, largest LM parameter change : 4.4141e-02 at parameter 24

******************************************************************************
Init Cost =  -8.8036e+00    New Cost =  -8.8082e+00  Delta Cost =  -4.5855e-03
******************************************************************************

The new set of parameters is valid. Updating the trial wave function!

*****************************************************************************
Applying the update for shift_i =   1.0000e-02     and shift_s =   2.5000e-01
*****************************************************************************
  Execution time = 6.8810e+00
  </log>
  <optVariables href="Se.log.s001.opt.xml">
   uu_0                 4.671149e-01 1 1  ON 0
   uu_1                 2.665376e-01 1 1  ON 1
   uu_2                 1.333112e-01 1 1  ON 2
   uu_3                 3.854480e-02 1 1  ON 3
   uu_4                -2.627196e-02 1 1  ON 4
   uu_5                -7.597668e-02 1 1  ON 5
   uu_6                -1.101644e-01 1 1  ON 6
   uu_7                -1.323368e-01 1 1  ON 7
   uu_8                -1.332432e-01 1 1  ON 8
   uu_9                -1.156578e-01 1 1  ON 9
   ud_0                 7.957635e-01 1 1  ON 10
   ud_1                 4.415016e-01 1 1  ON 11
   ud_2                 2.209491e-01 1 1  ON 12
   ud_3                 7.745860e-02 1 1  ON 13
   ud_4                -7.092402e-03 1 1  ON 14
   ud_5                -6.930620e-02 1 1  ON 15
   ud_6                -1.151671e-01 1 1  ON 16
   ud_7                -1.520210e-01 1 1  ON 17
   ud_8                -1.629107e-01 1 1  ON 18
   ud_9                -1.510082e-01 1 1  ON 19
  eSe_0                -1.001098e+00 1 1  ON 20
  eSe_1                -7.956023e-01 1 1  ON 21
  eSe_2                -5.590957e-01 1 1  ON 22
  eSe_3                -1.797685e-01 1 1  ON 23
  eSe_4                 1.836100e-01 1 1  ON 24
  eSe_5                 3.778051e-01 1 1  ON 25
  eSe_6                 5.510241e-01 1 1  ON 26
  eSe_7                 6.467309e-01 1 1  ON 27
  eSe_8                 5.665563e-01 1 1  ON 28
  eSe_9                 2.199172e-01 1 1  ON 29
 uuSe_0                -3.551565e-05 1 1  ON 30
 uuSe_1                 3.817036e-05 1 1  ON 31
 uuSe_2                 6.085388e-05 1 1  ON 32
 uuSe_3                 1.879775e-05 1 1  ON 33
 uuSe_4                -1.097146e-05 1 1  ON 34
 uuSe_5                -5.523301e-07 1 1  ON 35
 uuSe_6                 1.306302e-04 1 1  ON 36
 uuSe_7                 1.868912e-06 1 1  ON 37
 uuSe_8                 3.303458e-05 1 1  ON 38
 uuSe_9                -7.275204e-05 1 1  ON 39
uuSe_10                 1.189122e-06 1 1  ON 40
uuSe_11                -2.645431e-05 1 1  ON 41
uuSe_12                -8.399384e-06 1 1  ON 42
uuSe_13                -1.028237e-05 1 1  ON 43
uuSe_14                 2.849609e-06 1 1  ON 44
uuSe_15                 5.231708e-07 1 1  ON 45
uuSe_16                 8.900653e-05 1 1  ON 46
uuSe_17                -2.792963e-05 1 1  ON 47
uuSe_18                 1.389046e-05 1 1  ON 48
uuSe_19                 3.203161e-06 1 1  ON 49
uuSe_20                -1.212727e-05 1 1  ON 50
uuSe_21                -8.279902e-07 1 1  ON 51
uuSe_22                -3.812882e-07 1 1  ON 52
uuSe_23                 4.527391e-06 1 1  ON 53
uuSe_24                -2.138980e-07 1 1  ON 54
uuSe_25                 7.755599e-08 1 1  ON 55
 udSe_0                -4.633808e-05 1 1  ON 56
 udSe_1                 5.816424e-05 1 1  ON 57
 udSe_2                 5.317747e-05 1 1  ON 58
 udSe_3                 6.769923e-05 1 1  ON 59
 udSe_4                 5.277837e-06 1 1  ON 60
 udSe_5                -6.746948e-06 1 1  ON 61
 udSe_6                 2.085172e-04 1 1  ON 62
 udSe_7                -2.485311e-05 1 1  ON 63
 udSe_8                -3.693122e-05 1 1  ON 64
 udSe_9                -1.209458e-04 1 1  ON 65
udSe_10                 3.211041e-05 1 1  ON 66
udSe_11                 1.931147e-06 1 1  ON 67
udSe_12                 1.605140e-05 1 1  ON 68
udSe_13                -7.617460e-05 1 1  ON 69
udSe_14                -2.171538e-05 1 1  ON 70
udSe_15                 4.704245e-07 1 1  ON 71
udSe_16                 1.898544e-04 1 1  ON 72
udSe_17                -1.196668e-04 1 1  ON 73
udSe_18                 9.500659e-06 1 1  ON 74
udSe_19                -5.867911e-06 1 1  ON 75
udSe_20                -2.856732e-06 1 1  ON 76
udSe_21                 5.673487e-06 1 1  ON 77
udSe_22                -3.380642e-07 1 1  ON 78
udSe_23                 6.024652e-07 1 1  ON 79
udSe_24                -1.189000e-06 1 1  ON 80
udSe_25                 1.725475e-07 1 1  ON 81
  </optVariables>
   Restore the number of walkers to 1, removing 0 walkers.
</opt>
</optimization-report>
  QMC Execution time = 6.894 secs
  Reusing QMCFixedSampleLinearOptimize
 Using QMCCostFunction::QMCCostFunction

=========================================================
  Start QMCFixedSampleLinearOptimize
  File Root Se.log.s002 append = no 
=========================================================
  Skip QMCDriver::putQMCInfo 
  Resetting Properties of the walkers 1 x 13

=========================================================
  Start VMC
  File Root Se.log.s002 append = no 
=========================================================
Using existing walkers 
  Resetting Properties of the walkers 1 x 13

<vmc function="put">
  qmc_counter=1  my_counter=1
  time step      = 1.5000e-01
  blocks         = 500
  steps          = 1
  substeps       = 5
  current        = 0
  target samples = 5.1200e+05
  walkers/mpi    = 1

  stepsbetweensamples = 1
<parameter name="blocks" condition="int">500</parameter>
<parameter name="blocks_between_recompute" condition="int">0</parameter>
<parameter name="check_properties" condition="int">100</parameter>
<parameter name="checkproperties" condition="int">100</parameter>
<parameter name="current" condition="int">0</parameter>
<parameter name="dmcwalkersperthread" condition="real">5.0000e+02</parameter>
<parameter name="maxcpusecs" condition="real">3.6000e+05</parameter>
<parameter name="record_configs" condition="int">0</parameter>
<parameter name="record_walkers" condition="int">1</parameter>
<parameter name="recordconfigs" condition="int">0</parameter>
<parameter name="recordwalkers" condition="int">1</parameter>
<parameter name="rewind" condition="int">0</parameter>
<parameter name="samples" condition="real">5.1200e+05</parameter>
<parameter name="samplesperthread" condition="real">5.0000e+02</parameter>
<parameter name="steps" condition="int">1</parameter>
<parameter name="stepsbetweensamples" condition="int">1</parameter>
<parameter name="store_configs" condition="int">0</parameter>
<parameter name="storeconfigs" condition="int">0</parameter>
<parameter name="sub_steps" condition="int">5</parameter>
<parameter name="substeps" condition="int">5</parameter>
<parameter name="tau" condition="au">1.5000e-01</parameter>
<parameter name="time_step" condition="au">1.5000e-01</parameter>
<parameter name="timestep" condition="au">1.5000e-01</parameter>
<parameter name="use_drift" condition="string">no</parameter>
<parameter name="usedrift" condition="string">no</parameter>
<parameter name="walkers" condition="int">1</parameter>
<parameter name="warmup_steps" condition="int">0</parameter>
<parameter name="warmupsteps" condition="int">0</parameter>
  DumpConfig==false Nothing (configurations, state) will be saved.
  Walker Samples are dumped every 1 steps.
</vmc>
  Set drift_modifier UNR parameter a = 1.0000e+00
  EstimatorManagerBase::add replace LocalEnergy estimator.
  Set drift_modifier UNR parameter a = 1.0000e+00
  EstimatorManagerBase::add replace LocalEnergy estimator.
<optimization-report>
<vmc stage="main" blocks="500">
  Cannot make clones again. Use existing 1 clones
  Initial partition of walkers 0 1 
  Using Particle by Particle moves
  Walker moves without drift
  Total Sample Size   =512000
  Walker distribution on root = 0 1 
  Using Locality Approximation
===== Memory Usage after the buffer registration =====
Available memory on node 0, free + buffers : 52403 MB
Memory footprint by rank 0 on node 0       : 592 MB
==================================================
====================================================
  SimpleFixedNodeBranch::finalize after a VMC block
    QMC counter        = 2
    time step          = 0.15
    reference energy   = -9.2979
    reference variance = 0.0323859
====================================================
  Execution time = 4.1131e+00
</vmc>
<opt stage="setup">
  <log>
   Reading configurations from h5FileRoot Se.log.s002
  QMCCostFunction is created with 1 threads.
  Using Nonlocal PP in Opt: NonLocalECP
   Number of samples loaded to each thread : 500 
  VMC Eavg = -9.2879e+00
  VMC Evar = 3.0995e-01
  Total weights = 5.1200e+05
  Execution time = 1.3690e+00
  </log>
</opt>
<opt stage="main" walkers="512000">
  <log>

*****************************************
Building overlap and Hamiltonian matrices
*****************************************

Among totally 82 optimized parameters, largest LM parameter change : 2.5671e-02 at parameter 22

******************************************************************************
Init Cost =  -8.8080e+00    New Cost =  -8.8086e+00  Delta Cost =  -5.3793e-04
******************************************************************************

The new set of parameters is valid. Updating the trial wave function!

*****************************************************************************
Applying the update for shift_i =   1.0000e-02     and shift_s =   6.2500e-02
*****************************************************************************
  Execution time = 6.8044e+00
  </log>
  <optVariables href="Se.log.s002.opt.xml">
   uu_0                 4.520582e-01 1 1  ON 0
   uu_1                 2.515024e-01 1 1  ON 1
   uu_2                 1.265207e-01 1 1  ON 2
   uu_3                 3.997552e-02 1 1  ON 3
   uu_4                -1.949712e-02 1 1  ON 4
   uu_5                -6.705550e-02 1 1  ON 5
   uu_6                -9.998430e-02 1 1  ON 6
   uu_7                -1.194766e-01 1 1  ON 7
   uu_8                -1.267157e-01 1 1  ON 8
   uu_9                -1.113565e-01 1 1  ON 9
   ud_0                 8.148411e-01 1 1  ON 10
   ud_1                 4.551113e-01 1 1  ON 11
   ud_2                 2.275857e-01 1 1  ON 12
   ud_3                 7.937582e-02 1 1  ON 13
   ud_4                -5.175718e-03 1 1  ON 14
   ud_5                -6.809367e-02 1 1  ON 15
   ud_6                -1.144982e-01 1 1  ON 16
   ud_7                -1.504453e-01 1 1  ON 17
   ud_8                -1.679163e-01 1 1  ON 18
   ud_9                -1.504677e-01 1 1  ON 19
  eSe_0                -1.001591e+00 1 1  ON 20
  eSe_1                -8.053719e-01 1 1  ON 21
  eSe_2                -5.847663e-01 1 1  ON 22
  eSe_3                -1.894701e-01 1 1  ON 23
  eSe_4                 2.071460e-01 1 1  ON 24
  eSe_5                 3.768461e-01 1 1  ON 25
  eSe_6                 5.511023e-01 1 1  ON 26
  eSe_7                 6.440111e-01 1 1  ON 27
  eSe_8                 5.714745e-01 1 1  ON 28
  eSe_9                 2.349329e-01 1 1  ON 29
 uuSe_0                -4.366349e-05 1 1  ON 30
 uuSe_1                 5.579106e-05 1 1  ON 31
 uuSe_2                 7.375261e-05 1 1  ON 32
 uuSe_3                 2.171396e-05 1 1  ON 33
 uuSe_4                -1.360837e-05 1 1  ON 34
 uuSe_5                -8.681915e-07 1 1  ON 35
 uuSe_6                 1.732118e-04 1 1  ON 36
 uuSe_7                -3.851491e-06 1 1  ON 37
 uuSe_8                 3.651867e-05 1 1  ON 38
 uuSe_9                -9.559138e-05 1 1  ON 39
uuSe_10                -6.605164e-07 1 1  ON 40
uuSe_11                -2.769061e-05 1 1  ON 41
uuSe_12                -9.402828e-06 1 1  ON 42
uuSe_13                -1.429813e-05 1 1  ON 43
uuSe_14                 2.036275e-06 1 1  ON 44
uuSe_15                 6.831690e-07 1 1  ON 45
uuSe_16                 1.175492e-04 1 1  ON 46
uuSe_17                -3.835316e-05 1 1  ON 47
uuSe_18                 1.503320e-05 1 1  ON 48
uuSe_19                 3.794038e-06 1 1  ON 49
uuSe_20                -1.396903e-05 1 1  ON 50
uuSe_21                -5.187122e-07 1 1  ON 51
uuSe_22                -5.091049e-07 1 1  ON 52
uuSe_23                 4.938914e-06 1 1  ON 53
uuSe_24                -2.993639e-07 1 1  ON 54
uuSe_25                 1.015544e-07 1 1  ON 55
 udSe_0                -6.394958e-05 1 1  ON 56
 udSe_1                 4.018492e-05 1 1  ON 57
 udSe_2                 6.509731e-05 1 1  ON 58
 udSe_3                 9.673573e-05 1 1  ON 59
 udSe_4                 7.381035e-06 1 1  ON 60
 udSe_5                -5.930252e-06 1 1  ON 61
 udSe_6                 2.174322e-04 1 1  ON 62
 udSe_7                -1.333251e-06 1 1  ON 63
 udSe_8                -4.429736e-05 1 1  ON 64
 udSe_9                -1.203708e-04 1 1  ON 65
udSe_10                 4.815709e-05 1 1  ON 66
udSe_11                -1.240898e-05 1 1  ON 67
udSe_12                 1.992285e-05 1 1  ON 68
udSe_13                -1.113769e-04 1 1  ON 69
udSe_14                -2.544303e-05 1 1  ON 70
udSe_15                 4.580330e-07 1 1  ON 71
udSe_16                 2.141086e-04 1 1  ON 72
udSe_17                -1.600615e-04 1 1  ON 73
udSe_18                 2.410198e-05 1 1  ON 74
udSe_19                -8.185454e-06 1 1  ON 75
udSe_20                 5.399901e-06 1 1  ON 76
udSe_21                 4.775437e-06 1 1  ON 77
udSe_22                -1.305261e-07 1 1  ON 78
udSe_23                -1.617963e-06 1 1  ON 79
udSe_24                -9.126117e-07 1 1  ON 80
udSe_25                 1.253304e-07 1 1  ON 81
  </optVariables>
   Restore the number of walkers to 1, removing 0 walkers.
</opt>
</optimization-report>
  QMC Execution time = 6.818 secs
  Reusing QMCFixedSampleLinearOptimize
 Using QMCCostFunction::QMCCostFunction

=========================================================
  Start QMCFixedSampleLinearOptimize
  File Root Se.log.s003 append = no 
=========================================================
  Skip QMCDriver::putQMCInfo 
  Resetting Properties of the walkers 1 x 13

=========================================================
  Start VMC
  File Root Se.log.s003 append = no 
=========================================================
Using existing walkers 
  Resetting Properties of the walkers 1 x 13

<vmc function="put">
  qmc_counter=2  my_counter=2
  time step      = 1.5000e-01
  blocks         = 500
  steps          = 1
  substeps       = 5
  current        = 0
  target samples = 5.1200e+05
  walkers/mpi    = 1

  stepsbetweensamples = 1
<parameter name="blocks" condition="int">500</parameter>
<parameter name="blocks_between_recompute" condition="int">0</parameter>
<parameter name="check_properties" condition="int">100</parameter>
<parameter name="checkproperties" condition="int">100</parameter>
<parameter name="current" condition="int">0</parameter>
<parameter name="dmcwalkersperthread" condition="real">5.0000e+02</parameter>
<parameter name="maxcpusecs" condition="real">3.6000e+05</parameter>
<parameter name="record_configs" condition="int">0</parameter>
<parameter name="record_walkers" condition="int">1</parameter>
<parameter name="recordconfigs" condition="int">0</parameter>
<parameter name="recordwalkers" condition="int">1</parameter>
<parameter name="rewind" condition="int">0</parameter>
<parameter name="samples" condition="real">5.1200e+05</parameter>
<parameter name="samplesperthread" condition="real">5.0000e+02</parameter>
<parameter name="steps" condition="int">1</parameter>
<parameter name="stepsbetweensamples" condition="int">1</parameter>
<parameter name="store_configs" condition="int">0</parameter>
<parameter name="storeconfigs" condition="int">0</parameter>
<parameter name="sub_steps" condition="int">5</parameter>
<parameter name="substeps" condition="int">5</parameter>
<parameter name="tau" condition="au">1.5000e-01</parameter>
<parameter name="time_step" condition="au">1.5000e-01</parameter>
<parameter name="timestep" condition="au">1.5000e-01</parameter>
<parameter name="use_drift" condition="string">no</parameter>
<parameter name="usedrift" condition="string">no</parameter>
<parameter name="walkers" condition="int">1</parameter>
<parameter name="warmup_steps" condition="int">0</parameter>
<parameter name="warmupsteps" condition="int">0</parameter>
  DumpConfig==false Nothing (configurations, state) will be saved.
  Walker Samples are dumped every 1 steps.
</vmc>
  Set drift_modifier UNR parameter a = 1.0000e+00
  EstimatorManagerBase::add replace LocalEnergy estimator.
  Set drift_modifier UNR parameter a = 1.0000e+00
  EstimatorManagerBase::add replace LocalEnergy estimator.
<optimization-report>
<vmc stage="main" blocks="500">
  Cannot make clones again. Use existing 1 clones
  Initial partition of walkers 0 1 
  Using Particle by Particle moves
  Walker moves without drift
  Total Sample Size   =512000
  Walker distribution on root = 0 1 
  Using Locality Approximation
===== Memory Usage after the buffer registration =====
Available memory on node 0, free + buffers : 52400 MB
Memory footprint by rank 0 on node 0       : 596 MB
==================================================
====================================================
  SimpleFixedNodeBranch::finalize after a VMC block
    QMC counter        = 3
    time step          = 0.15
    reference energy   = -9.29077
    reference variance = 0.0387094
====================================================
  Execution time = 4.0837e+00
</vmc>
<opt stage="setup">
  <log>
   Reading configurations from h5FileRoot Se.log.s003
  QMCCostFunction is created with 1 threads.
  Using Nonlocal PP in Opt: NonLocalECP
   Number of samples loaded to each thread : 500 
  VMC Eavg = -9.2875e+00
  VMC Evar = 3.4647e-01
  Total weights = 5.1200e+05
  Execution time = 1.4321e+00
  </log>
</opt>
<opt stage="main" walkers="512000">
  <log>

*****************************************
Building overlap and Hamiltonian matrices
*****************************************

Among totally 82 optimized parameters, largest LM parameter change : 1.9905e-02 at parameter 22

******************************************************************************
Init Cost =  -8.8058e+00    New Cost =  -8.8058e+00  Delta Cost =   4.9982e-06
******************************************************************************

The new set of parameters is valid. Updating the trial wave function!

*****************************************************************************
Applying the update for shift_i =   1.0000e-02     and shift_s =   1.5625e-02
*****************************************************************************
  Execution time = 6.8181e+00
  </log>
  <optVariables href="Se.log.s003.opt.xml">
   uu_0                 4.386009e-01 1 1  ON 0
   uu_1                 2.435552e-01 1 1  ON 1
   uu_2                 1.246566e-01 1 1  ON 2
   uu_3                 4.289840e-02 1 1  ON 3
   uu_4                -1.310831e-02 1 1  ON 4
   uu_5                -6.051285e-02 1 1  ON 5
   uu_6                -9.474752e-02 1 1  ON 6
   uu_7                -1.145388e-01 1 1  ON 7
   uu_8                -1.215020e-01 1 1  ON 8
   uu_9                -1.019547e-01 1 1  ON 9
   ud_0                 8.240800e-01 1 1  ON 10
   ud_1                 4.605492e-01 1 1  ON 11
   ud_2                 2.310010e-01 1 1  ON 12
   ud_3                 8.187259e-02 1 1  ON 13
   ud_4                -1.311808e-03 1 1  ON 14
   ud_5                -6.220975e-02 1 1  ON 15
   ud_6                -1.083626e-01 1 1  ON 16
   ud_7                -1.453260e-01 1 1  ON 17
   ud_8                -1.668146e-01 1 1  ON 18
   ud_9                -1.497457e-01 1 1  ON 19
  eSe_0                -1.001448e+00 1 1  ON 20
  eSe_1                -8.148667e-01 1 1  ON 21
  eSe_2                -6.046713e-01 1 1  ON 22
  eSe_3                -1.996555e-01 1 1  ON 23
  eSe_4                 2.164327e-01 1 1  ON 24
  eSe_5                 3.728736e-01 1 1  ON 25
  eSe_6                 5.554572e-01 1 1  ON 26
  eSe_7                 6.397471e-01 1 1  ON 27
  eSe_8                 5.840205e-01 1 1  ON 28
  eSe_9                 2.524342e-01 1 1  ON 29
 uuSe_0                -4.256406e-05 1 1  ON 30
 uuSe_1                 4.569633e-05 1 1  ON 31
 uuSe_2                 7.562238e-05 1 1  ON 32
 uuSe_3                 2.795768e-05 1 1  ON 33
 uuSe_4                -1.354876e-05 1 1  ON 34
 uuSe_5                 5.320982e-07 1 1  ON 35
 uuSe_6                 1.582224e-04 1 1  ON 36
 uuSe_7                 1.563680e-05 1 1  ON 37
 uuSe_8                 4.244562e-05 1 1  ON 38
 uuSe_9                -9.196518e-05 1 1  ON 39
uuSe_10                 4.766119e-06 1 1  ON 40
uuSe_11                -4.516500e-05 1 1  ON 41
uuSe_12                -1.009752e-05 1 1  ON 42
uuSe_13                -2.032736e-05 1 1  ON 43
uuSe_14                 4.162528e-06 1 1  ON 44
uuSe_15                 5.434524e-07 1 1  ON 45
uuSe_16                 1.262986e-04 1 1  ON 46
uuSe_17                -4.924243e-05 1 1  ON 47
uuSe_18                 3.001173e-05 1 1  ON 48
uuSe_19                 2.693180e-06 1 1  ON 49
uuSe_20                -1.504222e-05 1 1  ON 50
uuSe_21                -2.780140e-06 1 1  ON 51
uuSe_22                -1.818144e-07 1 1  ON 52
uuSe_23                 5.718065e-06 1 1  ON 53
uuSe_24                 2.841210e-08 1 1  ON 54
uuSe_25                 2.837194e-08 1 1  ON 55
 udSe_0                -5.375753e-05 1 1  ON 56
 udSe_1                 4.296148e-05 1 1  ON 57
 udSe_2                 5.524472e-05 1 1  ON 58
 udSe_3                 9.322239e-05 1 1  ON 59
 udSe_4                 9.288458e-06 1 1  ON 60
 udSe_5                -5.980964e-06 1 1  ON 61
 udSe_6                 2.038213e-04 1 1  ON 62
 udSe_7                 2.474402e-06 1 1  ON 63
 udSe_8                -4.868942e-05 1 1  ON 64
 udSe_9                -1.204217e-04 1 1  ON 65
udSe_10                 4.836972e-05 1 1  ON 66
udSe_11                -1.280295e-05 1 1  ON 67
udSe_12                 2.158899e-05 1 1  ON 68
udSe_13                -1.079681e-04 1 1  ON 69
udSe_14                -2.545602e-05 1 1  ON 70
udSe_15                 2.866210e-07 1 1  ON 71
udSe_16                 2.080242e-04 1 1  ON 72
udSe_17                -1.582312e-04 1 1  ON 73
udSe_18                 2.710901e-05 1 1  ON 74
udSe_19                -9.501504e-06 1 1  ON 75
udSe_20                 6.082810e-06 1 1  ON 76
udSe_21                 3.933171e-06 1 1  ON 77
udSe_22                 1.326883e-07 1 1  ON 78
udSe_23                -1.910253e-06 1 1  ON 79
udSe_24                -6.692254e-07 1 1  ON 80
udSe_25                 5.966454e-08 1 1  ON 81
  </optVariables>
   Restore the number of walkers to 1, removing 0 walkers.
</opt>
</optimization-report>
  QMC Execution time = 6.83 secs
  Reusing QMCFixedSampleLinearOptimize
 Using QMCCostFunction::QMCCostFunction

=========================================================
  Start QMCFixedSampleLinearOptimize
  File Root Se.log.s004 append = no 
=========================================================
  Skip QMCDriver::putQMCInfo 
  Resetting Properties of the walkers 1 x 13

=========================================================
  Start VMC
  File Root Se.log.s004 append = no 
=========================================================
Using existing walkers 
  Resetting Properties of the walkers 1 x 13

<vmc function="put">
  qmc_counter=3  my_counter=3
  time step      = 1.5000e-01
  blocks         = 500
  steps          = 1
  substeps       = 5
  current        = 0
  target samples = 5.1200e+05
  walkers/mpi    = 1

  stepsbetweensamples = 1
<parameter name="blocks" condition="int">500</parameter>
<parameter name="blocks_between_recompute" condition="int">0</parameter>
<parameter name="check_properties" condition="int">100</parameter>
<parameter name="checkproperties" condition="int">100</parameter>
<parameter name="current" condition="int">0</parameter>
<parameter name="dmcwalkersperthread" condition="real">5.0000e+02</parameter>
<parameter name="maxcpusecs" condition="real">3.6000e+05</parameter>
<parameter name="record_configs" condition="int">0</parameter>
<parameter name="record_walkers" condition="int">1</parameter>
<parameter name="recordconfigs" condition="int">0</parameter>
<parameter name="recordwalkers" condition="int">1</parameter>
<parameter name="rewind" condition="int">0</parameter>
<parameter name="samples" condition="real">5.1200e+05</parameter>
<parameter name="samplesperthread" condition="real">5.0000e+02</parameter>
<parameter name="steps" condition="int">1</parameter>
<parameter name="stepsbetweensamples" condition="int">1</parameter>
<parameter name="store_configs" condition="int">0</parameter>
<parameter name="storeconfigs" condition="int">0</parameter>
<parameter name="sub_steps" condition="int">5</parameter>
<parameter name="substeps" condition="int">5</parameter>
<parameter name="tau" condition="au">1.5000e-01</parameter>
<parameter name="time_step" condition="au">1.5000e-01</parameter>
<parameter name="timestep" condition="au">1.5000e-01</parameter>
<parameter name="use_drift" condition="string">no</parameter>
<parameter name="usedrift" condition="string">no</parameter>
<parameter name="walkers" condition="int">1</parameter>
<parameter name="warmup_steps" condition="int">0</parameter>
<parameter name="warmupsteps" condition="int">0</parameter>
  DumpConfig==false Nothing (configurations, state) will be saved.
  Walker Samples are dumped every 1 steps.
</vmc>
  Set drift_modifier UNR parameter a = 1.0000e+00
  EstimatorManagerBase::add replace LocalEnergy estimator.
  Set drift_modifier UNR parameter a = 1.0000e+00
  EstimatorManagerBase::add replace LocalEnergy estimator.
<optimization-report>
<vmc stage="main" blocks="500">
  Cannot make clones again. Use existing 1 clones
  Initial partition of walkers 0 1 
  Using Particle by Particle moves
  Walker moves without drift
  Total Sample Size   =512000
  Walker distribution on root = 0 1 
  Using Locality Approximation
===== Memory Usage after the buffer registration =====
Available memory on node 0, free + buffers : 52396 MB
Memory footprint by rank 0 on node 0       : 599 MB
==================================================
====================================================
  SimpleFixedNodeBranch::finalize after a VMC block
    QMC counter        = 4
    time step          = 0.15
    reference energy   = -9.2986
    reference variance = 0.0431197
====================================================
  Execution time = 4.0870e+00
</vmc>
<opt stage="setup">
  <log>
   Reading configurations from h5FileRoot Se.log.s004
  QMCCostFunction is created with 1 threads.
  Using Nonlocal PP in Opt: NonLocalECP
   Number of samples loaded to each thread : 500 
  VMC Eavg = -9.2878e+00
  VMC Evar = 3.5951e-01
  Total weights = 5.1200e+05
  Execution time = 1.3548e+00
  </log>
</opt>
<opt stage="main" walkers="512000">
  <log>

*****************************************
Building overlap and Hamiltonian matrices
*****************************************

Among totally 82 optimized parameters, largest LM parameter change : 1.8010e-02 at parameter 29

******************************************************************************
Init Cost =  -8.8055e+00    New Cost =  -8.8056e+00  Delta Cost =  -8.8277e-05
******************************************************************************

The new set of parameters is valid. Updating the trial wave function!

*****************************************************************************
Applying the update for shift_i =   1.0000e-02     and shift_s =   3.9062e-03
*****************************************************************************
  Execution time = 6.7845e+00
  </log>
  <optVariables href="Se.log.s004.opt.xml">
   uu_0                 4.298403e-01 1 1  ON 0
   uu_1                 2.401103e-01 1 1  ON 1
   uu_2                 1.221031e-01 1 1  ON 2
   uu_3                 4.249441e-02 1 1  ON 3
   uu_4                -1.157239e-02 1 1  ON 4
   uu_5                -5.516775e-02 1 1  ON 5
   uu_6                -8.726459e-02 1 1  ON 6
   uu_7                -1.103959e-01 1 1  ON 7
   uu_8                -1.196722e-01 1 1  ON 8
   uu_9                -1.024029e-01 1 1  ON 9
   ud_0                 8.273150e-01 1 1  ON 10
   ud_1                 4.646011e-01 1 1  ON 11
   ud_2                 2.336982e-01 1 1  ON 12
   ud_3                 8.344038e-02 1 1  ON 13
   ud_4                -1.268535e-03 1 1  ON 14
   ud_5                -6.266650e-02 1 1  ON 15
   ud_6                -1.078102e-01 1 1  ON 16
   ud_7                -1.421296e-01 1 1  ON 17
   ud_8                -1.606326e-01 1 1  ON 18
   ud_9                -1.433397e-01 1 1  ON 19
  eSe_0                -9.973669e-01 1 1  ON 20
  eSe_1                -8.253870e-01 1 1  ON 21
  eSe_2                -6.177049e-01 1 1  ON 22
  eSe_3                -2.065905e-01 1 1  ON 23
  eSe_4                 2.158427e-01 1 1  ON 24
  eSe_5                 3.701293e-01 1 1  ON 25
  eSe_6                 5.533313e-01 1 1  ON 26
  eSe_7                 6.394651e-01 1 1  ON 27
  eSe_8                 5.909936e-01 1 1  ON 28
  eSe_9                 2.704443e-01 1 1  ON 29
 uuSe_0                -4.301479e-05 1 1  ON 30
 uuSe_1                 4.563708e-05 1 1  ON 31
 uuSe_2                 8.355972e-05 1 1  ON 32
 uuSe_3                 2.687160e-05 1 1  ON 33
 uuSe_4                -1.577855e-05 1 1  ON 34
 uuSe_5                 1.385313e-06 1 1  ON 35
 uuSe_6                 1.615475e-04 1 1  ON 36
 uuSe_7                 2.403840e-05 1 1  ON 37
 uuSe_8                 5.619689e-05 1 1  ON 38
 uuSe_9                -9.819770e-05 1 1  ON 39
uuSe_10                 4.693652e-06 1 1  ON 40
uuSe_11                -5.851820e-05 1 1  ON 41
uuSe_12                -1.379012e-05 1 1  ON 42
uuSe_13                -1.417732e-05 1 1  ON 43
uuSe_14                 8.286357e-06 1 1  ON 44
uuSe_15                 5.020721e-07 1 1  ON 45
uuSe_16                 1.310271e-04 1 1  ON 46
uuSe_17                -4.495271e-05 1 1  ON 47
uuSe_18                 3.800924e-05 1 1  ON 48
uuSe_19                 3.505323e-06 1 1  ON 49
uuSe_20                -1.827426e-05 1 1  ON 50
uuSe_21                -4.692417e-06 1 1  ON 51
uuSe_22                -6.593986e-08 1 1  ON 52
uuSe_23                 6.565215e-06 1 1  ON 53
uuSe_24                 3.740004e-07 1 1  ON 54
uuSe_25                -1.879000e-08 1 1  ON 55
 udSe_0                -7.799425e-05 1 1  ON 56
 udSe_1                 6.847987e-05 1 1  ON 57
 udSe_2                 8.239630e-05 1 1  ON 58
 udSe_3                 9.167556e-05 1 1  ON 59
 udSe_4                 3.448442e-06 1 1  ON 60
 udSe_5                -9.350763e-06 1 1  ON 61
 udSe_6                 2.704600e-04 1 1  ON 62
 udSe_7                -5.299410e-06 1 1  ON 63
 udSe_8                -3.399477e-05 1 1  ON 64
 udSe_9                -1.381262e-04 1 1  ON 65
udSe_10                 4.126909e-05 1 1  ON 66
udSe_11                -1.429173e-05 1 1  ON 67
udSe_12                 1.756273e-05 1 1  ON 68
udSe_13                -1.122762e-04 1 1  ON 69
udSe_14                -2.471180e-05 1 1  ON 70
udSe_15                 5.545158e-07 1 1  ON 71
udSe_16                 2.252339e-04 1 1  ON 72
udSe_17                -1.609874e-04 1 1  ON 73
udSe_18                 2.409677e-05 1 1  ON 74
udSe_19                -7.595535e-06 1 1  ON 75
udSe_20                 6.917895e-06 1 1  ON 76
udSe_21                 4.675283e-06 1 1  ON 77
udSe_22                -1.421972e-07 1 1  ON 78
udSe_23                -2.620988e-06 1 1  ON 79
udSe_24                -8.397199e-07 1 1  ON 80
udSe_25                 1.127856e-07 1 1  ON 81
  </optVariables>
   Restore the number of walkers to 1, removing 0 walkers.
</opt>
</optimization-report>
  QMC Execution time = 6.797 secs
  Reusing QMCFixedSampleLinearOptimize
 Using QMCCostFunction::QMCCostFunction

=========================================================
  Start QMCFixedSampleLinearOptimize
  File Root Se.log.s005 append = no 
=========================================================
  Skip QMCDriver::putQMCInfo 
  Resetting Properties of the walkers 1 x 13

=========================================================
  Start VMC
  File Root Se.log.s005 append = no 
=========================================================
Using existing walkers 
  Resetting Properties of the walkers 1 x 13

<vmc function="put">
  qmc_counter=4  my_counter=4
  time step      = 1.5000e-01
  blocks         = 500
  steps          = 1
  substeps       = 5
  current        = 0
  target samples = 5.1200e+05
  walkers/mpi    = 1

  stepsbetweensamples = 1
<parameter name="blocks" condition="int">500</parameter>
<parameter name="blocks_between_recompute" condition="int">0</parameter>
<parameter name="check_properties" condition="int">100</parameter>
<parameter name="checkproperties" condition="int">100</parameter>
<parameter name="current" condition="int">0</parameter>
<parameter name="dmcwalkersperthread" condition="real">5.0000e+02</parameter>
<parameter name="maxcpusecs" condition="real">3.6000e+05</parameter>
<parameter name="record_configs" condition="int">0</parameter>
<parameter name="record_walkers" condition="int">1</parameter>
<parameter name="recordconfigs" condition="int">0</parameter>
<parameter name="recordwalkers" condition="int">1</parameter>
<parameter name="rewind" condition="int">0</parameter>
<parameter name="samples" condition="real">5.1200e+05</parameter>
<parameter name="samplesperthread" condition="real">5.0000e+02</parameter>
<parameter name="steps" condition="int">1</parameter>
<parameter name="stepsbetweensamples" condition="int">1</parameter>
<parameter name="store_configs" condition="int">0</parameter>
<parameter name="storeconfigs" condition="int">0</parameter>
<parameter name="sub_steps" condition="int">5</parameter>
<parameter name="substeps" condition="int">5</parameter>
<parameter name="tau" condition="au">1.5000e-01</parameter>
<parameter name="time_step" condition="au">1.5000e-01</parameter>
<parameter name="timestep" condition="au">1.5000e-01</parameter>
<parameter name="use_drift" condition="string">no</parameter>
<parameter name="usedrift" condition="string">no</parameter>
<parameter name="walkers" condition="int">1</parameter>
<parameter name="warmup_steps" condition="int">0</parameter>
<parameter name="warmupsteps" condition="int">0</parameter>
  DumpConfig==false Nothing (configurations, state) will be saved.
  Walker Samples are dumped every 1 steps.
</vmc>
  Set drift_modifier UNR parameter a = 1.0000e+00
  EstimatorManagerBase::add replace LocalEnergy estimator.
  Set drift_modifier UNR parameter a = 1.0000e+00
  EstimatorManagerBase::add replace LocalEnergy estimator.
<optimization-report>
<vmc stage="main" blocks="500">
  Cannot make clones again. Use existing 1 clones
  Initial partition of walkers 0 1 
  Using Particle by Particle moves
  Walker moves without drift
  Total Sample Size   =512000
  Walker distribution on root = 0 1 
  Using Locality Approximation
===== Memory Usage after the buffer registration =====
Available memory on node 0, free + buffers : 52393 MB
Memory footprint by rank 0 on node 0       : 602 MB
==================================================
====================================================
  SimpleFixedNodeBranch::finalize after a VMC block
    QMC counter        = 5
    time step          = 0.15
    reference energy   = -9.28367
    reference variance = 0.0503978
====================================================
  Execution time = 4.0946e+00
</vmc>
<opt stage="setup">
  <log>
   Reading configurations from h5FileRoot Se.log.s005
  QMCCostFunction is created with 1 threads.
  Using Nonlocal PP in Opt: NonLocalECP
   Number of samples loaded to each thread : 500 
  VMC Eavg = -9.2885e+00
  VMC Evar = 3.2507e-01
  Total weights = 5.1200e+05
  Execution time = 1.3715e+00
  </log>
</opt>
<opt stage="main" walkers="512000">
  <log>

*****************************************
Building overlap and Hamiltonian matrices
*****************************************

Among totally 82 optimized parameters, largest LM parameter change : 1.5750e-02 at parameter 29

******************************************************************************
Init Cost =  -8.8079e+00    New Cost =  -8.8078e+00  Delta Cost =   4.8957e-05
******************************************************************************

The new set of parameters is valid. Updating the trial wave function!

*****************************************************************************
Applying the update for shift_i =   1.0000e-02     and shift_s =   3.9062e-03
*****************************************************************************
  Execution time = 6.7733e+00
  </log>
  <optVariables href="Se.log.s005.opt.xml">
   uu_0                 4.235323e-01 1 1  ON 0
   uu_1                 2.369530e-01 1 1  ON 1
   uu_2                 1.219235e-01 1 1  ON 2
   uu_3                 4.473128e-02 1 1  ON 3
   uu_4                -8.680809e-03 1 1  ON 4
   uu_5                -5.358184e-02 1 1  ON 5
   uu_6                -8.656619e-02 1 1  ON 6
   uu_7                -1.067120e-01 1 1  ON 7
   uu_8                -1.125327e-01 1 1  ON 8
   uu_9                -9.989078e-02 1 1  ON 9
   ud_0                 8.315851e-01 1 1  ON 10
   ud_1                 4.673520e-01 1 1  ON 11
   ud_2                 2.369330e-01 1 1  ON 12
   ud_3                 8.633391e-02 1 1  ON 13
   ud_4                 2.142579e-03 1 1  ON 14
   ud_5                -5.938139e-02 1 1  ON 15
   ud_6                -1.043172e-01 1 1  ON 16
   ud_7                -1.357606e-01 1 1  ON 17
   ud_8                -1.535654e-01 1 1  ON 18
   ud_9                -1.412119e-01 1 1  ON 19
  eSe_0                -9.998667e-01 1 1  ON 20
  eSe_1                -8.272384e-01 1 1  ON 21
  eSe_2                -6.273031e-01 1 1  ON 22
  eSe_3                -2.178217e-01 1 1  ON 23
  eSe_4                 2.167766e-01 1 1  ON 24
  eSe_5                 3.708551e-01 1 1  ON 25
  eSe_6                 5.468085e-01 1 1  ON 26
  eSe_7                 6.359397e-01 1 1  ON 27
  eSe_8                 6.037324e-01 1 1  ON 28
  eSe_9                 2.861942e-01 1 1  ON 29
 uuSe_0                -4.578334e-05 1 1  ON 30
 uuSe_1                 5.710211e-05 1 1  ON 31
 uuSe_2                 8.637757e-05 1 1  ON 32
 uuSe_3                 2.174614e-05 1 1  ON 33
 uuSe_4                -1.760886e-05 1 1  ON 34
 uuSe_5                 8.705568e-07 1 1  ON 35
 uuSe_6                 1.838132e-04 1 1  ON 36
 uuSe_7                 1.016770e-05 1 1  ON 37
 uuSe_8                 5.451171e-05 1 1  ON 38
 uuSe_9                -1.086993e-04 1 1  ON 39
uuSe_10                -2.103298e-06 1 1  ON 40
uuSe_11                -4.645769e-05 1 1  ON 41
uuSe_12                -1.401788e-05 1 1  ON 42
uuSe_13                -8.819165e-06 1 1  ON 43
uuSe_14                 6.601325e-06 1 1  ON 44
uuSe_15                 6.796665e-07 1 1  ON 45
uuSe_16                 1.414402e-04 1 1  ON 46
uuSe_17                -3.900674e-05 1 1  ON 47
uuSe_18                 2.598600e-05 1 1  ON 48
uuSe_19                 4.693486e-06 1 1  ON 49
uuSe_20                -2.168592e-05 1 1  ON 50
uuSe_21                -2.202875e-06 1 1  ON 51
uuSe_22                -4.307149e-07 1 1  ON 52
uuSe_23                 7.574505e-06 1 1  ON 53
uuSe_24                -2.334880e-07 1 1  ON 54
uuSe_25                 8.594576e-08 1 1  ON 55
 udSe_0                -7.028082e-05 1 1  ON 56
 udSe_1                 5.746922e-05 1 1  ON 57
 udSe_2                 6.568522e-05 1 1  ON 58
 udSe_3                 9.007559e-05 1 1  ON 59
 udSe_4                 5.862357e-06 1 1  ON 60
 udSe_5                -8.860194e-06 1 1  ON 61
 udSe_6                 2.396310e-04 1 1  ON 62
 udSe_7                -1.198811e-05 1 1  ON 63
 udSe_8                -4.585309e-05 1 1  ON 64
 udSe_9                -1.196558e-04 1 1  ON 65
udSe_10                 4.111674e-05 1 1  ON 66
udSe_11                -1.092993e-06 1 1  ON 67
udSe_12                 1.901272e-05 1 1  ON 68
udSe_13                -1.106094e-04 1 1  ON 69
udSe_14                -2.539632e-05 1 1  ON 70
udSe_15                 4.893558e-07 1 1  ON 71
udSe_16                 2.003458e-04 1 1  ON 72
udSe_17                -1.518076e-04 1 1  ON 73
udSe_18                 1.577629e-05 1 1  ON 74
udSe_19                -7.107221e-06 1 1  ON 75
udSe_20                 1.003071e-05 1 1  ON 76
udSe_21                 5.128766e-06 1 1  ON 77
udSe_22                -1.943484e-07 1 1  ON 78
udSe_23                -3.271976e-06 1 1  ON 79
udSe_24                -7.915572e-07 1 1  ON 80
udSe_25                 1.058733e-07 1 1  ON 81
  </optVariables>
   Restore the number of walkers to 1, removing 0 walkers.
</opt>
</optimization-report>
  QMC Execution time = 6.785 secs
  Reusing QMCFixedSampleLinearOptimize
 Using QMCCostFunction::QMCCostFunction

=========================================================
  Start QMCFixedSampleLinearOptimize
  File Root Se.log.s006 append = no 
=========================================================
  Skip QMCDriver::putQMCInfo 
  Resetting Properties of the walkers 1 x 13

=========================================================
  Start VMC
  File Root Se.log.s006 append = no 
=========================================================
Using existing walkers 
  Resetting Properties of the walkers 1 x 13

<vmc function="put">
  qmc_counter=5  my_counter=5
  time step      = 1.5000e-01
  blocks         = 500
  steps          = 1
  substeps       = 5
  current        = 0
  target samples = 5.1200e+05
  walkers/mpi    = 1

  stepsbetweensamples = 1
<parameter name="blocks" condition="int">500</parameter>
<parameter name="blocks_between_recompute" condition="int">0</parameter>
<parameter name="check_properties" condition="int">100</parameter>
<parameter name="checkproperties" condition="int">100</parameter>
<parameter name="current" condition="int">0</parameter>
<parameter name="dmcwalkersperthread" condition="real">5.0000e+02</parameter>
<parameter name="maxcpusecs" condition="real">3.6000e+05</parameter>
<parameter name="record_configs" condition="int">0</parameter>
<parameter name="record_walkers" condition="int">1</parameter>
<parameter name="recordconfigs" condition="int">0</parameter>
<parameter name="recordwalkers" condition="int">1</parameter>
<parameter name="rewind" condition="int">0</parameter>
<parameter name="samples" condition="real">5.1200e+05</parameter>
<parameter name="samplesperthread" condition="real">5.0000e+02</parameter>
<parameter name="steps" condition="int">1</parameter>
<parameter name="stepsbetweensamples" condition="int">1</parameter>
<parameter name="store_configs" condition="int">0</parameter>
<parameter name="storeconfigs" condition="int">0</parameter>
<parameter name="sub_steps" condition="int">5</parameter>
<parameter name="substeps" condition="int">5</parameter>
<parameter name="tau" condition="au">1.5000e-01</parameter>
<parameter name="time_step" condition="au">1.5000e-01</parameter>
<parameter name="timestep" condition="au">1.5000e-01</parameter>
<parameter name="use_drift" condition="string">no</parameter>
<parameter name="usedrift" condition="string">no</parameter>
<parameter name="walkers" condition="int">1</parameter>
<parameter name="warmup_steps" condition="int">0</parameter>
<parameter name="warmupsteps" condition="int">0</parameter>
  DumpConfig==false Nothing (configurations, state) will be saved.
  Walker Samples are dumped every 1 steps.
</vmc>
  Set drift_modifier UNR parameter a = 1.0000e+00
  EstimatorManagerBase::add replace LocalEnergy estimator.
  Set drift_modifier UNR parameter a = 1.0000e+00
  EstimatorManagerBase::add replace LocalEnergy estimator.
<optimization-report>
<vmc stage="main" blocks="500">
  Cannot make clones again. Use existing 1 clones
  Initial partition of walkers 0 1 
  Using Particle by Particle moves
  Walker moves without drift
  Total Sample Size   =512000
  Walker distribution on root = 0 1 
  Using Locality Approximation
===== Memory Usage after the buffer registration =====
Available memory on node 0, free + buffers : 52389 MB
Memory footprint by rank 0 on node 0       : 605 MB
==================================================
====================================================
  SimpleFixedNodeBranch::finalize after a VMC block
    QMC counter        = 6
    time step          = 0.15
    reference energy   = -9.29219
    reference variance = 0.0313908
====================================================
  Execution time = 4.0780e+00
</vmc>
<opt stage="setup">
  <log>
   Reading configurations from h5FileRoot Se.log.s006
  QMCCostFunction is created with 1 threads.
  Using Nonlocal PP in Opt: NonLocalECP
   Number of samples loaded to each thread : 500 
  VMC Eavg = -9.2873e+00
  VMC Evar = 2.6856e-01
  Total weights = 5.1200e+05
  Execution time = 1.3711e+00
  </log>
</opt>
<opt stage="main" walkers="512000">
  <log>

*****************************************
Building overlap and Hamiltonian matrices
*****************************************

Among totally 82 optimized parameters, largest LM parameter change : 1.2462e-02 at parameter 29

******************************************************************************
Init Cost =  -8.8095e+00    New Cost =  -8.8097e+00  Delta Cost =  -1.6973e-04
******************************************************************************

The new set of parameters is valid. Updating the trial wave function!

*****************************************************************************
Applying the update for shift_i =   1.0000e-02     and shift_s =   3.9062e-03
*****************************************************************************
  Execution time = 6.7778e+00
  </log>
  <optVariables href="Se.log.s006.opt.xml">
   uu_0                 4.203046e-01 1 1  ON 0
   uu_1                 2.356201e-01 1 1  ON 1
   uu_2                 1.220146e-01 1 1  ON 2
   uu_3                 4.774378e-02 1 1  ON 3
   uu_4                -2.697951e-03 1 1  ON 4
   uu_5                -4.745849e-02 1 1  ON 5
   uu_6                -8.075815e-02 1 1  ON 6
   uu_7                -1.017330e-01 1 1  ON 7
   uu_8                -1.132145e-01 1 1  ON 8
   uu_9                -1.017038e-01 1 1  ON 9
   ud_0                 8.336572e-01 1 1  ON 10
   ud_1                 4.687101e-01 1 1  ON 11
   ud_2                 2.389700e-01 1 1  ON 12
   ud_3                 8.931592e-02 1 1  ON 13
   ud_4                 5.961238e-03 1 1  ON 14
   ud_5                -5.406719e-02 1 1  ON 15
   ud_6                -9.840231e-02 1 1  ON 16
   ud_7                -1.345143e-01 1 1  ON 17
   ud_8                -1.526383e-01 1 1  ON 18
   ud_9                -1.368617e-01 1 1  ON 19
  eSe_0                -9.978882e-01 1 1  ON 20
  eSe_1                -8.351840e-01 1 1  ON 21
  eSe_2                -6.394556e-01 1 1  ON 22
  eSe_3                -2.246588e-01 1 1  ON 23
  eSe_4                 2.132038e-01 1 1  ON 24
  eSe_5                 3.665092e-01 1 1  ON 25
  eSe_6                 5.532362e-01 1 1  ON 26
  eSe_7                 6.426307e-01 1 1  ON 27
  eSe_8                 6.088769e-01 1 1  ON 28
  eSe_9                 2.986558e-01 1 1  ON 29
 uuSe_0                -4.630079e-05 1 1  ON 30
 uuSe_1                 5.371871e-05 1 1  ON 31
 uuSe_2                 8.693868e-05 1 1  ON 32
 uuSe_3                 2.662836e-05 1 1  ON 33
 uuSe_4                -1.693135e-05 1 1  ON 34
 uuSe_5                 1.171305e-06 1 1  ON 35
 uuSe_6                 1.769726e-04 1 1  ON 36
 uuSe_7                 2.300757e-05 1 1  ON 37
 uuSe_8                 5.591199e-05 1 1  ON 38
 uuSe_9                -1.050247e-04 1 1  ON 39
uuSe_10                 2.310714e-06 1 1  ON 40
uuSe_11                -5.754986e-05 1 1  ON 41
uuSe_12                -1.372573e-05 1 1  ON 42
uuSe_13                -1.718078e-05 1 1  ON 43
uuSe_14                 7.382815e-06 1 1  ON 44
uuSe_15                 5.704381e-07 1 1  ON 45
uuSe_16                 1.429727e-04 1 1  ON 46
uuSe_17                -5.054875e-05 1 1  ON 47
uuSe_18                 3.829838e-05 1 1  ON 48
uuSe_19                 3.431127e-06 1 1  ON 49
uuSe_20                -1.867732e-05 1 1  ON 50
uuSe_21                -4.414542e-06 1 1  ON 51
uuSe_22                -8.425409e-08 1 1  ON 52
uuSe_23                 6.816549e-06 1 1  ON 53
uuSe_24                 2.841336e-07 1 1  ON 54
uuSe_25                -1.222448e-08 1 1  ON 55
 udSe_0                -6.969679e-05 1 1  ON 56
 udSe_1                 2.746907e-05 1 1  ON 57
 udSe_2                 6.335966e-05 1 1  ON 58
 udSe_3                 1.049546e-04 1 1  ON 59
 udSe_4                 7.876067e-06 1 1  ON 60
 udSe_5                -6.147889e-06 1 1  ON 61
 udSe_6                 1.969039e-04 1 1  ON 62
 udSe_7                 1.644888e-05 1 1  ON 63
 udSe_8                -4.343725e-05 1 1  ON 64
 udSe_9                -9.838898e-05 1 1  ON 65
udSe_10                 5.302361e-05 1 1  ON 66
udSe_11                -2.041761e-05 1 1  ON 67
udSe_12                 1.924551e-05 1 1  ON 68
udSe_13                -1.247504e-04 1 1  ON 69
udSe_14                -2.351284e-05 1 1  ON 70
udSe_15                 3.232596e-07 1 1  ON 71
udSe_16                 1.888186e-04 1 1  ON 72
udSe_17                -1.647758e-04 1 1  ON 73
udSe_18                 3.096727e-05 1 1  ON 74
udSe_19                -8.355222e-06 1 1  ON 75
udSe_20                 1.512592e-05 1 1  ON 76
udSe_21                 2.919426e-06 1 1  ON 77
udSe_22                 1.073599e-07 1 1  ON 78
udSe_23                -4.170891e-06 1 1  ON 79
udSe_24                -4.568216e-07 1 1  ON 80
udSe_25                 4.356377e-08 1 1  ON 81
  </optVariables>
   Restore the number of walkers to 1, removing 0 walkers.
</opt>
</optimization-report>
  QMC Execution time = 6.79 secs
  Reusing QMCFixedSampleLinearOptimize
 Using QMCCostFunction::QMCCostFunction

=========================================================
  Start QMCFixedSampleLinearOptimize
  File Root Se.log.s007 append = no 
=========================================================
  Skip QMCDriver::putQMCInfo 
  Resetting Properties of the walkers 1 x 13

=========================================================
  Start VMC
  File Root Se.log.s007 append = no 
=========================================================
Using existing walkers 
  Resetting Properties of the walkers 1 x 13

<vmc function="put">
  qmc_counter=6  my_counter=6
  time step      = 1.5000e-01
  blocks         = 500
  steps          = 1
  substeps       = 5
  current        = 0
  target samples = 5.1200e+05
  walkers/mpi    = 1

  stepsbetweensamples = 1
<parameter name="blocks" condition="int">500</parameter>
<parameter name="blocks_between_recompute" condition="int">0</parameter>
<parameter name="check_properties" condition="int">100</parameter>
<parameter name="checkproperties" condition="int">100</parameter>
<parameter name="current" condition="int">0</parameter>
<parameter name="dmcwalkersperthread" condition="real">5.0000e+02</parameter>
<parameter name="maxcpusecs" condition="real">3.6000e+05</parameter>
<parameter name="record_configs" condition="int">0</parameter>
<parameter name="record_walkers" condition="int">1</parameter>
<parameter name="recordconfigs" condition="int">0</parameter>
<parameter name="recordwalkers" condition="int">1</parameter>
<parameter name="rewind" condition="int">0</parameter>
<parameter name="samples" condition="real">5.1200e+05</parameter>
<parameter name="samplesperthread" condition="real">5.0000e+02</parameter>
<parameter name="steps" condition="int">1</parameter>
<parameter name="stepsbetweensamples" condition="int">1</parameter>
<parameter name="store_configs" condition="int">0</parameter>
<parameter name="storeconfigs" condition="int">0</parameter>
<parameter name="sub_steps" condition="int">5</parameter>
<parameter name="substeps" condition="int">5</parameter>
<parameter name="tau" condition="au">1.5000e-01</parameter>
<parameter name="time_step" condition="au">1.5000e-01</parameter>
<parameter name="timestep" condition="au">1.5000e-01</parameter>
<parameter name="use_drift" condition="string">no</parameter>
<parameter name="usedrift" condition="string">no</parameter>
<parameter name="walkers" condition="int">1</parameter>
<parameter name="warmup_steps" condition="int">0</parameter>
<parameter name="warmupsteps" condition="int">0</parameter>
  DumpConfig==false Nothing (configurations, state) will be saved.
  Walker Samples are dumped every 1 steps.
</vmc>
  Set drift_modifier UNR parameter a = 1.0000e+00
  EstimatorManagerBase::add replace LocalEnergy estimator.
  Set drift_modifier UNR parameter a = 1.0000e+00
  EstimatorManagerBase::add replace LocalEnergy estimator.
<optimization-report>
<vmc stage="main" blocks="500">
  Cannot make clones again. Use existing 1 clones
  Initial partition of walkers 0 1 
  Using Particle by Particle moves
  Walker moves without drift
  Total Sample Size   =512000
  Walker distribution on root = 0 1 
  Using Locality Approximation
===== Memory Usage after the buffer registration =====
Available memory on node 0, free + buffers : 52385 MB
Memory footprint by rank 0 on node 0       : 608 MB
==================================================
====================================================
  SimpleFixedNodeBranch::finalize after a VMC block
    QMC counter        = 7
    time step          = 0.15
    reference energy   = -9.28908
    reference variance = 0.0362025
====================================================
  Execution time = 4.0931e+00
</vmc>
<opt stage="setup">
  <log>
   Reading configurations from h5FileRoot Se.log.s007
  QMCCostFunction is created with 1 threads.
  Using Nonlocal PP in Opt: NonLocalECP
   Number of samples loaded to each thread : 500 
  VMC Eavg = -9.2902e+00
  VMC Evar = 2.6167e-01
  Total weights = 5.1200e+05
  Execution time = 1.3696e+00
  </log>
</opt>
<opt stage="main" walkers="512000">
  <log>

*****************************************
Building overlap and Hamiltonian matrices
*****************************************

Among totally 82 optimized parameters, largest LM parameter change : 1.3093e-02 at parameter 22

******************************************************************************
Init Cost =  -8.8126e+00    New Cost =  -8.8125e+00  Delta Cost =   1.1011e-04
******************************************************************************

The new set of parameters is valid. Updating the trial wave function!

*****************************************************************************
Applying the update for shift_i =   1.0000e-02     and shift_s =   3.9062e-03
*****************************************************************************
  Execution time = 6.7637e+00
  </log>
  <optVariables href="Se.log.s007.opt.xml">
   uu_0                 4.160708e-01 1 1  ON 0
   uu_1                 2.337158e-01 1 1  ON 1
   uu_2                 1.215931e-01 1 1  ON 2
   uu_3                 4.825294e-02 1 1  ON 3
   uu_4                -3.951077e-04 1 1  ON 4
   uu_5                -4.310916e-02 1 1  ON 5
   uu_6                -7.646070e-02 1 1  ON 6
   uu_7                -9.727547e-02 1 1  ON 7
   uu_8                -1.098691e-01 1 1  ON 8
   uu_9                -1.020858e-01 1 1  ON 9
   ud_0                 8.387512e-01 1 1  ON 10
   ud_1                 4.741265e-01 1 1  ON 11
   ud_2                 2.433290e-01 1 1  ON 12
   ud_3                 9.188440e-02 1 1  ON 13
   ud_4                 8.190783e-03 1 1  ON 14
   ud_5                -5.253551e-02 1 1  ON 15
   ud_6                -9.767415e-02 1 1  ON 16
   ud_7                -1.357992e-01 1 1  ON 17
   ud_8                -1.547857e-01 1 1  ON 18
   ud_9                -1.440299e-01 1 1  ON 19
  eSe_0                -1.002714e+00 1 1  ON 20
  eSe_1                -8.454456e-01 1 1  ON 21
  eSe_2                -6.525487e-01 1 1  ON 22
  eSe_3                -2.269556e-01 1 1  ON 23
  eSe_4                 2.214812e-01 1 1  ON 24
  eSe_5                 3.699693e-01 1 1  ON 25
  eSe_6                 5.416220e-01 1 1  ON 26
  eSe_7                 6.467391e-01 1 1  ON 27
  eSe_8                 6.171561e-01 1 1  ON 28
  eSe_9                 3.097326e-01 1 1  ON 29
 uuSe_0                -4.146869e-05 1 1  ON 30
 uuSe_1                 4.357496e-05 1 1  ON 31
 uuSe_2                 7.323356e-05 1 1  ON 32
 uuSe_3                 2.866553e-05 1 1  ON 33
 uuSe_4                -1.324265e-05 1 1  ON 34
 uuSe_5                 1.640456e-06 1 1  ON 35
 uuSe_6                 1.481861e-04 1 1  ON 36
 uuSe_7                 2.409169e-05 1 1  ON 37
 uuSe_8                 4.212180e-05 1 1  ON 38
 uuSe_9                -8.651051e-05 1 1  ON 39
uuSe_10                 6.000111e-06 1 1  ON 40
uuSe_11                -5.014673e-05 1 1  ON 41
uuSe_12                -9.956157e-06 1 1  ON 42
uuSe_13                -2.385800e-05 1 1  ON 43
uuSe_14                 4.719278e-06 1 1  ON 44
[...]
   uu_2                 1.332218e-01 1 1  ON 2
   uu_3                 6.442894e-02 1 1  ON 3
   uu_4                 1.520731e-02 1 1  ON 4
   uu_5                -2.816345e-02 1 1  ON 5
   uu_6                -6.235892e-02 1 1  ON 6
   uu_7                -8.620549e-02 1 1  ON 7
   uu_8                -9.863492e-02 1 1  ON 8
   uu_9                -9.231222e-02 1 1  ON 9
   ud_0                 9.010768e-01 1 1  ON 10
   ud_1                 5.374587e-01 1 1  ON 11
   ud_2                 3.043303e-01 1 1  ON 12
   ud_3                 1.511921e-01 1 1  ON 13
   ud_4                 6.487732e-02 1 1  ON 14
   ud_5                 2.782151e-04 1 1  ON 15
   ud_6                -4.735916e-02 1 1  ON 16
   ud_7                -8.574246e-02 1 1  ON 17
   ud_8                -1.081943e-01 1 1  ON 18
   ud_9                -1.185838e-01 1 1  ON 19
  eSe_0                -1.091844e+00 1 1  ON 20
  eSe_1                -9.086760e-01 1 1  ON 21
  eSe_2                -7.146049e-01 1 1  ON 22
  eSe_3                -2.851359e-01 1 1  ON 23
  eSe_4                 1.936118e-01 1 1  ON 24
  eSe_5                 3.939686e-01 1 1  ON 25
  eSe_6                 5.719145e-01 1 1  ON 26
  eSe_7                 6.658918e-01 1 1  ON 27
  eSe_8                 6.402542e-01 1 1  ON 28
  eSe_9                 4.285308e-01 1 1  ON 29
 uuSe_0                -4.028906e-05 1 1  ON 30
 uuSe_1                 7.349569e-05 1 1  ON 31
 uuSe_2                 9.646766e-05 1 1  ON 32
 uuSe_3                 1.257493e-05 1 1  ON 33
 uuSe_4                -2.204056e-05 1 1  ON 34
 uuSe_5                 1.907755e-06 1 1  ON 35
 uuSe_6                 2.074708e-04 1 1  ON 36
 uuSe_7                 1.191817e-05 1 1  ON 37
 uuSe_8                 7.615938e-05 1 1  ON 38
 uuSe_9                -1.354746e-04 1 1  ON 39
uuSe_10                -8.620444e-06 1 1  ON 40
uuSe_11                -6.188117e-05 1 1  ON 41
uuSe_12                -1.992553e-05 1 1  ON 42
uuSe_13                 1.113139e-05 1 1  ON 43
uuSe_14                 1.282681e-05 1 1  ON 44
uuSe_15                 6.098197e-07 1 1  ON 45
uuSe_16                 1.668366e-04 1 1  ON 46
uuSe_17                -2.648173e-05 1 1  ON 47
uuSe_18                 3.481590e-05 1 1  ON 48
uuSe_19                 5.830722e-06 1 1  ON 49
uuSe_20                -3.426703e-05 1 1  ON 50
uuSe_21                -4.376079e-06 1 1  ON 51
uuSe_22                -2.331566e-07 1 1  ON 52
uuSe_23                 1.147642e-05 1 1  ON 53
uuSe_24                -4.062977e-08 1 1  ON 54
uuSe_25                 2.852223e-08 1 1  ON 55
 udSe_0                -7.209722e-05 1 1  ON 56
 udSe_1                 3.615057e-05 1 1  ON 57
 udSe_2                 6.626361e-05 1 1  ON 58
 udSe_3                 1.019952e-04 1 1  ON 59
 udSe_4                 7.462111e-06 1 1  ON 60
 udSe_5                -6.758322e-06 1 1  ON 61
 udSe_6                 2.094374e-04 1 1  ON 62
 udSe_7                 1.717158e-05 1 1  ON 63
 udSe_8                -4.400796e-05 1 1  ON 64
 udSe_9                -1.045745e-04 1 1  ON 65
udSe_10                 5.078584e-05 1 1  ON 66
udSe_11                -1.961657e-05 1 1  ON 67
udSe_12                 2.011441e-05 1 1  ON 68
udSe_13                -1.244160e-04 1 1  ON 69
udSe_14                -2.451639e-05 1 1  ON 70
udSe_15                 3.179115e-07 1 1  ON 71
udSe_16                 1.981963e-04 1 1  ON 72
udSe_17                -1.672348e-04 1 1  ON 73
udSe_18                 3.080775e-05 1 1  ON 74
udSe_19                -8.972632e-06 1 1  ON 75
udSe_20                 1.386798e-05 1 1  ON 76
udSe_21                 3.166933e-06 1 1  ON 77
udSe_22                 1.547755e-07 1 1  ON 78
udSe_23                -3.965611e-06 1 1  ON 79
udSe_24                -4.430508e-07 1 1  ON 80
udSe_25                 3.263316e-08 1 1  ON 81
  </optVariables>
   Restore the number of walkers to 1, removing 0 walkers.
</opt>
</optimization-report>
  QMC Execution time = 6.816 secs

=========================================================
  Start VMC
  File Root Se.log.s021 append = no 
=========================================================
  Using the current 1 walkers.
  Total number of walkers: 1024
  Total weight: 1024
  Resetting Properties of the walkers 1 x 13

<vmc function="put">
  qmc_counter=0  my_counter=0
  time step      = 0.15
  blocks         = 200
  steps          = 1
  substeps       = 30
  current        = 0
  target samples = 4096
  walkers/mpi    = 1

  stepsbetweensamples = 50
<parameter name="blocks" condition="int">200</parameter>
<parameter name="blocks_between_recompute" condition="int">0</parameter>
<parameter name="check_properties" condition="int">100</parameter>
<parameter name="checkproperties" condition="int">100</parameter>
<parameter name="current" condition="int">0</parameter>
<parameter name="dmcwalkersperthread" condition="real">4</parameter>
<parameter name="maxcpusecs" condition="real">3.6e+05</parameter>
<parameter name="record_configs" condition="int">0</parameter>
<parameter name="record_walkers" condition="int">50</parameter>
<parameter name="recordconfigs" condition="int">0</parameter>
<parameter name="recordwalkers" condition="int">50</parameter>
<parameter name="rewind" condition="int">0</parameter>
<parameter name="samples" condition="real">4096</parameter>
<parameter name="samplesperthread" condition="real">4</parameter>
<parameter name="steps" condition="int">1</parameter>
<parameter name="stepsbetweensamples" condition="int">50</parameter>
<parameter name="store_configs" condition="int">0</parameter>
<parameter name="storeconfigs" condition="int">0</parameter>
<parameter name="sub_steps" condition="int">30</parameter>
<parameter name="substeps" condition="int">30</parameter>
<parameter name="tau" condition="au">0.15</parameter>
<parameter name="time_step" condition="au">0.15</parameter>
<parameter name="timestep" condition="au">0.15</parameter>
<parameter name="use_drift" condition="string">no</parameter>
<parameter name="usedrift" condition="string">no</parameter>
<parameter name="walkers" condition="int">1</parameter>
<parameter name="warmup_steps" condition="int">100</parameter>
<parameter name="warmupsteps" condition="int">100</parameter>
  DumpConfig==true Configurations are dumped to config.h5 with a period of 200 blocks
  Walker Samples are dumped every 50 steps.
</vmc>
  Set drift_modifier UNR parameter a = 1
  EstimatorManagerBase::add replace LocalEnergy estimator.
  Cannot make clones again. Use existing 1 clones
  Initial partition of walkers 0 1 

  Using Particle by Particle moves
  Walker moves without drift
  Total Sample Size   =4096
  Walker distribution on root = 0 1 
  Using Locality Approximation
===== Memory Usage after the buffer registration =====
Available memory on node 0, free + buffers : 52319 MB
Memory footprint by rank 0 on node 0       : 657 MB
==================================================
  Anonymous Buffer size per walker : 2336 Bytes.
MEMORY increase 0 MB VMC::resetRun
  samples are written to the config.h5
====================================================
  SimpleFixedNodeBranch::finalize after a VMC block
    QMC counter        = 21
    time step          = 0.15
    reference energy   = -9.29832
    reference variance = 0.0398156
====================================================
  QMC Execution time = 3.477 secs

=========================================================
  Start DMC
  File Root Se.log.s022 append = no 
=========================================================
Using existing walkers 
  Resetting Properties of the walkers 1 x 13
  Set drift_modifier UNR parameter a = 1
  EstimatorManagerBase::add replace LocalEnergy estimator.
  Cannot make clones again. Use existing 1 clones
  Total number of walkers: 4096
  Total weight: 4096
  Creating WalkerController: target  number of walkers = 4096
  Using WalkerControlMPI for dynamic population control.
  START ALL OVER 
  WalkerControlBase parameters 
    maxCopy = 2
    Max Walkers per MPI rank 9
    Min Walkers per MPI rank 1
    Using non-blocking send/recv
  QMC counter      = 22
  time step        = 0.02
  effective time step = 0.02
  trial energy     = -9.298
  reference energy = -9.298
  Feedback = 1
  reference variance = 0.03982
  target walkers = 4096
  branching cutoff scheme classic
  branch cutoff = 50 75
  Max and minimum walkers per node= 9 1
  QMC Status (BranchMode) = 0000001101
  Initial partition of walkers on a node: 0 4 
  Updates by particle-by-particle moves
  DMC moves are rejected when a node crossing is detected
  Using Non-local T-moves v1, M. Casula et al., JCP 132, 154113 (2010)
===== Memory Usage after the buffer registration =====
Available memory on node 0, free + buffers : 52257 MB
Memory footprint by rank 0 on node 0       : 669 MB
==================================================
SimpleFixedNodeBranch::checkParameters 
  Average Energy of a population  = -9.29316
  Energy Variance = 0.0458741

  Fluctuating population
  Persistent walkers are killed after 1 MC sweeps
  BranchInterval = 1
  Steps per block = 50
  Number of blocks = 150

  DMC Engine Initialization = 0.0676 secs

 Warmup is completed after 200

  TauEff     = 0.01988
 TauEff/Tau = 0.9938
  Etrial     = -9.257
 Running average of energy = -9.296
                  Variance = 0.03965
branch cutoff = 10 15
====================================================
  SimpleFixedNodeBranch::finalize after a DMC block
    QMC counter                   = 22
    time step                     = 0.02
    effective time step           = 0.0198759
    trial energy                  = -9.29185
    reference energy              = -9.2965
    reference variance            = 0.0396457
    target walkers                = 4096
    branch cutoff                 = 10 15
    Max and minimum walkers per node= 9 1
    Feedback                      = 1
    QMC Status (BranchMode)       = 0000001111
====================================================
  QMC Execution time = 253 secs
  Reusing DMC
BRANCH resetRun
 SimpleFixedNodeBranch::resetRun detected changes in <parameter>'s 
 BranchMode : 0000001111 0000001111
  WalkerControlBase parameters 
    maxCopy = 2
    Max Walkers per MPI rank 9
    Min Walkers per MPI rank 1
    Using non-blocking send/recv
 iParam (old):                  0                 1                22              4096                 9                 1                 1                 0
 iParam (new):                100                 1                22              4096                 9                 1                 1                 0
 vParam (old):               0.02     0.01987586035      -9.291850849      -9.296500313      -9.299083146                15                10               0.2      0.0396457249      -67873.75137              7301                 1                10                 1                 1                 1                 1
 vParam (new):               0.01     0.01987586035      -9.291850849      -9.296500313      -9.299083146                15                10               0.2      0.0396457249      -67873.75137              7301                 1                10                 1                 1                 1                 1

 Using branching cutoff scheme classic
SimpleFixedNodeBranch::checkParameters 
  Average Energy of a population  = -9.29879
  Energy Variance = 0.034271

  Using Non-local T-moves v1, M. Casula et al., JCP 132, 154113 (2010)
===== Memory Usage after the buffer registration =====
Available memory on node 0, free + buffers : 52268 MB
Memory footprint by rank 0 on node 0       : 674 MB
==================================================

=========================================================
  Start DMC
  File Root Se.log.s023 append = no 
=========================================================
Using existing walkers 
  Resetting Properties of the walkers 1 x 13
  Set drift_modifier UNR parameter a = 1
  EstimatorManagerBase::add replace LocalEnergy estimator.
  Cannot make clones again. Use existing 1 clones
SimpleFixedNodeBranch::checkParameters 
  Average Energy of a population  = -9.29875
  Energy Variance = 0.0365679

  Fluctuating population
  Persistent walkers are killed after 1 MC sweeps
  BranchInterval = 1
  Steps per block = 100
  Number of blocks = 200

  DMC Engine Initialization = 0.003010988235 secs

 Warmup is completed after 100

  TauEff     = 0.00997666728
 TauEff/Tau = 0.997666728
  Etrial     = -9.397741829
 Running average of energy = -9.298161239
                  Variance = 0.03779707251
branch cutoff = 10 15
====================================================
  SimpleFixedNodeBranch::finalize after a DMC block
    QMC counter                   = 23
    time step                     = 0.01
    effective time step           = 0.00997706
    trial energy                  = -9.29857
    reference energy              = -9.29637
    reference variance            = 0.0377971
    target walkers                = 4096
    branch cutoff                 = 10 15
    Max and minimum walkers per node= 9 1
    Feedback                      = 1
    QMC Status (BranchMode)       = 0000001111
====================================================
  QMC Execution time = 672.8 secs
  Reusing DMC
BRANCH resetRun
 SimpleFixedNodeBranch::resetRun detected changes in <parameter>'s 
 BranchMode : 0000001111 0000001111
  WalkerControlBase parameters 
    maxCopy = 2
    Max Walkers per MPI rank 9
    Min Walkers per MPI rank 1
    Using non-blocking send/recv
 iParam (old):                  0                 1                23              4096                 9                 1                 1                 0
 iParam (new):                200                 1                23              4096                 9                 1                 1                 0
 vParam (old):               0.01    0.009977062491      -9.298565559      -9.296370703      -9.296743032                15                10               0.2     0.03779707251      -185007.0737             19901                 1                10                 1                 1                 1                 1
 vParam (new):              0.005    0.009977062491      -9.298565559      -9.296370703      -9.296743032                15                10               0.2     0.03779707251      -185007.0737             19901                 1                10                 1                 1                 1                 1

 Using branching cutoff scheme classic
SimpleFixedNodeBranch::checkParameters 
  Average Energy of a population  = -9.29653
  Energy Variance = 0.0437154

  Using Non-local T-moves v1, M. Casula et al., JCP 132, 154113 (2010)
===== Memory Usage after the buffer registration =====
Available memory on node 0, free + buffers : 52232 MB
Memory footprint by rank 0 on node 0       : 677 MB
==================================================

=========================================================
  Start DMC
  File Root Se.log.s024 append = no 
=========================================================
Using existing walkers 
  Resetting Properties of the walkers 1 x 13
  Set drift_modifier UNR parameter a = 1
  EstimatorManagerBase::add replace LocalEnergy estimator.
  Cannot make clones again. Use existing 1 clones
SimpleFixedNodeBranch::checkParameters 
  Average Energy of a population  = -9.29703
  Energy Variance = 0.0426499

  Fluctuating population
  Persistent walkers are killed after 1 MC sweeps
  BranchInterval = 1
  Steps per block = 200
  Number of blocks = 250

  DMC Engine Initialization = 0.0003199577332 secs

 Warmup is completed after 200

  TauEff     = 0.004995812923
 TauEff/Tau = 0.9991625847
  Etrial     = -9.392798026
 Running average of energy = -9.29720152
                  Variance = 0.03931999941
branch cutoff = 10 15
====================================================
  SimpleFixedNodeBranch::finalize after a DMC block
    QMC counter                   = 24
    time step                     = 0.005
    effective time step           = 0.00499581
    trial energy                  = -9.3078
    reference energy              = -9.29615
    reference variance            = 0.03932
    target walkers                = 4096
    branch cutoff                 = 10 15
    Max and minimum walkers per node= 9 1
    Feedback                      = 1
    QMC Status (BranchMode)       = 0000001111
====================================================
  QMC Execution time = 1685 secs
  Reusing DMC
BRANCH resetRun
 SimpleFixedNodeBranch::resetRun detected changes in <parameter>'s 
 BranchMode : 0000001111 0000001111
  WalkerControlBase parameters 
    maxCopy = 2
    Max Walkers per MPI rank 9
    Min Walkers per MPI rank 1
    Using non-blocking send/recv
 iParam (old):                  0                 1                24              4096                 9                 1                 1                 0
 iParam (new):                400                 1                24              4096                 9                 1                 1                 0
 vParam (old):              0.005    0.004995813115      -9.307801995      -9.296151378       -9.29691475                15                10               0.2     0.03931999941      -462957.6355             49801                 1                10                 1                 1                 1                 1
 vParam (new):             0.0025    0.004995813115      -9.307801995      -9.296151378       -9.29691475                15                10               0.2     0.03931999941      -462957.6355             49801                 1                10                 1                 1                 1                 1

 Using branching cutoff scheme classic
SimpleFixedNodeBranch::checkParameters 
  Average Energy of a population  = -9.2969
  Energy Variance = 0.0340401

  Using Non-local T-moves v1, M. Casula et al., JCP 132, 154113 (2010)
===== Memory Usage after the buffer registration =====
Available memory on node 0, free + buffers : 51917 MB
Memory footprint by rank 0 on node 0       : 680 MB
==================================================

=========================================================
  Start DMC
  File Root Se.log.s025 append = no 
=========================================================
Using existing walkers 
  Resetting Properties of the walkers 1 x 13
  Set drift_modifier UNR parameter a = 1
  EstimatorManagerBase::add replace LocalEnergy estimator.
  Cannot make clones again. Use existing 1 clones
SimpleFixedNodeBranch::checkParameters 
  Average Energy of a population  = -9.29587
  Energy Variance = 0.0332003

  Fluctuating population
  Persistent walkers are killed after 1 MC sweeps
  BranchInterval = 1
  Steps per block = 400
  Number of blocks = 300

  DMC Engine Initialization = 0.003510951996 secs

 Warmup is completed after 400

  TauEff     = 0.002499235562
 TauEff/Tau = 0.9996942248
  Etrial     = -9.197859761
 Running average of energy = -9.29701696
                  Variance = 0.03714693937
branch cutoff = 10 15
====================================================
  SimpleFixedNodeBranch::finalize after a DMC block
    QMC counter                   = 25
    time step                     = 0.0025
    effective time step           = 0.00249925
    trial energy                  = -9.29515
    reference energy              = -9.29637
    reference variance            = 0.0371469
    target walkers                = 4096
    branch cutoff                 = 10 15
    Max and minimum walkers per node= 9 1
    Feedback                      = 1
    QMC Status (BranchMode)       = 0000001111
====================================================
  QMC Execution time = 4018 secs
  Total Execution time = 6771 secs

=========================================================
  A new xml input file : Se.log.s025.cont.xml
TACC:  Shutdown complete. Exiting. 
