
 Primary working directories    : /global/cscratch1/sd/aannabe
 Secondary working directories  : /global/cscratch1/sd/aannabe
 Wavefunction directory         : /global/homes/a/aannabe/wfu/
 Main file repository           : /global/cscratch1/sd/aannabe/

 SHA1      : 19cd028119e0e09f93f0674bd8af7968d9b3eff6
 NAME      : 2015.1.36
 ARCHNAME  : linux/x86_64
 FC        : /opt/cray/pe/craype/2.5.14/bin/ftn
 BLASLIB   : -L/opt/intel/compilers_and_libraries_2018.1.163/linux/mkl/lib/intel64 -Wl,-_start-group -lmkl_intel_ilp64 -lmkl_intel_thread -lmkl_core -Wl,-_end-group -liomp5
 id        : lbl

 Nodes     nprocs
 nid00473     1

 Using customized tuning parameters: mindgm=7; mindgv=16; mindgc=1; mindgr=1; noblas=0; minvec=7
 default implementation of scratch files=df  

 ***,S
 memory,512,m
 gthresh,twoint=1.e-12
 
 gprint,basis,orbitals
 gexpec,ekin,pot
 
 angstrom
 geometry={
 1                                                                               ! Number of atoms
 S 0.0 0.0 0.0
 }
 
 basis={
 Including file /global/homes/a/aannabe/repos/pseudopotentiallibrary/recipes/S/ccECP_He_core/S.ccECP.molpro
 Including file /global/homes/a/aannabe/repos/pseudopotentiallibrary/recipes/S/ccECP_He_core/cc-pCVDZ.molpro
 }
 
 {hf
  wf,14,7,2
  occ,2,2,2,0,2,0,0,0
  closed,2,2,1,0,1,0,0,0
                                                                                 !open,2.3,2.5
 }
 scf(i)=energy
 
 _CC_NORM_MAX=2.0
 {ci
 maxit,100
 core
 }
 posthf(i)=energy
 
 table,scf,posthf,ekin,pot
 save,2.csv,new
 
 

 Variables initialized (889), CPU time= 0.00 sec
 Commands  initialized (702), CPU time= 0.02 sec, 572 directives.
 Default parameters read. Elapsed time= 0.22 sec

 Checking input...
 Passed
1


                                         ***  PROGRAM SYSTEM MOLPRO  ***
                                       Copyright, TTI GmbH Stuttgart, 2015
                                    Version 2015.1 linked Dec 29 2018 15:55:43


 **********************************************************************************************************************************
 LABEL *   S                                                                             
  64 bit serial version                                                                  DATE: 03-Jan-19          TIME: 19:56:51  
 **********************************************************************************************************************************

 SHA1:             19cd028119e0e09f93f0674bd8af7968d9b3eff6
 **********************************************************************************************************************************

 THRESHOLDS:

 ZERO    =  1.00D-12  ONEINT  =  1.00D-12  TWOINT  =  1.00D-12  PREFAC  =  1.00D-14  LOCALI  =  1.00D-09  EORDER  =  1.00D-04
 ENERGY  =  0.00D+00  ETEST   =  0.00D+00  EDENS   =  0.00D+00  THRDEDEF=  1.00D-06  GRADIENT=  1.00D-02  STEP    =  1.00D-03
 ORBITAL =  1.00D-05  CIVEC   =  1.00D-05  COEFF   =  1.00D-04  PRINTCI =  5.00D-02  PUNCHCI =  9.90D+01  OPTGRAD =  3.00D-04
 OPTENERG=  1.00D-06  OPTSTEP =  3.00D-04  THRGRAD =  1.00D-10  COMPRESS=  1.00D-11  VARMIN  =  1.00D-07  VARMAX  =  1.00D-03
 THRDOUB =  0.00D+00  THRDIV  =  1.00D-05  THRRED  =  1.00D-07  THRPSP  =  1.00D+00  THRDC   =  1.00D-10  THRCS   =  1.00D-10
 THRNRM  =  1.00D-08  THREQ   =  0.00D+00  THRDE   =  1.00D+00  THRREF  =  1.00D-05  SPARFAC =  1.00D+00  THRDLP  =  1.00D-07
 THRDIA  =  1.00D-10  THRDLS  =  1.00D-07  THRGPS  =  0.00D+00  THRKEX  =  0.00D+00  THRDIS  =  2.00D-01  THRVAR  =  1.00D-10
 THRLOC  =  1.00D-06  THRGAP  =  1.00D-06  THRLOCT = -1.00D+00  THRGAPT = -1.00D+00  THRORB  =  1.00D-06  THRMLTP =  0.00D+00
 THRCPQCI=  1.00D-10  KEXTA   =  0.00D+00  THRCOARS=  0.00D+00  SYMTOL  =  1.00D-06  GRADTOL =  1.00D-06  THROVL  =  1.00D-08
 THRORTH =  1.00D-08  GRID    =  1.00D-06  GRIDMAX =  1.00D-03  DTMAX   =  0.00D+00  THROCCDE=  1.00D-01  THROCCDE=  1.00D-01



 ZUNIT=ANG
 

Geometry recognized as XYZ


 Variable memory set to  512000000 words,  buffer space   230000 words

 SETTING BASIS          =    USERDEF


 Recomputing integrals since basis changed


 Using spherical harmonics



 PROGRAM * SEWARD (Integral evaluation for generally contracted gaussian basis sets)     Author: Roland Lindh, 1990

 Geometry written to block  1 of record 700

 Orientation using atomic masses  
 Molecule type: Atom
 Symmetry elements: X,Y,Z
 Rotational constants:       0.0000000      0.0000000      0.0000000 GHz  (calculated with average atomic masses)

 Point group  D2h 



 ATOMIC COORDINATES

 NR  ATOM    CHARGE       X              Y              Z

   1  S       6.00    0.000000000    0.000000000    0.000000000


          S   CORE POTENTIAL

          d POTENTIAL

 POWERS             1              3              2              1              1
 EXPONENTIALS   17.97761       20.43596       19.79658       0.000000       0.000000    
 COEFFICIENTS   14.00000       251.6866      -135.5389       6.000000      -14.00000    

          s - d POTENTIAL

 POWERS             2              2
 EXPONENTIALS   111.9363       43.94184    
 COEFFICIENTS   25.24328       227.0608    

          p - d POTENTIAL

 POWERS             2
 EXPONENTIALS   1.000000    
 COEFFICIENTS   0.000000    


 BASIS DATA

   Nr Sym  Nuc  Type         Exponents   Contraction coefficients

    1.1 Ag    1  1s         306.317903     0.000064    0.000021
    2.1 Ag                  146.602801    -0.000785   -0.000004
                             70.163647     0.022471   -0.006119
                             33.580104    -0.169871    0.054471
                             16.071334    -0.061897    0.019344
                              7.691691     0.240039   -0.083839
                              3.681219     0.551649   -0.265322
                              1.761820     0.334386   -0.293065
                              0.843202     0.031323    0.113730
                              0.403554     0.004436    0.529282
                              0.193140    -0.001015    0.466254
                              0.092436     0.000507    0.125800
    3.1 Ag    1  1s           7.241489     1.000000
    4.1 Ag    1  1s           0.138193     1.000000
    5.1 Ag    1  3d0          8.778757     1.000000
    6.1 Ag    1  3d2+         8.778757     1.000000
    7.1 Ag    1  3d0          0.480399     1.000000
    8.1 Ag    1  3d2+         0.480399     1.000000
    1.2 B3u   1  2px         55.148271     0.013447    0.003542
    2.2 B3u                  29.056588     0.101670    0.025797
                             15.309371     0.185192    0.047260
                              8.066220     0.275836    0.075594
                              4.249940     0.317073    0.091980
                              2.239213     0.217066    0.062067
                              1.179799     0.065765   -0.071253
                              0.621614     0.006517   -0.250206
                              0.327517     0.001111   -0.349295
                              0.172562     0.000222   -0.312700
                              0.090920     0.000181   -0.155898
                              0.047904     0.000008   -0.030418
    3.2 B3u   1  2px          2.966428     1.000000
    4.2 B3u   1  2px          0.132347     1.000000
    1.3 B2u   1  2py         55.148271     0.013447    0.003542
    2.3 B2u                  29.056588     0.101670    0.025797
                             15.309371     0.185192    0.047260
                              8.066220     0.275836    0.075594
                              4.249940     0.317073    0.091980
                              2.239213     0.217066    0.062067
                              1.179799     0.065765   -0.071253
                              0.621614     0.006517   -0.250206
                              0.327517     0.001111   -0.349295
                              0.172562     0.000222   -0.312700
                              0.090920     0.000181   -0.155898
                              0.047904     0.000008   -0.030418
    3.3 B2u   1  2py          2.966428     1.000000
    4.3 B2u   1  2py          0.132347     1.000000
    1.4 B1g   1  3d2-         8.778757     1.000000
    2.4 B1g   1  3d2-         0.480399     1.000000
    1.5 B1u   1  2pz         55.148271     0.013447    0.003542
    2.5 B1u                  29.056588     0.101670    0.025797
                             15.309371     0.185192    0.047260
                              8.066220     0.275836    0.075594
                              4.249940     0.317073    0.091980
                              2.239213     0.217066    0.062067
                              1.179799     0.065765   -0.071253
                              0.621614     0.006517   -0.250206
                              0.327517     0.001111   -0.349295
                              0.172562     0.000222   -0.312700
                              0.090920     0.000181   -0.155898
                              0.047904     0.000008   -0.030418
    3.5 B1u   1  2pz          2.966428     1.000000
    4.5 B1u   1  2pz          0.132347     1.000000
    1.6 B2g   1  3d1+         8.778757     1.000000
    2.6 B2g   1  3d1+         0.480399     1.000000
    1.7 B3g   1  3d1-         8.778757     1.000000
    2.7 B3g   1  3d1-         0.480399     1.000000

 NUCLEAR CHARGE:                    6
 NUMBER OF PRIMITIVE AOS:          68
 NUMBER OF SYMMETRY AOS:           66
 NUMBER OF CONTRACTIONS:           26   (   8Ag  +   4B3u +   4B2u +   2B1g +   4B1u +   2B2g +   2B3g +   0Au  )
 NUMBER OF CORE ORBITALS:           0   (   0Ag  +   0B3u +   0B2u +   0B1g +   0B1u +   0B2g +   0B3g +   0Au  )
 NUMBER OF VALENCE ORBITALS:        4   (   1Ag  +   1B3u +   1B2u +   0B1g +   1B1u +   0B2g +   0B3g +   0Au  )


 NUCLEAR REPULSION ENERGY    0.00000000

 EXTRA SYMMETRY OF AOS IN SYMMETRY 1:   1 1 1 1 2 3 2 3

 Eigenvalues of metric

         1 0.494E-01 0.145E+00 0.942E+00 0.942E+00 0.106E+01 0.106E+01 0.178E+01 0.203E+01
         2 0.736E-01 0.156E+00 0.174E+01 0.203E+01
         3 0.736E-01 0.156E+00 0.174E+01 0.203E+01
         4 0.942E+00 0.106E+01
         5 0.736E-01 0.156E+00 0.174E+01 0.203E+01
         6 0.942E+00 0.106E+01
         7 0.942E+00 0.106E+01


 Contracted 2-electron integrals neglected if value below      1.0D-12
 AO integral compression algorithm  1   Integral accuracy      1.0D-12

     0.262 MB (compressed) written to integral file (100.0%)


 NUMBER OF SORTED TWO-ELECTRON INTEGRALS:       9924.     BUFFER LENGTH:  32768
 NUMBER OF SEGMENTS:   1  SEGMENT LENGTH:       9924      RECORD LENGTH: 524288

 Memory used in sort:       0.57 MW

 SORT1 READ       22992. AND WROTE        9008. INTEGRALS IN      1 RECORDS. CPU TIME:     0.00 SEC, REAL TIME:     0.01 SEC
 SORT2 READ        9008. AND WROTE        9924. INTEGRALS IN      1 RECORDS. CPU TIME:     0.00 SEC, REAL TIME:     0.01 SEC

 FILE SIZES:   FILE 1:    20.1 MBYTE,  FILE 4:     4.2 MBYTE,   TOTAL:     24.4 MBYTE

 OPERATOR DM      FOR CENTER  0  COORDINATES:    0.000000    0.000000    0.000000
 OPERATOR EKIN    FOR CENTER  0  COORDINATES:    0.000000    0.000000    0.000000
 OPERATOR POT     FOR CENTER  0  COORDINATES:    0.000000    0.000000    0.000000


 **********************************************************************************************************************************
 DATASETS  * FILE   NREC   LENGTH (MB)   RECORD NAMES
              1      20       19.96       500      610      700      900      950      970     1000      129      960     1100   
                                          VAR    BASINP    GEOM    SYMINP    ZMAT    AOBASIS   BASIS     P2S    ABASIS      S 
                                         1400     1410     1420     1200     1210     1080     1600     1650     1300     1700   
                                         EKIN       V       ECP      H0       H01     AOSYM     SMH    MOLCAS    ERIS     OPER   

 PROGRAMS   *        TOTAL       INT
 CPU TIMES  *         0.41      0.28
 REAL TIME  *         6.73 SEC
 DISK USED  *        24.64 MB      
 **********************************************************************************************************************************


 PROGRAM * RHF-SCF (OPEN SHELL)       Authors: W. Meyer, H.-J. Werner


 NUMBER OF ELECTRONS:       8+    6-    SPACE SYMMETRY=7    SPIN SYMMETRY: Triplet 
 CONVERGENCE THRESHOLDS:    1.00E-05 (Density)    1.00E-07 (Energy)
 MAX. NUMBER OF ITERATIONS:       60
 INTERPOLATION TYPE:            DIIS
 INTERPOLATION STEPS:              2 (START)      1 (STEP)
 LEVEL SHIFTS:                 -0.60 (CLOSED) -0.30 (OPEN) 

 Number of closed-shell orbitals:    6 (   2   2   1   0   1   0   0 )
 Number of open-shell orbitals:      2 (   0   0   1   0   1   0   0 )



   Atom=S  basis=ECP10MWB_GUESS    lmin=0  lmax=1

 Orbital guess generated from atomic densities. Full valence occupancy:    1   1   1   0   1   0   0   0


 Molecular orbital dump at record        2100.2

 ITERATION    DDIFF          GRAD             ENERGY        2-EL.EN.            DIPOLE MOMENTS         DIIS   ORB.
    1      0.000D+00      0.000D+00      -136.28591918    246.490418    0.00000    0.00000    0.00000    0    start
    2      0.000D+00      0.168D+01      -151.20449710    168.113035    0.00000    0.00000    0.00000    1    diag,B
    3      0.142D+01      0.415D+00      -151.90327998    178.454891    0.00000    0.00000    0.00000    2    diag,B
    4      0.131D+00      0.301D-01      -151.91557327    178.828347    0.00000    0.00000    0.00000    3    diag,B
    5      0.444D-01      0.628D-02      -151.91713100    178.793632    0.00000    0.00000    0.00000    4    diag,B
    6      0.220D-01      0.209D-02      -151.91745254    178.781942    0.00000    0.00000    0.00000    5    diag,B
    7      0.144D-01      0.220D-03      -151.91745556    178.777715    0.00000    0.00000    0.00000    6    fixocc
    8      0.916D-03      0.920D-04      -151.91745621    178.774802    0.00000    0.00000    0.00000    7    diag,B
    9      0.623D-03      0.540D-05      -151.91745622    178.775163    0.00000    0.00000    0.00000    8    diag,B
   10      0.289D-04      0.119D-05      -151.91745622    178.775220    0.00000    0.00000    0.00000    9    orth
   11      0.522D-05      0.165D-06      -151.91745622    178.775218    0.00000    0.00000    0.00000    0    orth

 Final alpha occupancy:   2   2   2   0   2   0   0
 Final beta  occupancy:   2   2   1   0   1   0   0

 !RHF STATE 1.7 Energy               -151.917456215654
 Nuclear energy                         0.00000000
 One-electron energy                 -241.30506543
 Two-electron energy                   89.38760921
 Virial quotient                       -1.27008463
 !RHF STATE 1.7 Dipole moment           0.00000000     0.00000000     0.00000000
 Dipole moment /Debye                   0.00000000     0.00000000     0.00000000
 

 !RHF expec          <1.7|EKIN|1.7>   119.612073981046
 
 !RHF expec           <1.7|POT|1.7>   -26.328091777671

 ELECTRON ORBITALS
 =================


   Orb  Occ    Energy  Couls-En    Coefficients

                                   1 1s      1 1s      1 1s      1 1s      1 3d0     1 3d2+    1 3d0     1 3d2+ 

   1.1   2    -9.0513  -34.2714  0.999999 -0.000007 -0.000002  0.000010  0.000224 -0.000388  0.000064 -0.000110

   2.1   2    -0.8845   -9.5165 -0.000015  0.999951 -0.000003  0.000051  0.000010 -0.000017 -0.001132  0.001961

                                   1 2px     1 2px     1 2px     1 2px  

   1.2   2    -6.8155  -30.8982  1.001573  0.002715 -0.001908  0.001380

   2.2   2    -0.3955   -7.6201 -0.002672 -0.972739  0.001849  0.030729

                                   1 2py     1 2py     1 2py     1 2py  

   1.3   2    -6.8195  -30.8878  0.999211 -0.000536  0.000957 -0.000703

   2.3   +    -0.4792   -7.8358  0.004460 -1.028011 -0.001887 -0.031820

                                   1 2pz     1 2pz     1 2pz     1 2pz  

   1.5   2    -6.8195  -30.8878  0.999211 -0.000536  0.000957 -0.000703

   2.5   +    -0.4792   -7.8358  0.004460 -1.028011 -0.001887 -0.031820

 HOMO      2.2    -0.395453 =     -10.7608eV
 LUMO      3.1     0.518525 =      14.1098eV
 LUMO-HOMO         0.913978 =      24.8706eV


 **********************************************************************************************************************************
 DATASETS  * FILE   NREC   LENGTH (MB)   RECORD NAMES
              1      20       19.96       500      610      700      900      950      970     1000      129      960     1100   
                                          VAR    BASINP    GEOM    SYMINP    ZMAT    AOBASIS   BASIS     P2S    ABASIS      S 
                                         1400     1410     1420     1200     1210     1080     1600     1650     1300     1700   
                                         EKIN       V       ECP      H0       H01     AOSYM     SMH    MOLCAS    ERIS     OPER   

              2       4        2.75       700     1000      520     2100   
                                         GEOM     BASIS   MCVARS     RHF  

 PROGRAMS   *        TOTAL        HF       INT
 CPU TIMES  *         0.45      0.04      0.28
 REAL TIME  *         6.99 SEC
 DISK USED  *        24.64 MB      
 **********************************************************************************************************************************
 SETTING SCF(I)         =      -151.91745622  AU                              
 SETTING _CC_NORM_MAX   =         2.00000000                                  


 PROGRAM * CI (Multireference internally contracted CI)     Authors: H.-J. Werner, P.J. Knowles, 1987


 Convergence thresholds:  THRVAR = 1.00D-08  THRDEN = 1.00D-06

 Number of optimized states:  1  Roots:   1
 Number of reference states:  1  Roots:   1

 Reference symmetry:                   7   Triplet 
 Number of electrons:                 14
 Maximum number of shells:             3
 Maximum number of spin couplings:     9

 Reference space:        1 conf        1 CSFs
 N elec internal:       28 conf       28 CSFs
 N-1 el internal:       62 conf      134 CSFs
 N-2 el internal:       34 conf      190 CSFs

 Number of electrons in valence space:                     14
 Maximum number of open shell orbitals in reference space:  2
 Maximum number of open shell orbitals in internal spaces:  6


 Number of closed-shell orbitals:   6 (   2   2   1   0   1   0   0 )
 Number of active  orbitals:        2 (   0   0   1   0   1   0   0 )
 Number of external orbitals:      18 (   6   2   2   2   2   2   2 )

 Molecular orbitals read from record     2100.2  Type=RHF/CANONICAL (state 1.7)

 Integral transformation finished. Total CPU:   0.00 sec, npass=  1  Memory used:   0.07 MW

 Number of p-space configurations:   1

 Reference wavefunction optimized for reference space (refopt=1)

 State     Reference Energy 
   1        -151.91745622

 Number of blocks in overlap matrix:    61   Smallest eigenvalue:  0.10D+01
 Number of N-2 electron functions:      61
 Number of N-1 electron functions:     134

 Number of internal configurations:                    4
 Number of singly external configurations:           308
 Number of doubly external configurations:          1414
 Total number of contracted configurations:         1726
 Total number of uncontracted configurations:       4406

 Diagonal Coupling coefficients finished.               Storage:    9329 words, CPU-Time:      0.00 seconds.
 Energy denominators for pairs finished in 1 passes.    Storage:    4883 words, CPU-time:      0.00 seconds.

  ITER. STATE  ROOT     SQ.NORM     CORR.ENERGY   TOTAL ENERGY   ENERGY CHANGE       DEN1      VAR(S)    VAR(P)      TIME
    1     1     1     1.00000000     0.00000000  -151.91745622     0.00000000    -0.31134876  0.28D-01  0.43D-01     0.03
    2     1     1     1.05593574    -0.27645533  -152.19391155    -0.27645533    -0.00314021  0.71D-03  0.49D-03     0.04
    3     1     1     1.04864626    -0.27936879  -152.19682501    -0.00291346    -0.00002447  0.56D-05  0.39D-05     0.05
    4     1     1     1.04897420    -0.27939594  -152.19685216    -0.00002715    -0.00000041  0.11D-06  0.56D-07     0.06
    5     1     1     1.04904660    -0.27939637  -152.19685259    -0.00000043    -0.00000001  0.10D-08  0.76D-09     0.08


 =====================================
 Analysis of CPU times by interactions
 =====================================

       I      S      P

 I   0.0%
 S   0.0%  25.0%
 P   0.0%  12.5%  12.5%

 Initialization:  25.0%
 Other:           25.0%

 Total CPU:        0.1 seconds
 =====================================



 Reference coefficients greater than 0.0500000
 =============================================
 22222/2/           0.9763415

 Coefficients of singly external configurations greater than 0.0500000
 =====================================================================

 2/222\2/   4.1     0.0550092



 RESULTS FOR STATE 1.7
 =====================

 Coefficient of reference function:   C(0) = 0.97634147 (fixed)   0.97634147 (relaxed)

 Energy contributions of configuration classes

 CLASS          SQ.NORM        ECORR1        ECORR2
 +++++++++++++++++++++++++++++++++++++++++++++++++++
 Internals    0.00000403   -0.00004247   -0.00004156
 Singles      0.01766191   -0.03805153   -0.04097721
 Pairs        0.03138489   -0.24130237   -0.23837760
 Total        1.04905083   -0.27939637   -0.27939637
 +++++++++++++++++++++++++++++++++++++++++++++++++++


 Reference energy                    -151.91745622
 Nuclear energy                         0.00000000
 Kinetic energy                       119.78987803
 One electron energy                 -241.11509287
 Two electron energy                   88.91824029
 Virial quotient                       -1.27053183
 Correlation energy                    -0.27939637
 !CI(SD) STATE 1.7 Energy            -152.196852586220

 Properties without orbital relaxation:

 !CI(SD) STATE 1.7 Dipole moment        0.00000000     0.00000000     0.00000000
 Dipole moment /Debye                   0.00000000     0.00000000     0.00000000

 Cluster corrected energies          -152.21055721 (Davidson, fixed reference)
 Cluster corrected energies          -152.21055721 (Davidson, relaxed reference)

 Cluster corrected energies          -152.20865497 (Pople, fixed reference)
 Cluster corrected energies          -152.20865497 (Pople, relaxed reference)

 

 !CI(SD) expec       <1.7|EKIN|1.7>   119.789878027341
 
 !CI(SD) expec        <1.7|POT|1.7>   -26.328858771680


 **********************************************************************************************************************************
 DATASETS  * FILE   NREC   LENGTH (MB)   RECORD NAMES
              1      21       20.01       500      610      700      900      950      970     1000      129      960     1100   
                                          VAR    BASINP    GEOM    SYMINP    ZMAT    AOBASIS   BASIS     P2S    ABASIS      S 
                                         1400     1410     1420     1200     1210     1080     1600     1650     1300     1700   
                                         EKIN       V       ECP      H0       H01     AOSYM     SMH    MOLCAS    ERIS     OPER   
                                         1380   
                                         JKOP   

              2       4        2.75       700     1000      520     2100   
                                         GEOM     BASIS   MCVARS     RHF  

 PROGRAMS   *        TOTAL        CI        HF       INT
 CPU TIMES  *         0.57      0.11      0.04      0.28
 REAL TIME  *         8.40 SEC
 DISK USED  *        24.64 MB      
 **********************************************************************************************************************************
 SETTING POSTHF(I)      =      -152.19685259  AU                              
                                                                                                                                                                                                                                                                

         SCF            POSTHF        EKIN          POT
    -151.9174562   -152.1968526   119.7898780   -26.32885877
                                                  

 CI/USERDEF energy=   -152.196852586220

        CI              HF-SCF  
   -152.19685259   -151.91745622
 **********************************************************************************************************************************
 Molpro calculation terminated
 Variable memory released
