
 Primary working directories    : /global/cscratch1/sd/aannabe
 Secondary working directories  : /global/cscratch1/sd/aannabe
 Wavefunction directory         : /global/homes/a/aannabe/wfu/
 Main file repository           : /global/cscratch1/sd/aannabe/

 SHA1      : 19cd028119e0e09f93f0674bd8af7968d9b3eff6
 NAME      : 2015.1.36
 ARCHNAME  : linux/x86_64
 FC        : /opt/cray/pe/craype/2.5.14/bin/ftn
 BLASLIB   : -L/opt/intel/compilers_and_libraries_2018.1.163/linux/mkl/lib/intel64 -Wl,-_start-group -lmkl_intel_ilp64 -lmkl_intel_thread -lmkl_core -Wl,-_end-group -liomp5
 id        : lbl

 Nodes     nprocs
 nid00473     1

 Using customized tuning parameters: mindgm=7; mindgv=16; mindgc=1; mindgr=1; noblas=0; minvec=7
 default implementation of scratch files=df  

 ***,S
 memory,512,m
 gthresh,twoint=1.e-12
 
 gprint,basis,orbitals
 gexpec,ekin,pot
 
 angstrom
 geometry={
 1                                                                               ! Number of atoms
 S 0.0 0.0 0.0
 }
 
 basis={
 Including file /global/homes/a/aannabe/repos/pseudopotentiallibrary/recipes/S/ccECP_He_core/S.ccECP.molpro
 Including file /global/homes/a/aannabe/repos/pseudopotentiallibrary/recipes/S/ccECP_He_core/cc-pCV5Z.molpro
 }
 
 {hf
  wf,14,7,2
  occ,2,2,2,0,2,0,0,0
  closed,2,2,1,0,1,0,0,0
                                                                                 !open,2.3,2.5
 }
 scf(i)=energy
 
 _CC_NORM_MAX=2.0
 {ci
 maxit,100
 core
 }
 posthf(i)=energy
 
 table,scf,posthf,ekin,pot
 save,5.csv,new
 
 

 Variables initialized (889), CPU time= 0.00 sec
 Commands  initialized (702), CPU time= 0.01 sec, 572 directives.
 Default parameters read. Elapsed time= 0.18 sec

 Checking input...
 Passed
1


                                         ***  PROGRAM SYSTEM MOLPRO  ***
                                       Copyright, TTI GmbH Stuttgart, 2015
                                    Version 2015.1 linked Dec 29 2018 15:55:43


 **********************************************************************************************************************************
 LABEL *   S                                                                             
  64 bit serial version                                                                  DATE: 03-Jan-19          TIME: 19:58:04  
 **********************************************************************************************************************************

 SHA1:             19cd028119e0e09f93f0674bd8af7968d9b3eff6
 **********************************************************************************************************************************

 THRESHOLDS:

 ZERO    =  1.00D-12  ONEINT  =  1.00D-12  TWOINT  =  1.00D-12  PREFAC  =  1.00D-14  LOCALI  =  1.00D-09  EORDER  =  1.00D-04
 ENERGY  =  0.00D+00  ETEST   =  0.00D+00  EDENS   =  0.00D+00  THRDEDEF=  1.00D-06  GRADIENT=  1.00D-02  STEP    =  1.00D-03
 ORBITAL =  1.00D-05  CIVEC   =  1.00D-05  COEFF   =  1.00D-04  PRINTCI =  5.00D-02  PUNCHCI =  9.90D+01  OPTGRAD =  3.00D-04
 OPTENERG=  1.00D-06  OPTSTEP =  3.00D-04  THRGRAD =  1.00D-10  COMPRESS=  1.00D-11  VARMIN  =  1.00D-07  VARMAX  =  1.00D-03
 THRDOUB =  0.00D+00  THRDIV  =  1.00D-05  THRRED  =  1.00D-07  THRPSP  =  1.00D+00  THRDC   =  1.00D-10  THRCS   =  1.00D-10
 THRNRM  =  1.00D-08  THREQ   =  0.00D+00  THRDE   =  1.00D+00  THRREF  =  1.00D-05  SPARFAC =  1.00D+00  THRDLP  =  1.00D-07
 THRDIA  =  1.00D-10  THRDLS  =  1.00D-07  THRGPS  =  0.00D+00  THRKEX  =  0.00D+00  THRDIS  =  2.00D-01  THRVAR  =  1.00D-10
 THRLOC  =  1.00D-06  THRGAP  =  1.00D-06  THRLOCT = -1.00D+00  THRGAPT = -1.00D+00  THRORB  =  1.00D-06  THRMLTP =  0.00D+00
 THRCPQCI=  1.00D-10  KEXTA   =  0.00D+00  THRCOARS=  0.00D+00  SYMTOL  =  1.00D-06  GRADTOL =  1.00D-06  THROVL  =  1.00D-08
 THRORTH =  1.00D-08  GRID    =  1.00D-06  GRIDMAX =  1.00D-03  DTMAX   =  0.00D+00  THROCCDE=  1.00D-01  THROCCDE=  1.00D-01



 ZUNIT=ANG
 

Geometry recognized as XYZ


 Variable memory set to  512000000 words,  buffer space   230000 words

 SETTING BASIS          =    USERDEF


 Recomputing integrals since basis changed


 Using spherical harmonics



 PROGRAM * SEWARD (Integral evaluation for generally contracted gaussian basis sets)     Author: Roland Lindh, 1990

 Geometry written to block  1 of record 700

 Orientation using atomic masses  
 Molecule type: Atom
 Symmetry elements: X,Y,Z
 Rotational constants:       0.0000000      0.0000000      0.0000000 GHz  (calculated with average atomic masses)

 Point group  D2h 



 ATOMIC COORDINATES

 NR  ATOM    CHARGE       X              Y              Z

   1  S       6.00    0.000000000    0.000000000    0.000000000


          S   CORE POTENTIAL

          d POTENTIAL

 POWERS             1              3              2              1              1
 EXPONENTIALS   17.97761       20.43596       19.79658       0.000000       0.000000    
 COEFFICIENTS   14.00000       251.6866      -135.5389       6.000000      -14.00000    

          s - d POTENTIAL

 POWERS             2              2
 EXPONENTIALS   111.9363       43.94184    
 COEFFICIENTS   25.24328       227.0608    

          p - d POTENTIAL

 POWERS             2
 EXPONENTIALS   1.000000    
 COEFFICIENTS   0.000000    


 BASIS DATA

   Nr Sym  Nuc  Type         Exponents   Contraction coefficients

    1.1 Ag    1  1s         306.317903     0.000064    0.000021
    2.1 Ag                  146.602801    -0.000785   -0.000004
                             70.163647     0.022471   -0.006119
                             33.580104    -0.169871    0.054471
                             16.071334    -0.061897    0.019344
                              7.691691     0.240039   -0.083839
                              3.681219     0.551649   -0.265322
                              1.761820     0.334386   -0.293065
                              0.843202     0.031323    0.113730
                              0.403554     0.004436    0.529282
                              0.193140    -0.001015    0.466254
                              0.092436     0.000507    0.125800
    3.1 Ag    1  1s          36.172375     1.000000
    4.1 Ag    1  1s          16.448067     1.000000
    5.1 Ag    1  1s           7.479158     1.000000
    6.1 Ag    1  1s           3.400874     1.000000
    7.1 Ag    1  1s           1.476765     1.000000
    8.1 Ag    1  1s           0.646261     1.000000
    9.1 Ag    1  1s           0.282816     1.000000
   10.1 Ag    1  1s           0.123766     1.000000
   11.1 Ag    1  3d0         39.815350     1.000000
   12.1 Ag    1  3d2+        39.815350     1.000000
   13.1 Ag    1  3d0         21.063224     1.000000
   14.1 Ag    1  3d2+        21.063224     1.000000
   15.1 Ag    1  3d0         11.142924     1.000000
   16.1 Ag    1  3d2+        11.142924     1.000000
   17.1 Ag    1  3d0          5.894860     1.000000
   18.1 Ag    1  3d2+         5.894860     1.000000
   19.1 Ag    1  3d0          2.921482     1.000000
   20.1 Ag    1  3d2+         2.921482     1.000000
   21.1 Ag    1  3d0          1.185135     1.000000
   22.1 Ag    1  3d2+         1.185135     1.000000
   23.1 Ag    1  3d0          0.480764     1.000000
   24.1 Ag    1  3d2+         0.480764     1.000000
   25.1 Ag    1  3d0          0.195028     1.000000
   26.1 Ag    1  3d2+         0.195028     1.000000
   27.1 Ag    1  5g0         21.114498     1.000000
   28.1 Ag    1  5g4+        21.114498     1.000000
   29.1 Ag    1  5g2+        21.114498     1.000000
   30.1 Ag    1  5g0          8.107848     1.000000
   31.1 Ag    1  5g4+         8.107848     1.000000
   32.1 Ag    1  5g2+         8.107848     1.000000
   33.1 Ag    1  5g0          1.040933     1.000000
   34.1 Ag    1  5g4+         1.040933     1.000000
   35.1 Ag    1  5g2+         1.040933     1.000000
   36.1 Ag    1  5g0          0.450973     1.000000
   37.1 Ag    1  5g4+         0.450973     1.000000
   38.1 Ag    1  5g2+         0.450973     1.000000
    1.2 B3u   1  2px         55.148271     0.013447    0.003542
    2.2 B3u                  29.056588     0.101670    0.025797
                             15.309371     0.185192    0.047260
                              8.066220     0.275836    0.075594
                              4.249940     0.317073    0.091980
                              2.239213     0.217066    0.062067
                              1.179799     0.065765   -0.071253
                              0.621614     0.006517   -0.250206
                              0.327517     0.001111   -0.349295
                              0.172562     0.000222   -0.312700
                              0.090920     0.000181   -0.155898
                              0.047904     0.000008   -0.030418
    3.2 B3u   1  2px         30.506155     1.000000
    4.2 B3u   1  2px         16.889539     1.000000
    5.2 B3u   1  2px          9.350786     1.000000
    6.2 B3u   1  2px          5.177003     1.000000
    7.2 B3u   1  2px          2.497887     1.000000
    8.2 B3u   1  2px          1.144777     1.000000
    9.2 B3u   1  2px          0.524650     1.000000
   10.2 B3u   1  2px          0.240446     1.000000
   11.2 B3u   1  4f1+        25.138380     1.000000
   12.2 B3u   1  4f3+        25.138380     1.000000
   13.2 B3u   1  4f1+        10.515511     1.000000
   14.2 B3u   1  4f3+        10.515511     1.000000
   15.2 B3u   1  4f1+         4.398691     1.000000
   16.2 B3u   1  4f3+         4.398691     1.000000
   17.2 B3u   1  4f1+         1.064106     1.000000
   18.2 B3u   1  4f3+         1.064106     1.000000
   19.2 B3u   1  4f1+         0.512446     1.000000
   20.2 B3u   1  4f3+         0.512446     1.000000
   21.2 B3u   1  4f1+         0.246781     1.000000
   22.2 B3u   1  4f3+         0.246781     1.000000
   23.2 B3u   1  6h1+        15.672201     1.000000
   24.2 B3u   1  6h3+        15.672201     1.000000
   25.2 B3u   1  6h5+        15.672201     1.000000
   26.2 B3u   1  6h1+         0.865966     1.000000
   27.2 B3u   1  6h3+         0.865966     1.000000
   28.2 B3u   1  6h5+         0.865966     1.000000
    1.3 B2u   1  2py         55.148271     0.013447    0.003542
    2.3 B2u                  29.056588     0.101670    0.025797
                             15.309371     0.185192    0.047260
                              8.066220     0.275836    0.075594
                              4.249940     0.317073    0.091980
                              2.239213     0.217066    0.062067
                              1.179799     0.065765   -0.071253
                              0.621614     0.006517   -0.250206
                              0.327517     0.001111   -0.349295
                              0.172562     0.000222   -0.312700
                              0.090920     0.000181   -0.155898
                              0.047904     0.000008   -0.030418
    3.3 B2u   1  2py         30.506155     1.000000
    4.3 B2u   1  2py         16.889539     1.000000
    5.3 B2u   1  2py          9.350786     1.000000
    6.3 B2u   1  2py          5.177003     1.000000
    7.3 B2u   1  2py          2.497887     1.000000
    8.3 B2u   1  2py          1.144777     1.000000
    9.3 B2u   1  2py          0.524650     1.000000
   10.3 B2u   1  2py          0.240446     1.000000
   11.3 B2u   1  4f1-        25.138380     1.000000
   12.3 B2u   1  4f3-        25.138380     1.000000
   13.3 B2u   1  4f1-        10.515511     1.000000
   14.3 B2u   1  4f3-        10.515511     1.000000
   15.3 B2u   1  4f1-         4.398691     1.000000
   16.3 B2u   1  4f3-         4.398691     1.000000
   17.3 B2u   1  4f1-         1.064106     1.000000
   18.3 B2u   1  4f3-         1.064106     1.000000
   19.3 B2u   1  4f1-         0.512446     1.000000
   20.3 B2u   1  4f3-         0.512446     1.000000
   21.3 B2u   1  4f1-         0.246781     1.000000
   22.3 B2u   1  4f3-         0.246781     1.000000
   23.3 B2u   1  6h1-        15.672201     1.000000
   24.3 B2u   1  6h3-        15.672201     1.000000
   25.3 B2u   1  6h5-        15.672201     1.000000
   26.3 B2u   1  6h1-         0.865966     1.000000
   27.3 B2u   1  6h3-         0.865966     1.000000
   28.3 B2u   1  6h5-         0.865966     1.000000
    1.4 B1g   1  3d2-        39.815350     1.000000
    2.4 B1g   1  3d2-        21.063224     1.000000
    3.4 B1g   1  3d2-        11.142924     1.000000
    4.4 B1g   1  3d2-         5.894860     1.000000
    5.4 B1g   1  3d2-         2.921482     1.000000
    6.4 B1g   1  3d2-         1.185135     1.000000
    7.4 B1g   1  3d2-         0.480764     1.000000
    8.4 B1g   1  3d2-         0.195028     1.000000
    9.4 B1g   1  5g2-        21.114498     1.000000
   10.4 B1g   1  5g4-        21.114498     1.000000
   11.4 B1g   1  5g2-         8.107848     1.000000
   12.4 B1g   1  5g4-         8.107848     1.000000
   13.4 B1g   1  5g2-         1.040933     1.000000
   14.4 B1g   1  5g4-         1.040933     1.000000
   15.4 B1g   1  5g2-         0.450973     1.000000
   16.4 B1g   1  5g4-         0.450973     1.000000
    1.5 B1u   1  2pz         55.148271     0.013447    0.003542
    2.5 B1u                  29.056588     0.101670    0.025797
                             15.309371     0.185192    0.047260
                              8.066220     0.275836    0.075594
                              4.249940     0.317073    0.091980
                              2.239213     0.217066    0.062067
                              1.179799     0.065765   -0.071253
                              0.621614     0.006517   -0.250206
                              0.327517     0.001111   -0.349295
                              0.172562     0.000222   -0.312700
                              0.090920     0.000181   -0.155898
                              0.047904     0.000008   -0.030418
    3.5 B1u   1  2pz         30.506155     1.000000
    4.5 B1u   1  2pz         16.889539     1.000000
    5.5 B1u   1  2pz          9.350786     1.000000
    6.5 B1u   1  2pz          5.177003     1.000000
    7.5 B1u   1  2pz          2.497887     1.000000
    8.5 B1u   1  2pz          1.144777     1.000000
    9.5 B1u   1  2pz          0.524650     1.000000
   10.5 B1u   1  2pz          0.240446     1.000000
   11.5 B1u   1  4f0         25.138380     1.000000
   12.5 B1u   1  4f2+        25.138380     1.000000
   13.5 B1u   1  4f0         10.515511     1.000000
   14.5 B1u   1  4f2+        10.515511     1.000000
   15.5 B1u   1  4f0          4.398691     1.000000
   16.5 B1u   1  4f2+         4.398691     1.000000
   17.5 B1u   1  4f0          1.064106     1.000000
   18.5 B1u   1  4f2+         1.064106     1.000000
   19.5 B1u   1  4f0          0.512446     1.000000
   20.5 B1u   1  4f2+         0.512446     1.000000
   21.5 B1u   1  4f0          0.246781     1.000000
   22.5 B1u   1  4f2+         0.246781     1.000000
   23.5 B1u   1  6h2+        15.672201     1.000000
   24.5 B1u   1  6h4+        15.672201     1.000000
   25.5 B1u   1  6h0         15.672201     1.000000
   26.5 B1u   1  6h2+         0.865966     1.000000
   27.5 B1u   1  6h4+         0.865966     1.000000
   28.5 B1u   1  6h0          0.865966     1.000000
    1.6 B2g   1  3d1+        39.815350     1.000000
    2.6 B2g   1  3d1+        21.063224     1.000000
    3.6 B2g   1  3d1+        11.142924     1.000000
    4.6 B2g   1  3d1+         5.894860     1.000000
    5.6 B2g   1  3d1+         2.921482     1.000000
    6.6 B2g   1  3d1+         1.185135     1.000000
    7.6 B2g   1  3d1+         0.480764     1.000000
    8.6 B2g   1  3d1+         0.195028     1.000000
    9.6 B2g   1  5g1+        21.114498     1.000000
   10.6 B2g   1  5g3+        21.114498     1.000000
   11.6 B2g   1  5g1+         8.107848     1.000000
   12.6 B2g   1  5g3+         8.107848     1.000000
   13.6 B2g   1  5g1+         1.040933     1.000000
   14.6 B2g   1  5g3+         1.040933     1.000000
   15.6 B2g   1  5g1+         0.450973     1.000000
   16.6 B2g   1  5g3+         0.450973     1.000000
    1.7 B3g   1  3d1-        39.815350     1.000000
    2.7 B3g   1  3d1-        21.063224     1.000000
    3.7 B3g   1  3d1-        11.142924     1.000000
    4.7 B3g   1  3d1-         5.894860     1.000000
    5.7 B3g   1  3d1-         2.921482     1.000000
    6.7 B3g   1  3d1-         1.185135     1.000000
    7.7 B3g   1  3d1-         0.480764     1.000000
    8.7 B3g   1  3d1-         0.195028     1.000000
    9.7 B3g   1  5g1-        21.114498     1.000000
   10.7 B3g   1  5g3-        21.114498     1.000000
   11.7 B3g   1  5g1-         8.107848     1.000000
   12.7 B3g   1  5g3-         8.107848     1.000000
   13.7 B3g   1  5g1-         1.040933     1.000000
   14.7 B3g   1  5g3-         1.040933     1.000000
   15.7 B3g   1  5g1-         0.450973     1.000000
   16.7 B3g   1  5g3-         0.450973     1.000000
    1.8 Au    1  4f2-        25.138380     1.000000
    2.8 Au    1  4f2-        10.515511     1.000000
    3.8 Au    1  4f2-         4.398691     1.000000
    4.8 Au    1  4f2-         1.064106     1.000000
    5.8 Au    1  4f2-         0.512446     1.000000
    6.8 Au    1  4f2-         0.246781     1.000000
    7.8 Au    1  6h4-        15.672201     1.000000
    8.8 Au    1  6h2-        15.672201     1.000000
    9.8 Au    1  6h4-         0.865966     1.000000
   10.8 Au    1  6h2-         0.865966     1.000000

 NUCLEAR CHARGE:                    6
 NUMBER OF PRIMITIVE AOS:         290
 NUMBER OF SYMMETRY AOS:          220
 NUMBER OF CONTRACTIONS:          180   (  38Ag  +  28B3u +  28B2u +  16B1g +  28B1u +  16B2g +  16B3g +  10Au  )
 NUMBER OF CORE ORBITALS:           0   (   0Ag  +   0B3u +   0B2u +   0B1g +   0B1u +   0B2g +   0B3g +   0Au  )
 NUMBER OF VALENCE ORBITALS:        4   (   1Ag  +   1B3u +   1B2u +   0B1g +   1B1u +   0B2g +   0B3g +   0Au  )


 NUCLEAR REPULSION ENERGY    0.00000000

 EXTRA SYMMETRY OF AOS IN SYMMETRY 1:   1 1 1 1 1 1 1 1 1 1   2 3 2 3 2 3 2 3 2 3   2 3 2 3 2 3 4 5 6 4   5 6 4 5 6 4 5 6
 EXTRA SYMMETRY OF AOS IN SYMMETRY 2:   1 1 1 1 1 1 1 1 1 1   2 3 2 3 2 3 2 3 2 3   2 3 4 5 6 4 5 6
 EXTRA SYMMETRY OF AOS IN SYMMETRY 3:   1 1 1 1 1 1 1 1 1 1   2 3 2 3 2 3 2 3 2 3   2 3 4 5 6 4 5 6
 EXTRA SYMMETRY OF AOS IN SYMMETRY 4:   1 1 1 1 1 1 1 1 2 3   2 3 2 3 2 3
 EXTRA SYMMETRY OF AOS IN SYMMETRY 5:   1 1 1 1 1 1 1 1 1 1   2 3 2 3 2 3 2 3 2 3   2 3 4 5 6 4 5 6
 EXTRA SYMMETRY OF AOS IN SYMMETRY 6:   1 1 1 1 1 1 1 1 2 3   2 3 2 3 2 3
 EXTRA SYMMETRY OF AOS IN SYMMETRY 7:   1 1 1 1 1 1 1 1 2 3   2 3 2 3 2 3
 EXTRA SYMMETRY OF AOS IN SYMMETRY 8:   1 1 1 1 1 1 2 3 2 3

 Eigenvalues of metric

         1 0.585E-05 0.194E-04 0.151E-02 0.578E-02 0.578E-02 0.649E-02 0.267E-01 0.347E-01
         2 0.516E-05 0.119E-02 0.563E-02 0.129E-01 0.368E-01 0.784E-01 0.784E-01 0.122E+00
         3 0.516E-05 0.119E-02 0.563E-02 0.129E-01 0.368E-01 0.784E-01 0.784E-01 0.122E+00
         4 0.578E-02 0.347E-01 0.992E-01 0.265E+00 0.362E+00 0.362E+00 0.464E+00 0.464E+00
         5 0.516E-05 0.119E-02 0.563E-02 0.129E-01 0.368E-01 0.784E-01 0.784E-01 0.122E+00
         6 0.578E-02 0.347E-01 0.992E-01 0.265E+00 0.362E+00 0.362E+00 0.464E+00 0.464E+00
         7 0.578E-02 0.347E-01 0.992E-01 0.265E+00 0.362E+00 0.362E+00 0.464E+00 0.464E+00
         8 0.784E-01 0.164E+00 0.554E+00 0.873E+00 0.995E+00 0.995E+00 0.101E+01 0.101E+01


 Contracted 2-electron integrals neglected if value below      1.0D-12
 AO integral compression algorithm  1   Integral accuracy      1.0D-12

     114.819 MB (compressed) written to integral file ( 49.8%)


 NUMBER OF SORTED TWO-ELECTRON INTEGRALS:   17097403.     BUFFER LENGTH:  32768
 NUMBER OF SEGMENTS:   2  SEGMENT LENGTH:   15999355      RECORD LENGTH: 524288

 Memory used in sort:      16.56 MW

 SORT1 READ    28755968. AND WROTE    12139139. INTEGRALS IN     36 RECORDS. CPU TIME:     0.77 SEC, REAL TIME:     1.40 SEC
 SORT2 READ    12139139. AND WROTE    17097403. INTEGRALS IN    438 RECORDS. CPU TIME:     0.55 SEC, REAL TIME:     0.95 SEC

 FILE SIZES:   FILE 1:   135.5 MBYTE,  FILE 4:   151.0 MBYTE,   TOTAL:    286.5 MBYTE

 OPERATOR DM      FOR CENTER  0  COORDINATES:    0.000000    0.000000    0.000000
 OPERATOR EKIN    FOR CENTER  0  COORDINATES:    0.000000    0.000000    0.000000
 OPERATOR POT     FOR CENTER  0  COORDINATES:    0.000000    0.000000    0.000000


 **********************************************************************************************************************************
 DATASETS  * FILE   NREC   LENGTH (MB)   RECORD NAMES
              1      20       88.41       500      610      700      900      950      970     1000      129      960     1100   
                                          VAR    BASINP    GEOM    SYMINP    ZMAT    AOBASIS   BASIS     P2S    ABASIS      S 
                                         1400     1410     1420     1200     1210     1080     1600     1650     1300     1700   
                                         EKIN       V       ECP      H0       H01     AOSYM     SMH    MOLCAS    ERIS     OPER   

 PROGRAMS   *        TOTAL       INT
 CPU TIMES  *         7.42      7.27
 REAL TIME  *        51.23 SEC
 DISK USED  *       286.81 MB      
 **********************************************************************************************************************************


 PROGRAM * RHF-SCF (OPEN SHELL)       Authors: W. Meyer, H.-J. Werner


 NUMBER OF ELECTRONS:       8+    6-    SPACE SYMMETRY=7    SPIN SYMMETRY: Triplet 
 CONVERGENCE THRESHOLDS:    1.00E-05 (Density)    1.00E-07 (Energy)
 MAX. NUMBER OF ITERATIONS:       60
 INTERPOLATION TYPE:            DIIS
 INTERPOLATION STEPS:              2 (START)      1 (STEP)
 LEVEL SHIFTS:                 -0.60 (CLOSED) -0.30 (OPEN) 

 Number of closed-shell orbitals:    6 (   2   2   1   0   1   0   0   0 )
 Number of open-shell orbitals:      2 (   0   0   1   0   1   0   0   0 )



   Atom=S  basis=ECP10MWB_GUESS    lmin=0  lmax=1

 Orbital guess generated from atomic densities. Full valence occupancy:    1   1   1   0   1   0   0   0


 Molecular orbital dump at record        2100.2

 ITERATION    DDIFF          GRAD             ENERGY        2-EL.EN.            DIPOLE MOMENTS         DIIS   ORB.
    1      0.000D+00      0.000D+00      -133.04941420    266.360583    0.00000    0.00000    0.00000    0    start
    2      0.000D+00      0.583D+00      -148.62423963    142.167736    0.00000    0.00000    0.00000    1    diag,B
    3      0.576D+01      0.220D+00      -151.78202050    175.818298    0.00000    0.00000    0.00000    2    diag,B
    4      0.463D+01      0.254D-01      -151.89445237    177.817838    0.00000    0.00000    0.00000    3    diag,B
    5      0.660D+00      0.697D-02      -151.91494928    178.316883    0.00000    0.00000    0.00000    4    diag,B
    6      0.327D+00      0.242D-02      -151.91884881    178.667216    0.00000    0.00000    0.00000    5    diag,B
    7      0.134D+00      0.604D-03      -151.91912610    178.762863    0.00000    0.00000    0.00000    6    fixocc
    8      0.141D-01      0.191D-03      -151.91916426    178.762083    0.00000    0.00000    0.00000    7    diag,B
    9      0.730D-02      0.510D-04      -151.91916692    178.759428    0.00000    0.00000    0.00000    8    diag,B
   10      0.429D-02      0.117D-04      -151.91916701    178.760464    0.00000    0.00000    0.00000    9    orth
   11      0.816D-04      0.258D-05      -151.91916701    178.760957    0.00000    0.00000    0.00000    9    diag,B
   12      0.391D-03      0.428D-06      -151.91916701    178.760955    0.00000    0.00000    0.00000    9    diag,B
   13      0.798D-04      0.783D-07      -151.91916701    178.760944    0.00000    0.00000    0.00000    9    diag,B
   14      0.975D-05      0.665D-08      -151.91916701    178.760943    0.00000    0.00000    0.00000    0    orth

 Final alpha occupancy:   2   2   2   0   2   0   0   0
 Final beta  occupancy:   2   2   1   0   1   0   0   0

 !RHF STATE 1.7 Energy               -151.919167008968
 Nuclear energy                         0.00000000
 One-electron energy                 -241.29963833
 Two-electron energy                   89.38047132
 Virial quotient                       -1.27010471
 !RHF STATE 1.7 Dipole moment           0.00000000     0.00000000     0.00000000
 Dipole moment /Debye                   0.00000000     0.00000000     0.00000000
 

 !RHF expec          <1.7|EKIN|1.7>   119.611529849767
 
 !RHF expec           <1.7|POT|1.7>   -26.327672408530

 ELECTRON ORBITALS
 =================


   Orb  Occ    Energy  Couls-En    Coefficients

                                   1 1s      1 1s      1 1s      1 1s      1 1s      1 1s      1 1s      1 1s      1 1s      1 1s   
                                   1 3d0     1 3d2+    1 3d0     1 3d2+    1 3d0     1 3d2+    1 3d0     1 3d2+    1 3d0     1 3d2+ 
                                   1 3d0     1 3d2+    1 3d0     1 3d2+    1 3d0     1 3d2+    1 5g0     1 5g4+    1 5g2+    1 5g0  
                                   1 5g4+    1 5g2+    1 5g0     1 5g4+    1 5g2+    1 5g0     1 5g4+    1 5g2+ 

   1.1   2    -9.0517  -34.2717  0.990046 -0.034358  0.000156  0.000127 -0.000690 -0.004402 -0.006930  0.012464  0.020773  0.010629
                                 0.000000 -0.000001 -0.000001  0.000002  0.000038 -0.000067  0.000032 -0.000056  0.000424 -0.000735
                                 0.000129 -0.000224 -0.000117  0.000202 -0.000014  0.000024 -0.000000 -0.000000  0.000000  0.000000
                                 0.000000 -0.000000  0.000000  0.000001 -0.000001 -0.000000 -0.000000  0.000000

   2.1   2    -0.8847   -9.5169  0.024038  1.079069 -0.000281  0.000027  0.000846  0.010136  0.014611 -0.027531 -0.048538 -0.024304
                                 0.000002 -0.000004 -0.000001  0.000001  0.000009 -0.000015  0.000026 -0.000046 -0.000119  0.000205
                                -0.000514  0.000890  0.000418 -0.000724 -0.003308  0.005730  0.000000  0.000000 -0.000000 -0.000000
                                -0.000000  0.000000  0.000003  0.000006 -0.000005 -0.000011 -0.000021  0.000016

                                   1 2px     1 2px     1 2px     1 2px     1 2px     1 2px     1 2px     1 2px     1 2px     1 2px  
                                   1 4f1+    1 4f3+    1 4f1+    1 4f3+    1 4f1+    1 4f3+    1 4f1+    1 4f3+    1 4f1+    1 4f3+ 
                                   1 4f1+    1 4f3+    1 6h1+    1 6h3+    1 6h5+    1 6h1+    1 6h3+    1 6h5+ 

   1.2   2    -6.8168  -30.9002  1.002601  0.000726 -0.000085 -0.000063 -0.000254 -0.000151 -0.001548 -0.001322 -0.000057 -0.000032
                                 0.000023 -0.000030 -0.000002  0.000002  0.000293 -0.000378  0.000291 -0.000376 -0.000202  0.000260
                                 0.000057 -0.000073  0.000000 -0.000000  0.000000  0.000000 -0.000000  0.000000

   2.2   2    -0.3971   -7.6095 -0.032116  1.111373 -0.000182  0.000166 -0.001276 -0.000351 -0.003648  0.014272  0.044083  0.070123
                                 0.000003 -0.000004 -0.000003  0.000004 -0.000002  0.000002 -0.001099  0.001419 -0.002167  0.002798
                                -0.003679  0.004749 -0.000000  0.000000 -0.000000 -0.000021  0.000023 -0.000031

                                   1 2py     1 2py     1 2py     1 2py     1 2py     1 2py     1 2py     1 2py     1 2py     1 2py  
                                   1 4f1-    1 4f3-    1 4f1-    1 4f3-    1 4f1-    1 4f3-    1 4f1-    1 4f3-    1 4f1-    1 4f3- 
                                   1 4f1-    1 4f3-    1 6h1-    1 6h3-    1 6h5-    1 6h1-    1 6h3-    1 6h5- 

   1.3   2    -6.8194  -30.8874  0.998858  0.000527  0.000009  0.000055  0.000001  0.000110  0.000654  0.000702  0.000016  0.000048
                                 0.000008 -0.000030 -0.000001  0.000003  0.000098 -0.000378  0.000098 -0.000379 -0.000067  0.000260
                                 0.000020 -0.000076  0.000000 -0.000000  0.000000  0.000000 -0.000000  0.000000

   2.3   +    -0.4803   -7.8461  0.029415  0.889986  0.000270 -0.000123  0.001469  0.000553  0.003647 -0.013152 -0.045860 -0.067007
                                 0.000002 -0.000006 -0.000000  0.000002 -0.000004  0.000017 -0.000825  0.003195 -0.001790  0.006933
                                -0.002365  0.009159 -0.000000  0.000000 -0.000000 -0.000022  0.000070 -0.000157

                                   1 2pz     1 2pz     1 2pz     1 2pz     1 2pz     1 2pz     1 2pz     1 2pz     1 2pz     1 2pz  
                                   1 4f0     1 4f2+    1 4f0     1 4f2+    1 4f0     1 4f2+    1 4f0     1 4f2+    1 4f0     1 4f2+ 
                                   1 4f0     1 4f2+    1 6h2+    1 6h4+    1 6h0     1 6h2+    1 6h4+    1 6h0  

   1.5   2    -6.8194  -30.8874  0.998858  0.000527  0.000009  0.000055  0.000001  0.000110  0.000654  0.000702  0.000016  0.000048
                                 0.000019 -0.000025 -0.000002  0.000002  0.000239 -0.000309  0.000240 -0.000310 -0.000164  0.000212
                                 0.000048 -0.000062 -0.000000  0.000000  0.000000 -0.000000  0.000000  0.000000

   2.5   +    -0.4803   -7.8461  0.029415  0.889986  0.000270 -0.000123  0.001469  0.000553  0.003647 -0.013152 -0.045860 -0.067007
                                 0.000004 -0.000005 -0.000001  0.000001 -0.000011  0.000014 -0.002021  0.002609 -0.004385  0.005660
                                -0.005793  0.007478  0.000000 -0.000000 -0.000000  0.000115 -0.000100 -0.000084

 HOMO      2.2    -0.397144 =     -10.8068eV
 LUMO      3.1     0.207306 =       5.6411eV
 LUMO-HOMO         0.604450 =      16.4479eV


 **********************************************************************************************************************************
 DATASETS  * FILE   NREC   LENGTH (MB)   RECORD NAMES
              1      20       88.41       500      610      700      900      950      970     1000      129      960     1100   
                                          VAR    BASINP    GEOM    SYMINP    ZMAT    AOBASIS   BASIS     P2S    ABASIS      S 
                                         1400     1410     1420     1200     1210     1080     1600     1650     1300     1700   
                                         EKIN       V       ECP      H0       H01     AOSYM     SMH    MOLCAS    ERIS     OPER   

              2       4        2.91       700     1000      520     2100   
                                         GEOM     BASIS   MCVARS     RHF  

 PROGRAMS   *        TOTAL        HF       INT
 CPU TIMES  *         8.24      0.81      7.27
 REAL TIME  *        53.41 SEC
 DISK USED  *       286.81 MB      
 **********************************************************************************************************************************
 SETTING SCF(I)         =      -151.91916701  AU                              
 SETTING _CC_NORM_MAX   =         2.00000000                                  


 PROGRAM * CI (Multireference internally contracted CI)     Authors: H.-J. Werner, P.J. Knowles, 1987


 Convergence thresholds:  THRVAR = 1.00D-08  THRDEN = 1.00D-06

 Number of optimized states:  1  Roots:   1
 Number of reference states:  1  Roots:   1

 Reference symmetry:                   7   Triplet 
 Number of electrons:                 14
 Maximum number of shells:             3
 Maximum number of spin couplings:     9

 Reference space:        1 conf        1 CSFs
 N elec internal:       28 conf       28 CSFs
 N-1 el internal:       62 conf      134 CSFs
 N-2 el internal:       34 conf      190 CSFs

 Number of electrons in valence space:                     14
 Maximum number of open shell orbitals in reference space:  2
 Maximum number of open shell orbitals in internal spaces:  6


 Number of closed-shell orbitals:   6 (   2   2   1   0   1   0   0   0 )
 Number of active  orbitals:        2 (   0   0   1   0   1   0   0   0 )
 Number of external orbitals:     172 (  36  26  26  16  26  16  16  10 )

 Molecular orbitals read from record     2100.2  Type=RHF/CANONICAL (state 1.7)

 Integral transformation finished. Total CPU:   0.14 sec, npass=  1  Memory used:   0.24 MW

 Number of p-space configurations:   1

 Reference wavefunction optimized for reference space (refopt=1)

 State     Reference Energy 
   1        -151.91916701

 Number of blocks in overlap matrix:    61   Smallest eigenvalue:  0.10D+01
 Number of N-2 electron functions:      61
 Number of N-1 electron functions:     134

 Number of internal configurations:                    4
 Number of singly external configurations:          3008
 Number of doubly external configurations:        116796
 Total number of contracted configurations:       119808
 Total number of uncontracted configurations:     364944

 Diagonal Coupling coefficients finished.               Storage:    9329 words, CPU-Time:      0.00 seconds.
 Energy denominators for pairs finished in 1 passes.    Storage:   74281 words, CPU-time:      0.01 seconds.

  ITER. STATE  ROOT     SQ.NORM     CORR.ENERGY   TOTAL ENERGY   ENERGY CHANGE       DEN1      VAR(S)    VAR(P)      TIME
    1     1     1     1.00000000     0.00000000  -151.91916701     0.00000000    -0.51522146  0.35D-01  0.63D-01     0.16
    2     1     1     1.07746071    -0.45733365  -152.37650066    -0.45733365    -0.01046580  0.25D-02  0.14D-02     0.53
    3     1     1     1.06008660    -0.46714451  -152.38631152    -0.00981086    -0.00009528  0.95D-05  0.13D-04     0.89
    4     1     1     1.05956315    -0.46724171  -152.38640871    -0.00009720    -0.00000164  0.45D-06  0.18D-06     1.24
    5     1     1     1.05962124    -0.46724343  -152.38641044    -0.00000173    -0.00000004  0.73D-08  0.62D-08     1.60
    6     1     1     1.05962185    -0.46724348  -152.38641049    -0.00000004    -0.00000000  0.33D-09  0.19D-09     1.95


 =====================================
 Analysis of CPU times by interactions
 =====================================

       I      S      P

 I   0.5%
 S   0.0%   3.6%
 P   0.0%   1.5%  12.3%

 Initialization:   7.7%
 Other:           74.4%

 Total CPU:        1.9 seconds
 =====================================



 Reference coefficients greater than 0.0500000
 =============================================
 22222/2/           0.9714571



 RESULTS FOR STATE 1.7
 =====================

 Coefficient of reference function:   C(0) = 0.97145706 (fixed)   0.97145706 (relaxed)

 Energy contributions of configuration classes

 CLASS          SQ.NORM        ECORR1        ECORR2
 +++++++++++++++++++++++++++++++++++++++++++++++++++
 Internals    0.00000431   -0.00004112   -0.00004071
 Singles      0.01711994   -0.04099878   -0.04624160
 Pairs        0.04250217   -0.42620358   -0.42096117
 Total        1.05962642   -0.46724348   -0.46724348
 +++++++++++++++++++++++++++++++++++++++++++++++++++


 Reference energy                    -151.91916701
 Nuclear energy                         0.00000000
 Kinetic energy                       120.00177915
 One electron energy                 -241.07815270
 Two electron energy                   88.69174221
 Virial quotient                       -1.26986793
 Correlation energy                    -0.46724348
 !CI(SD) STATE 1.7 Energy            -152.386410486005

 Properties without orbital relaxation:

 !CI(SD) STATE 1.7 Dipole moment        0.00000000     0.00000000     0.00000000
 Dipole moment /Debye                   0.00000000     0.00000000     0.00000000

 Cluster corrected energies          -152.41427054 (Davidson, fixed reference)
 Cluster corrected energies          -152.41427054 (Davidson, relaxed reference)

 Cluster corrected energies          -152.41057536 (Pople, fixed reference)
 Cluster corrected energies          -152.41057536 (Pople, relaxed reference)

 

 !CI(SD) expec       <1.7|EKIN|1.7>   120.001779147939
 
 !CI(SD) expec        <1.7|POT|1.7>   -26.340529671076


 **********************************************************************************************************************************
 DATASETS  * FILE   NREC   LENGTH (MB)   RECORD NAMES
              1      21       90.42       500      610      700      900      950      970     1000      129      960     1100   
                                          VAR    BASINP    GEOM    SYMINP    ZMAT    AOBASIS   BASIS     P2S    ABASIS      S 
                                         1400     1410     1420     1200     1210     1080     1600     1650     1300     1700   
                                         EKIN       V       ECP      H0       H01     AOSYM     SMH    MOLCAS    ERIS     OPER   
                                         1380   
                                         JKOP   

              2       4        2.91       700     1000      520     2100   
                                         GEOM     BASIS   MCVARS     RHF  

 PROGRAMS   *        TOTAL        CI        HF       INT
 CPU TIMES  *        10.24      2.01      0.81      7.27
 REAL TIME  *        57.80 SEC
 DISK USED  *       286.81 MB      
 **********************************************************************************************************************************
 SETTING POSTHF(I)      =      -152.38641049  AU                              
                                                                                                                                                                                                                                                                

         SCF            POSTHF        EKIN          POT
    -151.9191670   -152.3864105   120.0017791   -26.34052967
                                                  

 CI/USERDEF energy=   -152.386410486005

        CI              HF-SCF  
   -152.38641049   -151.91916701
 **********************************************************************************************************************************
 Molpro calculation terminated
 Variable memory released
