
 Primary working directories    : /global/cscratch1/sd/aannabe
 Secondary working directories  : /global/cscratch1/sd/aannabe
 Wavefunction directory         : /global/homes/a/aannabe/wfu/
 Main file repository           : /global/cscratch1/sd/aannabe/

 SHA1      : 19cd028119e0e09f93f0674bd8af7968d9b3eff6
 NAME      : 2015.1.36
 ARCHNAME  : linux/x86_64
 FC        : /opt/cray/pe/craype/2.5.14/bin/ftn
 BLASLIB   : -L/opt/intel/compilers_and_libraries_2018.1.163/linux/mkl/lib/intel64 -Wl,-_start-group -lmkl_intel_ilp64 -lmkl_intel_thread -lmkl_core -Wl,-_end-group -liomp5
 id        : lbl

 Nodes     nprocs
 nid00473     1

 Using customized tuning parameters: mindgm=7; mindgv=16; mindgc=1; mindgr=1; noblas=0; minvec=7
 default implementation of scratch files=df  

 ***,S
 memory,512,m
 gthresh,twoint=1.e-12
 
 gprint,basis,orbitals
 gexpec,ekin,pot
 
 angstrom
 geometry={
 1                                                                               ! Number of atoms
 S 0.0 0.0 0.0
 }
 
 basis={
 Including file /global/homes/a/aannabe/repos/pseudopotentiallibrary/recipes/S/ccECP_He_core/S.ccECP.molpro
 Including file /global/homes/a/aannabe/repos/pseudopotentiallibrary/recipes/S/ccECP_He_core/cc-pCV6Z.molpro
 }
 
 {hf
  wf,14,7,2
  occ,2,2,2,0,2,0,0,0
  closed,2,2,1,0,1,0,0,0
                                                                                 !open,2.3,2.5
 }
 scf(i)=energy
 
 _CC_NORM_MAX=2.0
 {ci
 maxit,100
 core
 }
 posthf(i)=energy
 
 table,scf,posthf,ekin,pot
 save,6.csv,new
 
 

 Variables initialized (889), CPU time= 0.01 sec
 Commands  initialized (702), CPU time= 0.01 sec, 572 directives.
 Default parameters read. Elapsed time= 0.17 sec

 Checking input...
 Passed
1


                                         ***  PROGRAM SYSTEM MOLPRO  ***
                                       Copyright, TTI GmbH Stuttgart, 2015
                                    Version 2015.1 linked Dec 29 2018 15:55:43


 **********************************************************************************************************************************
 LABEL *   S                                                                             
  64 bit serial version                                                                  DATE: 03-Jan-19          TIME: 19:59:12  
 **********************************************************************************************************************************

 SHA1:             19cd028119e0e09f93f0674bd8af7968d9b3eff6
 **********************************************************************************************************************************

 THRESHOLDS:

 ZERO    =  1.00D-12  ONEINT  =  1.00D-12  TWOINT  =  1.00D-12  PREFAC  =  1.00D-14  LOCALI  =  1.00D-09  EORDER  =  1.00D-04
 ENERGY  =  0.00D+00  ETEST   =  0.00D+00  EDENS   =  0.00D+00  THRDEDEF=  1.00D-06  GRADIENT=  1.00D-02  STEP    =  1.00D-03
 ORBITAL =  1.00D-05  CIVEC   =  1.00D-05  COEFF   =  1.00D-04  PRINTCI =  5.00D-02  PUNCHCI =  9.90D+01  OPTGRAD =  3.00D-04
 OPTENERG=  1.00D-06  OPTSTEP =  3.00D-04  THRGRAD =  1.00D-10  COMPRESS=  1.00D-11  VARMIN  =  1.00D-07  VARMAX  =  1.00D-03
 THRDOUB =  0.00D+00  THRDIV  =  1.00D-05  THRRED  =  1.00D-07  THRPSP  =  1.00D+00  THRDC   =  1.00D-10  THRCS   =  1.00D-10
 THRNRM  =  1.00D-08  THREQ   =  0.00D+00  THRDE   =  1.00D+00  THRREF  =  1.00D-05  SPARFAC =  1.00D+00  THRDLP  =  1.00D-07
 THRDIA  =  1.00D-10  THRDLS  =  1.00D-07  THRGPS  =  0.00D+00  THRKEX  =  0.00D+00  THRDIS  =  2.00D-01  THRVAR  =  1.00D-10
 THRLOC  =  1.00D-06  THRGAP  =  1.00D-06  THRLOCT = -1.00D+00  THRGAPT = -1.00D+00  THRORB  =  1.00D-06  THRMLTP =  0.00D+00
 THRCPQCI=  1.00D-10  KEXTA   =  0.00D+00  THRCOARS=  0.00D+00  SYMTOL  =  1.00D-06  GRADTOL =  1.00D-06  THROVL  =  1.00D-08
 THRORTH =  1.00D-08  GRID    =  1.00D-06  GRIDMAX =  1.00D-03  DTMAX   =  0.00D+00  THROCCDE=  1.00D-01  THROCCDE=  1.00D-01



 ZUNIT=ANG
 

Geometry recognized as XYZ


 Variable memory set to  512000000 words,  buffer space   230000 words

 SETTING BASIS          =    USERDEF


 Recomputing integrals since basis changed


 Using spherical harmonics



 PROGRAM * SEWARD (Integral evaluation for generally contracted gaussian basis sets)     Author: Roland Lindh, 1990

 Geometry written to block  1 of record 700

 Orientation using atomic masses  
 Molecule type: Atom
 Symmetry elements: X,Y,Z
 Rotational constants:       0.0000000      0.0000000      0.0000000 GHz  (calculated with average atomic masses)

 Point group  D2h 



 ATOMIC COORDINATES

 NR  ATOM    CHARGE       X              Y              Z

   1  S       6.00    0.000000000    0.000000000    0.000000000


          S   CORE POTENTIAL

          d POTENTIAL

 POWERS             1              3              2              1              1
 EXPONENTIALS   17.97761       20.43596       19.79658       0.000000       0.000000    
 COEFFICIENTS   14.00000       251.6866      -135.5389       6.000000      -14.00000    

          s - d POTENTIAL

 POWERS             2              2
 EXPONENTIALS   111.9363       43.94184    
 COEFFICIENTS   25.24328       227.0608    

          p - d POTENTIAL

 POWERS             2
 EXPONENTIALS   1.000000    
 COEFFICIENTS   0.000000    


 BASIS DATA

   Nr Sym  Nuc  Type         Exponents   Contraction coefficients

    1.1 Ag    1  1s         306.317903     0.000064    0.000021
    2.1 Ag                  146.602801    -0.000785   -0.000004
                             70.163647     0.022471   -0.006119
                             33.580104    -0.169871    0.054471
                             16.071334    -0.061897    0.019344
                              7.691691     0.240039   -0.083839
                              3.681219     0.551649   -0.265322
                              1.761820     0.334386   -0.293065
                              0.843202     0.031323    0.113730
                              0.403554     0.004436    0.529282
                              0.193140    -0.001015    0.466254
                              0.092436     0.000507    0.125800
    3.1 Ag    1  1s           0.109405     1.000000
    4.1 Ag    1  1s           0.224864     1.000000
    5.1 Ag    1  1s           0.462172     1.000000
    6.1 Ag    1  1s           0.949921     1.000000
    7.1 Ag    1  1s           1.952410     1.000000
    8.1 Ag    1  1s           3.008715     1.000000
    9.1 Ag    1  1s           5.877802     1.000000
   10.1 Ag    1  1s          11.482826     1.000000
   11.1 Ag    1  1s          22.432757     1.000000
   12.1 Ag    1  1s          43.824455     1.000000
   13.1 Ag    1  3d0          0.179981     1.000000
   14.1 Ag    1  3d2+         0.179981     1.000000
   15.1 Ag    1  3d0          0.416231     1.000000
   16.1 Ag    1  3d2+         0.416231     1.000000
   17.1 Ag    1  3d0          0.962592     1.000000
   18.1 Ag    1  3d2+         0.962592     1.000000
   19.1 Ag    1  3d0          2.226128     1.000000
   20.1 Ag    1  3d2+         2.226128     1.000000
   21.1 Ag    1  3d0          5.148231     1.000000
   22.1 Ag    1  3d2+         5.148231     1.000000
   23.1 Ag    1  3d0          5.964940     1.000000
   24.1 Ag    1  3d2+         5.964940     1.000000
   25.1 Ag    1  3d0         10.412411     1.000000
   26.1 Ag    1  3d2+        10.412411     1.000000
   27.1 Ag    1  3d0         18.175926     1.000000
   28.1 Ag    1  3d2+        18.175926     1.000000
   29.1 Ag    1  3d0         31.727932     1.000000
   30.1 Ag    1  3d2+        31.727932     1.000000
   31.1 Ag    1  3d0         55.384342     1.000000
   32.1 Ag    1  3d2+        55.384342     1.000000
   33.1 Ag    1  5g0          0.376899     1.000000
   34.1 Ag    1  5g4+         0.376899     1.000000
   35.1 Ag    1  5g2+         0.376899     1.000000
   36.1 Ag    1  5g0          0.674898     1.000000
   37.1 Ag    1  5g4+         0.674898     1.000000
   38.1 Ag    1  5g2+         0.674898     1.000000
   39.1 Ag    1  5g0          1.208511     1.000000
   40.1 Ag    1  5g4+         1.208511     1.000000
   41.1 Ag    1  5g2+         1.208511     1.000000
   42.1 Ag    1  5g0          5.674552     1.000000
   43.1 Ag    1  5g4+         5.674552     1.000000
   44.1 Ag    1  5g2+         5.674552     1.000000
   45.1 Ag    1  5g0         12.705617     1.000000
   46.1 Ag    1  5g4+        12.705617     1.000000
   47.1 Ag    1  5g2+        12.705617     1.000000
   48.1 Ag    1  5g0         28.448537     1.000000
   49.1 Ag    1  5g4+        28.448537     1.000000
   50.1 Ag    1  5g2+        28.448537     1.000000
   51.1 Ag    1  7i6+         1.020026     1.000000
   52.1 Ag    1  7i4+         1.020026     1.000000
   53.1 Ag    1  7i2+         1.020026     1.000000
   54.1 Ag    1  7i0          1.020026     1.000000
   55.1 Ag    1  7i6+        18.196038     1.000000
   56.1 Ag    1  7i4+        18.196038     1.000000
   57.1 Ag    1  7i2+        18.196038     1.000000
   58.1 Ag    1  7i0         18.196038     1.000000
    1.2 B3u   1  2px         55.148271     0.013447    0.003542
    2.2 B3u                  29.056588     0.101670    0.025797
                             15.309371     0.185192    0.047260
                              8.066220     0.275836    0.075594
                              4.249940     0.317073    0.091980
                              2.239213     0.217066    0.062067
                              1.179799     0.065765   -0.071253
                              0.621614     0.006517   -0.250206
                              0.327517     0.001111   -0.349295
                              0.172562     0.000222   -0.312700
                              0.090920     0.000181   -0.155898
                              0.047904     0.000008   -0.030418
    3.2 B3u   1  2px          0.219715     1.000000
    4.2 B3u   1  2px          0.446595     1.000000
    5.2 B3u   1  2px          0.907752     1.000000
    6.2 B3u   1  2px          1.845106     1.000000
    7.2 B3u   1  2px          3.750378     1.000000
    8.2 B3u   1  2px          5.177511     1.000000
    9.2 B3u   1  2px         10.004297     1.000000
   10.2 B3u   1  2px         19.330904     1.000000
   11.2 B3u   1  2px         37.352332     1.000000
   12.2 B3u   1  2px         72.174417     1.000000
   13.2 B3u   1  4f1+         0.242907     1.000000
   14.2 B3u   1  4f3+         0.242907     1.000000
   15.2 B3u   1  4f1+         0.504929     1.000000
   16.2 B3u   1  4f3+         0.504929     1.000000
   17.2 B3u   1  4f1+         1.049594     1.000000
   18.2 B3u   1  4f3+         1.049594     1.000000
   19.2 B3u   1  4f1+         2.181784     1.000000
   20.2 B3u   1  4f3+         2.181784     1.000000
   21.2 B3u   1  4f1+         5.558514     1.000000
   22.2 B3u   1  4f3+         5.558514     1.000000
   23.2 B3u   1  4f1+        11.006408     1.000000
   24.2 B3u   1  4f3+        11.006408     1.000000
   25.2 B3u   1  4f1+        21.793778     1.000000
   26.2 B3u   1  4f3+        21.793778     1.000000
   27.2 B3u   1  4f1+        43.153837     1.000000
   28.2 B3u   1  4f3+        43.153837     1.000000
   29.2 B3u   1  6h1+         0.648506     1.000000
   30.2 B3u   1  6h3+         0.648506     1.000000
   31.2 B3u   1  6h5+         0.648506     1.000000
   32.2 B3u   1  6h1+         1.212464     1.000000
   33.2 B3u   1  6h3+         1.212464     1.000000
   34.2 B3u   1  6h5+         1.212464     1.000000
   35.2 B3u   1  6h1+        10.866625     1.000000
   36.2 B3u   1  6h3+        10.866625     1.000000
   37.2 B3u   1  6h5+        10.866625     1.000000
   38.2 B3u   1  6h1+        25.324387     1.000000
   39.2 B3u   1  6h3+        25.324387     1.000000
   40.2 B3u   1  6h5+        25.324387     1.000000
    1.3 B2u   1  2py         55.148271     0.013447    0.003542
    2.3 B2u                  29.056588     0.101670    0.025797
                             15.309371     0.185192    0.047260
                              8.066220     0.275836    0.075594
                              4.249940     0.317073    0.091980
                              2.239213     0.217066    0.062067
                              1.179799     0.065765   -0.071253
                              0.621614     0.006517   -0.250206
                              0.327517     0.001111   -0.349295
                              0.172562     0.000222   -0.312700
                              0.090920     0.000181   -0.155898
                              0.047904     0.000008   -0.030418
    3.3 B2u   1  2py          0.219715     1.000000
    4.3 B2u   1  2py          0.446595     1.000000
    5.3 B2u   1  2py          0.907752     1.000000
    6.3 B2u   1  2py          1.845106     1.000000
    7.3 B2u   1  2py          3.750378     1.000000
    8.3 B2u   1  2py          5.177511     1.000000
    9.3 B2u   1  2py         10.004297     1.000000
   10.3 B2u   1  2py         19.330904     1.000000
   11.3 B2u   1  2py         37.352332     1.000000
   12.3 B2u   1  2py         72.174417     1.000000
   13.3 B2u   1  4f1-         0.242907     1.000000
   14.3 B2u   1  4f3-         0.242907     1.000000
   15.3 B2u   1  4f1-         0.504929     1.000000
   16.3 B2u   1  4f3-         0.504929     1.000000
   17.3 B2u   1  4f1-         1.049594     1.000000
   18.3 B2u   1  4f3-         1.049594     1.000000
   19.3 B2u   1  4f1-         2.181784     1.000000
   20.3 B2u   1  4f3-         2.181784     1.000000
   21.3 B2u   1  4f1-         5.558514     1.000000
   22.3 B2u   1  4f3-         5.558514     1.000000
   23.3 B2u   1  4f1-        11.006408     1.000000
   24.3 B2u   1  4f3-        11.006408     1.000000
   25.3 B2u   1  4f1-        21.793778     1.000000
   26.3 B2u   1  4f3-        21.793778     1.000000
   27.3 B2u   1  4f1-        43.153837     1.000000
   28.3 B2u   1  4f3-        43.153837     1.000000
   29.3 B2u   1  6h1-         0.648506     1.000000
   30.3 B2u   1  6h3-         0.648506     1.000000
   31.3 B2u   1  6h5-         0.648506     1.000000
   32.3 B2u   1  6h1-         1.212464     1.000000
   33.3 B2u   1  6h3-         1.212464     1.000000
   34.3 B2u   1  6h5-         1.212464     1.000000
   35.3 B2u   1  6h1-        10.866625     1.000000
   36.3 B2u   1  6h3-        10.866625     1.000000
   37.3 B2u   1  6h5-        10.866625     1.000000
   38.3 B2u   1  6h1-        25.324387     1.000000
   39.3 B2u   1  6h3-        25.324387     1.000000
   40.3 B2u   1  6h5-        25.324387     1.000000
    1.4 B1g   1  3d2-         0.179981     1.000000
    2.4 B1g   1  3d2-         0.416231     1.000000
    3.4 B1g   1  3d2-         0.962592     1.000000
    4.4 B1g   1  3d2-         2.226128     1.000000
    5.4 B1g   1  3d2-         5.148231     1.000000
    6.4 B1g   1  3d2-         5.964940     1.000000
    7.4 B1g   1  3d2-        10.412411     1.000000
    8.4 B1g   1  3d2-        18.175926     1.000000
    9.4 B1g   1  3d2-        31.727932     1.000000
   10.4 B1g   1  3d2-        55.384342     1.000000
   11.4 B1g   1  5g2-         0.376899     1.000000
   12.4 B1g   1  5g4-         0.376899     1.000000
   13.4 B1g   1  5g2-         0.674898     1.000000
   14.4 B1g   1  5g4-         0.674898     1.000000
   15.4 B1g   1  5g2-         1.208511     1.000000
   16.4 B1g   1  5g4-         1.208511     1.000000
   17.4 B1g   1  5g2-         5.674552     1.000000
   18.4 B1g   1  5g4-         5.674552     1.000000
   19.4 B1g   1  5g2-        12.705617     1.000000
   20.4 B1g   1  5g4-        12.705617     1.000000
   21.4 B1g   1  5g2-        28.448537     1.000000
   22.4 B1g   1  5g4-        28.448537     1.000000
   23.4 B1g   1  7i2-         1.020026     1.000000
   24.4 B1g   1  7i6-         1.020026     1.000000
   25.4 B1g   1  7i4-         1.020026     1.000000
   26.4 B1g   1  7i2-        18.196038     1.000000
   27.4 B1g   1  7i6-        18.196038     1.000000
   28.4 B1g   1  7i4-        18.196038     1.000000
    1.5 B1u   1  2pz         55.148271     0.013447    0.003542
    2.5 B1u                  29.056588     0.101670    0.025797
                             15.309371     0.185192    0.047260
                              8.066220     0.275836    0.075594
                              4.249940     0.317073    0.091980
                              2.239213     0.217066    0.062067
                              1.179799     0.065765   -0.071253
                              0.621614     0.006517   -0.250206
                              0.327517     0.001111   -0.349295
                              0.172562     0.000222   -0.312700
                              0.090920     0.000181   -0.155898
                              0.047904     0.000008   -0.030418
    3.5 B1u   1  2pz          0.219715     1.000000
    4.5 B1u   1  2pz          0.446595     1.000000
    5.5 B1u   1  2pz          0.907752     1.000000
    6.5 B1u   1  2pz          1.845106     1.000000
    7.5 B1u   1  2pz          3.750378     1.000000
    8.5 B1u   1  2pz          5.177511     1.000000
    9.5 B1u   1  2pz         10.004297     1.000000
   10.5 B1u   1  2pz         19.330904     1.000000
   11.5 B1u   1  2pz         37.352332     1.000000
   12.5 B1u   1  2pz         72.174417     1.000000
   13.5 B1u   1  4f0          0.242907     1.000000
   14.5 B1u   1  4f2+         0.242907     1.000000
   15.5 B1u   1  4f0          0.504929     1.000000
   16.5 B1u   1  4f2+         0.504929     1.000000
   17.5 B1u   1  4f0          1.049594     1.000000
   18.5 B1u   1  4f2+         1.049594     1.000000
   19.5 B1u   1  4f0          2.181784     1.000000
   20.5 B1u   1  4f2+         2.181784     1.000000
   21.5 B1u   1  4f0          5.558514     1.000000
   22.5 B1u   1  4f2+         5.558514     1.000000
   23.5 B1u   1  4f0         11.006408     1.000000
   24.5 B1u   1  4f2+        11.006408     1.000000
   25.5 B1u   1  4f0         21.793778     1.000000
   26.5 B1u   1  4f2+        21.793778     1.000000
   27.5 B1u   1  4f0         43.153837     1.000000
   28.5 B1u   1  4f2+        43.153837     1.000000
   29.5 B1u   1  6h2+         0.648506     1.000000
   30.5 B1u   1  6h4+         0.648506     1.000000
   31.5 B1u   1  6h0          0.648506     1.000000
   32.5 B1u   1  6h2+         1.212464     1.000000
   33.5 B1u   1  6h4+         1.212464     1.000000
   34.5 B1u   1  6h0          1.212464     1.000000
   35.5 B1u   1  6h2+        10.866625     1.000000
   36.5 B1u   1  6h4+        10.866625     1.000000
   37.5 B1u   1  6h0         10.866625     1.000000
   38.5 B1u   1  6h2+        25.324387     1.000000
   39.5 B1u   1  6h4+        25.324387     1.000000
   40.5 B1u   1  6h0         25.324387     1.000000
    1.6 B2g   1  3d1+         0.179981     1.000000
    2.6 B2g   1  3d1+         0.416231     1.000000
    3.6 B2g   1  3d1+         0.962592     1.000000
    4.6 B2g   1  3d1+         2.226128     1.000000
    5.6 B2g   1  3d1+         5.148231     1.000000
    6.6 B2g   1  3d1+         5.964940     1.000000
    7.6 B2g   1  3d1+        10.412411     1.000000
    8.6 B2g   1  3d1+        18.175926     1.000000
    9.6 B2g   1  3d1+        31.727932     1.000000
   10.6 B2g   1  3d1+        55.384342     1.000000
   11.6 B2g   1  5g1+         0.376899     1.000000
   12.6 B2g   1  5g3+         0.376899     1.000000
   13.6 B2g   1  5g1+         0.674898     1.000000
   14.6 B2g   1  5g3+         0.674898     1.000000
   15.6 B2g   1  5g1+         1.208511     1.000000
   16.6 B2g   1  5g3+         1.208511     1.000000
   17.6 B2g   1  5g1+         5.674552     1.000000
   18.6 B2g   1  5g3+         5.674552     1.000000
   19.6 B2g   1  5g1+        12.705617     1.000000
   20.6 B2g   1  5g3+        12.705617     1.000000
   21.6 B2g   1  5g1+        28.448537     1.000000
   22.6 B2g   1  5g3+        28.448537     1.000000
   23.6 B2g   1  7i5+         1.020026     1.000000
   24.6 B2g   1  7i3+         1.020026     1.000000
   25.6 B2g   1  7i1+         1.020026     1.000000
   26.6 B2g   1  7i5+        18.196038     1.000000
   27.6 B2g   1  7i3+        18.196038     1.000000
   28.6 B2g   1  7i1+        18.196038     1.000000
    1.7 B3g   1  3d1-         0.179981     1.000000
    2.7 B3g   1  3d1-         0.416231     1.000000
    3.7 B3g   1  3d1-         0.962592     1.000000
    4.7 B3g   1  3d1-         2.226128     1.000000
    5.7 B3g   1  3d1-         5.148231     1.000000
    6.7 B3g   1  3d1-         5.964940     1.000000
    7.7 B3g   1  3d1-        10.412411     1.000000
    8.7 B3g   1  3d1-        18.175926     1.000000
    9.7 B3g   1  3d1-        31.727932     1.000000
   10.7 B3g   1  3d1-        55.384342     1.000000
   11.7 B3g   1  5g1-         0.376899     1.000000
   12.7 B3g   1  5g3-         0.376899     1.000000
   13.7 B3g   1  5g1-         0.674898     1.000000
   14.7 B3g   1  5g3-         0.674898     1.000000
   15.7 B3g   1  5g1-         1.208511     1.000000
   16.7 B3g   1  5g3-         1.208511     1.000000
   17.7 B3g   1  5g1-         5.674552     1.000000
   18.7 B3g   1  5g3-         5.674552     1.000000
   19.7 B3g   1  5g1-        12.705617     1.000000
   20.7 B3g   1  5g3-        12.705617     1.000000
   21.7 B3g   1  5g1-        28.448537     1.000000
   22.7 B3g   1  5g3-        28.448537     1.000000
   23.7 B3g   1  7i5-         1.020026     1.000000
   24.7 B3g   1  7i3-         1.020026     1.000000
   25.7 B3g   1  7i1-         1.020026     1.000000
   26.7 B3g   1  7i5-        18.196038     1.000000
   27.7 B3g   1  7i3-        18.196038     1.000000
   28.7 B3g   1  7i1-        18.196038     1.000000
    1.8 Au    1  4f2-         0.242907     1.000000
    2.8 Au    1  4f2-         0.504929     1.000000
    3.8 Au    1  4f2-         1.049594     1.000000
    4.8 Au    1  4f2-         2.181784     1.000000
    5.8 Au    1  4f2-         5.558514     1.000000
    6.8 Au    1  4f2-        11.006408     1.000000
    7.8 Au    1  4f2-        21.793778     1.000000
    8.8 Au    1  4f2-        43.153837     1.000000
    9.8 Au    1  6h4-         0.648506     1.000000
   10.8 Au    1  6h2-         0.648506     1.000000
   11.8 Au    1  6h4-         1.212464     1.000000
   12.8 Au    1  6h2-         1.212464     1.000000
   13.8 Au    1  6h4-        10.866625     1.000000
   14.8 Au    1  6h2-        10.866625     1.000000
   15.8 Au    1  6h4-        25.324387     1.000000
   16.8 Au    1  6h2-        25.324387     1.000000

 NUCLEAR CHARGE:                    6
 NUMBER OF PRIMITIVE AOS:         458
 NUMBER OF SYMMETRY AOS:          318
 NUMBER OF CONTRACTIONS:          278   (  58Ag  +  40B3u +  40B2u +  28B1g +  40B1u +  28B2g +  28B3g +  16Au  )
 NUMBER OF CORE ORBITALS:           0   (   0Ag  +   0B3u +   0B2u +   0B1g +   0B1u +   0B2g +   0B3g +   0Au  )
 NUMBER OF VALENCE ORBITALS:        4   (   1Ag  +   1B3u +   1B2u +   0B1g +   1B1u +   0B2g +   0B3g +   0Au  )


 NUCLEAR REPULSION ENERGY    0.00000000

 EXTRA SYMMETRY OF AOS IN SYMMETRY 1:   1 1 1 1 1 1 1 1 1 1   1 1 2 3 2 3 2 3 2 3   2 3 2 3 2 3 2 3 2 3   2 3 4 5 6 4 5 6 4 5
                                        6 4 5 6 4 5 6 4 5 6   7 8 910 7 8 910
 EXTRA SYMMETRY OF AOS IN SYMMETRY 2:   1 1 1 1 1 1 1 1 1 1   1 1 2 3 2 3 2 3 2 3   2 3 2 3 2 3 2 3 4 5   6 4 5 6 4 5 6 4 5 6
 EXTRA SYMMETRY OF AOS IN SYMMETRY 3:   1 1 1 1 1 1 1 1 1 1   1 1 2 3 2 3 2 3 2 3   2 3 2 3 2 3 2 3 4 5   6 4 5 6 4 5 6 4 5 6
 EXTRA SYMMETRY OF AOS IN SYMMETRY 4:   1 1 1 1 1 1 1 1 1 1   2 3 2 3 2 3 2 3 2 3   2 3 4 5 6 4 5 6
 EXTRA SYMMETRY OF AOS IN SYMMETRY 5:   1 1 1 1 1 1 1 1 1 1   1 1 2 3 2 3 2 3 2 3   2 3 2 3 2 3 2 3 4 5   6 4 5 6 4 5 6 4 5 6
 EXTRA SYMMETRY OF AOS IN SYMMETRY 6:   1 1 1 1 1 1 1 1 1 1   2 3 2 3 2 3 2 3 2 3   2 3 4 5 6 4 5 6
 EXTRA SYMMETRY OF AOS IN SYMMETRY 7:   1 1 1 1 1 1 1 1 1 1   2 3 2 3 2 3 2 3 2 3   2 3 4 5 6 4 5 6
 EXTRA SYMMETRY OF AOS IN SYMMETRY 8:   1 1 1 1 1 1 1 1 2 3   2 3 2 3 2 3

 Eigenvalues of metric

         1 0.127E-05 0.759E-05 0.741E-04 0.741E-04 0.813E-04 0.777E-03 0.267E-02 0.267E-02
         2 0.416E-06 0.169E-03 0.208E-02 0.465E-02 0.114E-01 0.194E-01 0.194E-01 0.326E-01
         3 0.416E-06 0.169E-03 0.208E-02 0.465E-02 0.114E-01 0.194E-01 0.194E-01 0.326E-01
         4 0.741E-04 0.267E-02 0.214E-01 0.510E-01 0.581E-01 0.581E-01 0.160E+00 0.173E+00
         5 0.416E-06 0.169E-03 0.208E-02 0.465E-02 0.114E-01 0.194E-01 0.194E-01 0.326E-01
         6 0.741E-04 0.267E-02 0.214E-01 0.510E-01 0.581E-01 0.581E-01 0.160E+00 0.173E+00
         7 0.741E-04 0.267E-02 0.214E-01 0.510E-01 0.581E-01 0.581E-01 0.160E+00 0.173E+00
         8 0.194E-01 0.462E-01 0.150E+00 0.267E+00 0.267E+00 0.322E+00 0.432E+00 0.432E+00


 Contracted 2-electron integrals neglected if value below      1.0D-13
 AO integral compression algorithm  1   Integral accuracy      1.0D-13

     621.806 MB (compressed) written to integral file ( 51.7%)


 NUMBER OF SORTED TWO-ELECTRON INTEGRALS:   95770403.     BUFFER LENGTH:  32768
 NUMBER OF SEGMENTS:   6  SEGMENT LENGTH:   15998880      RECORD LENGTH: 524288

 Memory used in sort:      16.56 MW

 SORT1 READ   150490528. AND WROTE    63726408. INTEGRALS IN    185 RECORDS. CPU TIME:     4.83 SEC, REAL TIME:     6.56 SEC
 SORT2 READ    63726408. AND WROTE    95770403. INTEGRALS IN   2372 RECORDS. CPU TIME:     2.06 SEC, REAL TIME:     3.70 SEC

 FILE SIZES:   FILE 1:   643.4 MBYTE,  FILE 4:   776.0 MBYTE,   TOTAL:   1419.4 MBYTE

 OPERATOR DM      FOR CENTER  0  COORDINATES:    0.000000    0.000000    0.000000
 OPERATOR EKIN    FOR CENTER  0  COORDINATES:    0.000000    0.000000    0.000000
 OPERATOR POT     FOR CENTER  0  COORDINATES:    0.000000    0.000000    0.000000


 **********************************************************************************************************************************
 DATASETS  * FILE   NREC   LENGTH (MB)   RECORD NAMES
              1      20      417.06       500      610      700      900      950      970     1000      129      960     1100   
                                          VAR    BASINP    GEOM    SYMINP    ZMAT    AOBASIS   BASIS     P2S    ABASIS      S 
                                         1400     1410     1420     1200     1210     1080     1600     1650     1300     1700   
                                         EKIN       V       ECP      H0       H01     AOSYM     SMH    MOLCAS    ERIS     OPER   

 PROGRAMS   *        TOTAL       INT
 CPU TIMES  *        44.54     44.41
 REAL TIME  *        60.20 SEC
 DISK USED  *         1.42 GB      
 **********************************************************************************************************************************


 PROGRAM * RHF-SCF (OPEN SHELL)       Authors: W. Meyer, H.-J. Werner


 NUMBER OF ELECTRONS:       8+    6-    SPACE SYMMETRY=7    SPIN SYMMETRY: Triplet 
 CONVERGENCE THRESHOLDS:    1.00E-05 (Density)    1.00E-07 (Energy)
 MAX. NUMBER OF ITERATIONS:       60
 INTERPOLATION TYPE:            DIIS
 INTERPOLATION STEPS:              2 (START)      1 (STEP)
 LEVEL SHIFTS:                 -0.60 (CLOSED) -0.30 (OPEN) 

 Number of closed-shell orbitals:    6 (   2   2   1   0   1   0   0   0 )
 Number of open-shell orbitals:      2 (   0   0   1   0   1   0   0   0 )



   Atom=S  basis=ECP10MWB_GUESS    lmin=0  lmax=1

 Orbital guess generated from atomic densities. Full valence occupancy:    1   1   1   0   1   0   0   0


 Molecular orbital dump at record        2100.2

 ITERATION    DDIFF          GRAD             ENERGY        2-EL.EN.            DIPOLE MOMENTS         DIIS   ORB.
    1      0.000D+00      0.000D+00      -133.04691683    266.368844    0.00000    0.00000    0.00000    0    start
    2      0.000D+00      0.478D+00      -148.46246315    140.678784    0.00000    0.00000    0.00000    1    diag,B
    3      0.728D+01      0.181D+00      -151.77432121    176.108947    0.00000    0.00000    0.00000    2    diag,B
    4      0.611D+01      0.212D-01      -151.89116248    177.814883    0.00000    0.00000    0.00000    3    diag,B
    5      0.671D+00      0.586D-02      -151.91398647    178.274475    0.00000    0.00000    0.00000    4    diag,B
    6      0.317D+00      0.212D-02      -151.91875020    178.638936    0.00000    0.00000    0.00000    5    diag,B
    7      0.150D+00      0.557D-03      -151.91912500    178.758602    0.00000    0.00000    0.00000    6    fixocc
    8      0.233D-01      0.175D-03      -151.91917467    178.761142    0.00000    0.00000    0.00000    7    diag,B
    9      0.358D-02      0.508D-04      -151.91917885    178.758531    0.00000    0.00000    0.00000    8    diag,B
   10      0.466D-02      0.966D-05      -151.91917894    178.759300    0.00000    0.00000    0.00000    9    orth
   11      0.800D-03      0.217D-05      -151.91917894    178.759786    0.00000    0.00000    0.00000    9    diag,B
   12      0.268D-03      0.470D-06      -151.91917894    178.759826    0.00000    0.00000    0.00000    9    diag,B
   13      0.145D-03      0.882D-07      -151.91917894    178.759821    0.00000    0.00000    0.00000    9    diag,B
   14      0.203D-04      0.114D-07      -151.91917894    178.759818    0.00000    0.00000    0.00000    9    diag,B
   15      0.116D-05      0.192D-08      -151.91917894    178.759818    0.00000    0.00000    0.00000    0    orth

 Final alpha occupancy:   2   2   2   0   2   0   0   0
 Final beta  occupancy:   2   2   1   0   1   0   0   0

 !RHF STATE 1.7 Energy               -151.919178939161
 Nuclear energy                         0.00000000
 One-electron energy                 -241.29908813
 Two-electron energy                   89.37990919
 Virial quotient                       -1.27010659
 !RHF STATE 1.7 Dipole moment           0.00000000     0.00000000     0.00000000
 Dipole moment /Debye                   0.00000000     0.00000000     0.00000000
 

 !RHF expec          <1.7|EKIN|1.7>   119.611362210269
 
 !RHF expec           <1.7|POT|1.7>   -26.327625017187

 ELECTRON ORBITALS
 =================


   Orb  Occ    Energy  Couls-En    Coefficients

                                   1 1s      1 1s      1 1s      1 1s      1 1s      1 1s      1 1s      1 1s      1 1s      1 1s   
                                   1 1s      1 1s      1 3d0     1 3d2+    1 3d0     1 3d2+    1 3d0     1 3d2+    1 3d0     1 3d2+ 
                                   1 3d0     1 3d2+    1 3d0     1 3d2+    1 3d0     1 3d2+    1 3d0     1 3d2+    1 3d0     1 3d2+ 
                                   1 3d0     1 3d2+    1 5g0     1 5g4+    1 5g2+    1 5g0     1 5g4+    1 5g2+    1 5g0     1 5g4+ 
                                   1 5g2+    1 5g0     1 5g4+    1 5g2+    1 5g0     1 5g4+    1 5g2+    1 5g0     1 5g4+    1 5g2+ 
                                   1 7i6+    1 7i4+    1 7i2+    1 7i0     1 7i6+    1 7i4+    1 7i2+    1 7i0  

   1.1   2    -9.0517  -34.2718  0.987992 -0.036977  0.007988  0.017284  0.019315 -0.000315 -0.003878 -0.003883 -0.000613 -0.000052
                                -0.000060  0.000050 -0.000017  0.000029 -0.000079  0.000136 -0.000004  0.000006  0.000406 -0.000702
                                 0.000283 -0.000490 -0.000134  0.000232  0.000032 -0.000055  0.000006 -0.000010  0.000001 -0.000001
                                -0.000001  0.000001  0.000000  0.000000 -0.000000 -0.000000 -0.000000  0.000000  0.000000  0.000001
                                -0.000001  0.000000  0.000000 -0.000000 -0.000000 -0.000000  0.000000  0.000000  0.000000 -0.000000
                                -0.000000  0.000000 -0.000000  0.000000  0.000000 -0.000000  0.000000 -0.000000

   2.1   2    -0.8847   -9.5170  0.027733  1.092769 -0.019801 -0.044623 -0.046194 -0.001544  0.013127  0.008773  0.002856  0.000290
                                -0.000379 -0.000179 -0.003270  0.005663  0.000272 -0.000472 -0.000397  0.000687 -0.000207  0.000358
                                -0.000168  0.000292  0.000201 -0.000347 -0.000035  0.000061  0.000017 -0.000029 -0.000004  0.000006
                                 0.000002 -0.000003 -0.000018 -0.000036  0.000027  0.000011  0.000021 -0.000016 -0.000003 -0.000007
                                 0.000005  0.000000  0.000000 -0.000000 -0.000000 -0.000000  0.000000  0.000000  0.000000 -0.000000
                                -0.000001  0.000000 -0.000000  0.000000 -0.000000  0.000000 -0.000000  0.000000

                                   1 2px     1 2px     1 2px     1 2px     1 2px     1 2px     1 2px     1 2px     1 2px     1 2px  
                                   1 2px     1 2px     1 4f1+    1 4f3+    1 4f1+    1 4f3+    1 4f1+    1 4f3+    1 4f1+    1 4f3+ 
                                   1 4f1+    1 4f3+    1 4f1+    1 4f3+    1 4f1+    1 4f3+    1 4f1+    1 4f3+    1 6h1+    1 6h3+ 
                                   1 6h5+    1 6h1+    1 6h3+    1 6h5+    1 6h1+    1 6h3+    1 6h5+    1 6h1+    1 6h3+    1 6h5+ 


   1.2   2    -6.8168  -30.9003  1.000083  0.000683 -0.000089  0.000091 -0.000852 -0.000928 -0.000528  0.000975  0.000295  0.000377
                                 0.000075  0.000017 -0.000015  0.000019 -0.000017  0.000022  0.000005 -0.000006  0.000314 -0.000405
                                 0.000146 -0.000188  0.000006 -0.000008  0.000021 -0.000027  0.000001 -0.000001 -0.000000  0.000000
                                -0.000000  0.000000 -0.000000  0.000000  0.000000 -0.000000  0.000000  0.000000 -0.000000  0.000000

   2.2   2    -0.3971   -7.6087 -0.012138  1.127225  0.071110  0.047915  0.027138 -0.008743 -0.002817 -0.009860 -0.006143 -0.004328
                                -0.001417 -0.000095 -0.003649  0.004711 -0.002155  0.002782 -0.001196  0.001544  0.000054 -0.000070
                                -0.000032  0.000041  0.000015 -0.000019 -0.000004  0.000005  0.000002 -0.000002 -0.000029  0.000031
                                -0.000042  0.000001 -0.000001  0.000002 -0.000000  0.000000 -0.000000  0.000000 -0.000000  0.000000

                                   1 2py     1 2py     1 2py     1 2py     1 2py     1 2py     1 2py     1 2py     1 2py     1 2py  
                                   1 2py     1 2py     1 4f1-    1 4f3-    1 4f1-    1 4f3-    1 4f1-    1 4f3-    1 4f1-    1 4f3- 
                                   1 4f1-    1 4f3-    1 4f1-    1 4f3-    1 4f1-    1 4f3-    1 4f1-    1 4f3-    1 6h1-    1 6h3- 
                                   1 6h5-    1 6h1-    1 6h3-    1 6h5-    1 6h1-    1 6h3-    1 6h5-    1 6h1-    1 6h3-    1 6h5- 


   1.3   2    -6.8194  -30.8874  0.997051  0.000462 -0.000046  0.000108  0.000250  0.001427  0.000169  0.000927  0.000327  0.000427
                                 0.000079  0.000015 -0.000004  0.000016 -0.000005  0.000021  0.000002 -0.000009  0.000105 -0.000406
                                 0.000049 -0.000188  0.000002 -0.000008  0.000007 -0.000027  0.000000 -0.000001 -0.000000  0.000000
                                -0.000000  0.000000 -0.000000  0.000000  0.000000 -0.000000  0.000000  0.000000 -0.000000  0.000000

   2.3   +    -0.4803   -7.8467 -0.023662  0.877000 -0.065573 -0.049597 -0.024083  0.014746  0.011978  0.015824  0.015487  0.009264
                                 0.003632  0.000118 -0.002336  0.009046 -0.001792  0.006942 -0.000880  0.003410  0.000023 -0.000089
                                -0.000018  0.000070  0.000009 -0.000033 -0.000002  0.000008  0.000001 -0.000004 -0.000027  0.000087
                                -0.000195 -0.000001  0.000002 -0.000005 -0.000000  0.000000 -0.000000  0.000000 -0.000000  0.000000

                                   1 2pz     1 2pz     1 2pz     1 2pz     1 2pz     1 2pz     1 2pz     1 2pz     1 2pz     1 2pz  
                                   1 2pz     1 2pz     1 4f0     1 4f2+    1 4f0     1 4f2+    1 4f0     1 4f2+    1 4f0     1 4f2+ 
                                   1 4f0     1 4f2+    1 4f0     1 4f2+    1 4f0     1 4f2+    1 4f0     1 4f2+    1 6h2+    1 6h4+ 
                                   1 6h0     1 6h2+    1 6h4+    1 6h0     1 6h2+    1 6h4+    1 6h0     1 6h2+    1 6h4+    1 6h0  


   1.5   2    -6.8194  -30.8874  0.997051  0.000462 -0.000046  0.000108  0.000250  0.001427  0.000169  0.000927  0.000327  0.000427
                                 0.000079  0.000015 -0.000010  0.000013 -0.000013  0.000017  0.000005 -0.000007  0.000257 -0.000331
                                 0.000119 -0.000154  0.000005 -0.000006  0.000017 -0.000022  0.000001 -0.000001  0.000000 -0.000000
                                -0.000000 -0.000000  0.000000  0.000000 -0.000000  0.000000  0.000000 -0.000000  0.000000  0.000000

   2.5   +    -0.4803   -7.8467 -0.023662  0.877000 -0.065573 -0.049597 -0.024083  0.014746  0.011978  0.015824  0.015487  0.009264
                                 0.003632  0.000118 -0.005721  0.007386 -0.004390  0.005668 -0.002157  0.002784  0.000056 -0.000073
                                -0.000044  0.000057  0.000021 -0.000027 -0.000005  0.000006  0.000003 -0.000003  0.000142 -0.000123
                                -0.000104  0.000004 -0.000003 -0.000003  0.000000 -0.000000 -0.000000 -0.000000  0.000000  0.000000

 HOMO      2.2    -0.397148 =     -10.8070eV
 LUMO      3.1     0.168204 =       4.5771eV
 LUMO-HOMO         0.565352 =      15.3840eV


 **********************************************************************************************************************************
 DATASETS  * FILE   NREC   LENGTH (MB)   RECORD NAMES
              1      20      417.06       500      610      700      900      950      970     1000      129      960     1100   
                                          VAR    BASINP    GEOM    SYMINP    ZMAT    AOBASIS   BASIS     P2S    ABASIS      S 
                                         1400     1410     1420     1200     1210     1080     1600     1650     1300     1700   
                                         EKIN       V       ECP      H0       H01     AOSYM     SMH    MOLCAS    ERIS     OPER   

              2       4        3.11       700     1000      520     2100   
                                         GEOM     BASIS   MCVARS     RHF  

 PROGRAMS   *        TOTAL        HF       INT
 CPU TIMES  *        48.74      4.20     44.41
 REAL TIME  *        65.23 SEC
 DISK USED  *         1.42 GB      
 **********************************************************************************************************************************
 SETTING SCF(I)         =      -151.91917894  AU                              
 SETTING _CC_NORM_MAX   =         2.00000000                                  


 PROGRAM * CI (Multireference internally contracted CI)     Authors: H.-J. Werner, P.J. Knowles, 1987


 Convergence thresholds:  THRVAR = 1.00D-08  THRDEN = 1.00D-06

 Number of optimized states:  1  Roots:   1
 Number of reference states:  1  Roots:   1

 Reference symmetry:                   7   Triplet 
 Number of electrons:                 14
 Maximum number of shells:             3
 Maximum number of spin couplings:     9

 Reference space:        1 conf        1 CSFs
 N elec internal:       28 conf       28 CSFs
 N-1 el internal:       62 conf      134 CSFs
 N-2 el internal:       34 conf      190 CSFs

 Number of electrons in valence space:                     14
 Maximum number of open shell orbitals in reference space:  2
 Maximum number of open shell orbitals in internal spaces:  6


 Number of closed-shell orbitals:   6 (   2   2   1   0   1   0   0   0 )
 Number of active  orbitals:        2 (   0   0   1   0   1   0   0   0 )
 Number of external orbitals:     270 (  56  38  38  28  38  28  28  16 )

 Molecular orbitals read from record     2100.2  Type=RHF/CANONICAL (state 1.7)

 Integral transformation finished. Total CPU:   0.86 sec, npass=  1  Memory used:   0.50 MW

 Number of p-space configurations:   1

 Reference wavefunction optimized for reference space (refopt=1)

 State     Reference Energy 
   1        -151.91917894

 Number of blocks in overlap matrix:    61   Smallest eigenvalue:  0.10D+01
 Number of N-2 electron functions:      61
 Number of N-1 electron functions:     134

 Number of internal configurations:                    4
 Number of singly external configurations:          4664
 Number of doubly external configurations:        285530
 Total number of contracted configurations:       290198
 Total number of uncontracted configurations:     891366

 Diagonal Coupling coefficients finished.               Storage:    9329 words, CPU-Time:      0.00 seconds.
 Energy denominators for pairs finished in 1 passes.    Storage:  164007 words, CPU-time:      0.00 seconds.

  ITER. STATE  ROOT     SQ.NORM     CORR.ENERGY   TOTAL ENERGY   ENERGY CHANGE       DEN1      VAR(S)    VAR(P)      TIME
    1     1     1     1.00000000     0.00000000  -151.91917894     0.00000000    -0.52043738  0.35D-01  0.62D-01     0.90
    2     1     1     1.07698204    -0.46354349  -152.38272243    -0.46354349    -0.01063038  0.25D-02  0.14D-02     2.81
    3     1     1     1.05971830    -0.47354142  -152.39272036    -0.00999793    -0.00010252  0.10D-04  0.14D-04     4.69
    4     1     1     1.05919200    -0.47364551  -152.39282445    -0.00010409    -0.00000191  0.47D-06  0.21D-06     6.63
    5     1     1     1.05925192    -0.47364751  -152.39282645    -0.00000200    -0.00000004  0.82D-08  0.67D-08     8.55
    6     1     1     1.05925331    -0.47364756  -152.39282650    -0.00000005    -0.00000000  0.33D-09  0.21D-09    10.45


 =====================================
 Analysis of CPU times by interactions
 =====================================

       I      S      P

 I   0.0%
 S   0.0%   1.8%
 P   0.1%   0.5%   5.8%

 Initialization:   8.5%
 Other:           83.3%

 Total CPU:       10.5 seconds
 =====================================



 Reference coefficients greater than 0.0500000
 =============================================
 22222/2/           0.9716261



 RESULTS FOR STATE 1.7
 =====================

 Coefficient of reference function:   C(0) = 0.97162605 (fixed)   0.97162605 (relaxed)

 Energy contributions of configuration classes

 CLASS          SQ.NORM        ECORR1        ECORR2
 +++++++++++++++++++++++++++++++++++++++++++++++++++
 Internals    0.00000431   -0.00004111   -0.00004073
 Singles      0.01694388   -0.04081868   -0.04611244
 Pairs        0.04230969   -0.43278778   -0.42749439
 Total        1.05925787   -0.47364756   -0.47364756
 +++++++++++++++++++++++++++++++++++++++++++++++++++


 Reference energy                    -151.91917894
 Nuclear energy                         0.00000000
 Kinetic energy                       120.00846278
 One electron energy                 -241.07696881
 Two electron energy                   88.68414231
 Virial quotient                       -1.26985067
 Correlation energy                    -0.47364756
 !CI(SD) STATE 1.7 Energy            -152.392826502876

 Properties without orbital relaxation:

 !CI(SD) STATE 1.7 Dipole moment        0.00000000     0.00000000     0.00000000
 Dipole moment /Debye                   0.00000000     0.00000000     0.00000000

 Cluster corrected energies          -152.42089385 (Davidson, fixed reference)
 Cluster corrected energies          -152.42089385 (Davidson, relaxed reference)

 Cluster corrected energies          -152.41716511 (Pople, fixed reference)
 Cluster corrected energies          -152.41716511 (Pople, relaxed reference)

 

 !CI(SD) expec       <1.7|EKIN|1.7>   120.008462781272
 
 !CI(SD) expec        <1.7|POT|1.7>   -26.340932111354


 **********************************************************************************************************************************
 DATASETS  * FILE   NREC   LENGTH (MB)   RECORD NAMES
              1      21      421.72       500      610      700      900      950      970     1000      129      960     1100   
                                          VAR    BASINP    GEOM    SYMINP    ZMAT    AOBASIS   BASIS     P2S    ABASIS      S 
                                         1400     1410     1420     1200     1210     1080     1600     1650     1300     1700   
                                         EKIN       V       ECP      H0       H01     AOSYM     SMH    MOLCAS    ERIS     OPER   
                                         1380   
                                         JKOP   

              2       4        3.11       700     1000      520     2100   
                                         GEOM     BASIS   MCVARS     RHF  

 PROGRAMS   *        TOTAL        CI        HF       INT
 CPU TIMES  *        59.24     10.50      4.20     44.41
 REAL TIME  *       107.60 SEC
 DISK USED  *         1.42 GB      
 **********************************************************************************************************************************
 SETTING POSTHF(I)      =      -152.39282650  AU                              
                                                                                                                                                                                                                                                                

         SCF            POSTHF        EKIN          POT
    -151.9191789   -152.3928265   120.0084628   -26.34093211
                                                  

 CI/USERDEF energy=   -152.392826502876

        CI              HF-SCF  
   -152.39282650   -151.91917894
 **********************************************************************************************************************************
 Molpro calculation terminated
 Variable memory released
