
 Primary working directories    : /global/cscratch1/sd/aannabe
 Secondary working directories  : /global/cscratch1/sd/aannabe
 Wavefunction directory         : /global/homes/a/aannabe/wfu/
 Main file repository           : /global/cscratch1/sd/aannabe/

 SHA1      : 2873118e99aab1bc19f5b6fc1784693c06d15c95
 NAME      : 2015.1.8
 ARCHNAME  : linux/x86_64
 FC        : /opt/cray/pe/craype/2.5.5/bin/ftn
 BLASLIB   : -Wl,-_start-group /opt/intel/compilers_and_libraries_2016.3.210/linux/mkl/lib/intel64/libmkl_intel_ilp64.a /opt/intel/compilers_and_libraries_2016.3.210/linux/mkl/lib/intel64/libmkl_intel_thread.a /opt/intel/compilers_and_libraries_2016.3.210/linux/mkl/lib/intel64/libmkl_core.a -Wl,-_end-group
 id        : lbl

 Nodes     nprocs
 nid00484     1

 Using customized tuning parameters: mindgm=8; mindgv=16; mindgc=4; mindgr=1; noblas=0; minvec=7
 default implementation of scratch files=df  

 ***,P
 memory,512,m
 gthresh,twoint=1.e-12
 
 gprint,basis,orbitals
 gexpec,ekin,pot
 
 angstrom
 geometry={
 1                                                                               ! Number of atoms
 P 0.0 0.0 0.0
 }
 
 basis={
 Including file /global/homes/a/aannabe/docs/totals/pps/P.pp
 Including file /global/homes/a/aannabe/docs/totals/basis/aug-cc-pVnZ/P_dz.basis
 }
 
 {hf
 wf,5,8,3
 occ,1,1,1,0,1,0,0,0
                                                                                 !open,1.3
 closed,1,0,0,0,0,0,0,0
                                                                                 !sym,
 }
 scf(i)=energy
 
 _CC_NORM_MAX=2.0
 {rccsd(t)
 maxit,100
 core
 }
 posthf(i)=energy
 
 table,scf,posthf,ekin,pot
 save,2.csv,new
 
 

 Variables initialized (889), CPU time= 0.00 sec
 Commands  initialized (702), CPU time= 0.01 sec, 572 directives.
 Default parameters read. Elapsed time= 0.21 sec

 Checking input...
 Passed
1


                                         ***  PROGRAM SYSTEM MOLPRO  ***
                                       Copyright, TTI GmbH Stuttgart, 2015
                                    Version 2015.1 linked Sep  7 2016 23:09:38


 **********************************************************************************************************************************
 LABEL *   P                                                                             
  64 bit serial version                                                                  DATE: 03-Oct-18          TIME: 11:38:00  
 **********************************************************************************************************************************

 SHA1:             2873118e99aab1bc19f5b6fc1784693c06d15c95
 **********************************************************************************************************************************

 THRESHOLDS:

 ZERO    =  1.00D-12  ONEINT  =  1.00D-12  TWOINT  =  1.00D-12  PREFAC  =  1.00D-14  LOCALI  =  1.00D-09  EORDER  =  1.00D-04
 ENERGY  =  0.00D+00  ETEST   =  0.00D+00  EDENS   =  0.00D+00  THRDEDEF=  1.00D-06  GRADIENT=  1.00D-02  STEP    =  1.00D-03
 ORBITAL =  1.00D-05  CIVEC   =  1.00D-05  COEFF   =  1.00D-04  PRINTCI =  5.00D-02  PUNCHCI =  9.90D+01  OPTGRAD =  3.00D-04
 OPTENERG=  1.00D-06  OPTSTEP =  3.00D-04  THRGRAD =  1.00D-10  COMPRESS=  1.00D-11  VARMIN  =  1.00D-07  VARMAX  =  1.00D-03
 THRDOUB =  0.00D+00  THRDIV  =  1.00D-05  THRRED  =  1.00D-07  THRPSP  =  1.00D+00  THRDC   =  1.00D-10  THRCS   =  1.00D-10
 THRNRM  =  1.00D-08  THREQ   =  0.00D+00  THRDE   =  1.00D+00  THRREF  =  1.00D-05  SPARFAC =  1.00D+00  THRDLP  =  1.00D-07
 THRDIA  =  1.00D-10  THRDLS  =  1.00D-07  THRGPS  =  0.00D+00  THRKEX  =  0.00D+00  THRDIS  =  2.00D-01  THRVAR  =  1.00D-10
 THRLOC  =  1.00D-06  THRGAP  =  1.00D-06  THRLOCT = -1.00D+00  THRGAPT = -1.00D+00  THRORB  =  1.00D-06  THRMLTP =  0.00D+00
 THRCPQCI=  1.00D-10  KEXTA   =  0.00D+00  THRCOARS=  0.00D+00  SYMTOL  =  1.00D-06  GRADTOL =  1.00D-06  THROVL  =  1.00D-08
 THRORTH =  1.00D-08  GRID    =  1.00D-06  GRIDMAX =  1.00D-03  DTMAX   =  0.00D+00  THROCCDE=  1.00D-01  THROCCDE=  1.00D-01



 ZUNIT=ANG
 

Geometry recognized as XYZ


 Variable memory set to  512000000 words,  buffer space   230000 words

 SETTING BASIS          =    USERDEF


 Recomputing integrals since basis changed


 Using spherical harmonics



 PROGRAM * SEWARD (Integral evaluation for generally contracted gaussian basis sets)     Author: Roland Lindh, 1990

 Geometry written to block  1 of record 700

 Orientation using atomic masses  
 Molecule type: Atom
 Symmetry elements: X,Y,Z
 Rotational constants:       0.0000000      0.0000000      0.0000000 GHz  (calculated with average atomic masses)

 Point group  D2h 



 ATOMIC COORDINATES

 NR  ATOM    CHARGE       X              Y              Z

   1  P       5.00    0.000000000    0.000000000    0.000000000


          P   CORE POTENTIAL

          d POTENTIAL

 POWERS             1              3              2
 EXPONENTIALS   5.872694       9.891298       4.692469    
 COEFFICIENTS   5.000000       29.36347      -17.01114    

          s - d POTENTIAL

 POWERS             2              2
 EXPONENTIALS   12.09133       3.044535    
 COEFFICIENTS   15.25938       31.70792    

          p - d POTENTIAL

 POWERS             2              2
 EXPONENTIALS   4.310884       2.426903    
 COEFFICIENTS   7.747190       13.93253    


 BASIS DATA

   Nr Sym  Nuc  Type         Exponents   Contraction coefficients

    1.1 Ag    1  1s           5.054268     0.001781
                              3.094719     0.077653
                              1.894891    -0.312344
                              1.160239    -0.045804
                              0.710412    -0.029427
                              0.434984     0.318560
                              0.266340     0.309169
                              0.163080     0.376899
                              0.099853     0.152113
                              0.061140     0.054943
    2.1 Ag    1  1s           0.423189     1.000000
    3.1 Ag    1  1s           0.090090     1.000000
    4.1 Ag    1  3d0          0.386250     1.000000
    5.1 Ag    1  3d2+         0.386250     1.000000
    6.1 Ag    1  3d0          0.127408     1.000000
    7.1 Ag    1  3d2+         0.127408     1.000000
    1.2 B3u   1  2px          5.861284    -0.003160
                              3.406365     0.007462
                              1.979655    -0.060893
                              1.150503     0.015297
                              0.668631     0.123431
                              0.388584     0.257276
                              0.225831     0.305131
                              0.131245     0.276016
                              0.076275     0.134133
                              0.044328     0.040073
    2.2 B3u   1  2px          0.392030     1.000000
    3.2 B3u   1  2px          0.243925     1.000000
    1.3 B2u   1  2py          5.861284    -0.003160
                              3.406365     0.007462
                              1.979655    -0.060893
                              1.150503     0.015297
                              0.668631     0.123431
                              0.388584     0.257276
                              0.225831     0.305131
                              0.131245     0.276016
                              0.076275     0.134133
                              0.044328     0.040073
    2.3 B2u   1  2py          0.392030     1.000000
    3.3 B2u   1  2py          0.243925     1.000000
    1.4 B1g   1  3d2-         0.386250     1.000000
    2.4 B1g   1  3d2-         0.127408     1.000000
    1.5 B1u   1  2pz          5.861284    -0.003160
                              3.406365     0.007462
                              1.979655    -0.060893
                              1.150503     0.015297
                              0.668631     0.123431
                              0.388584     0.257276
                              0.225831     0.305131
                              0.131245     0.276016
                              0.076275     0.134133
                              0.044328     0.040073
    2.5 B1u   1  2pz          0.392030     1.000000
    3.5 B1u   1  2pz          0.243925     1.000000
    1.6 B2g   1  3d1+         0.386250     1.000000
    2.6 B2g   1  3d1+         0.127408     1.000000
    1.7 B3g   1  3d1-         0.386250     1.000000
    2.7 B3g   1  3d1-         0.127408     1.000000

 NUCLEAR CHARGE:                    5
 NUMBER OF PRIMITIVE AOS:          60
 NUMBER OF SYMMETRY AOS:           58
 NUMBER OF CONTRACTIONS:           22   (   7Ag  +   3B3u +   3B2u +   2B1g +   3B1u +   2B2g +   2B3g +   0Au  )
 NUMBER OF CORE ORBITALS:           0   (   0Ag  +   0B3u +   0B2u +   0B1g +   0B1u +   0B2g +   0B3g +   0Au  )
 NUMBER OF VALENCE ORBITALS:        4   (   1Ag  +   1B3u +   1B2u +   0B1g +   1B1u +   0B2g +   0B3g +   0Au  )


 NUCLEAR REPULSION ENERGY    0.00000000

 EXTRA SYMMETRY OF AOS IN SYMMETRY 1:   1 1 1 2 3 2 3

 Eigenvalues of metric

         1 0.426E-01 0.343E+00 0.401E+00 0.401E+00 0.160E+01 0.160E+01 0.261E+01
         2 0.167E-01 0.109E+00 0.287E+01
         3 0.167E-01 0.109E+00 0.287E+01
         4 0.401E+00 0.160E+01
         5 0.167E-01 0.109E+00 0.287E+01
         6 0.401E+00 0.160E+01
         7 0.401E+00 0.160E+01


 Contracted 2-electron integrals neglected if value below      1.0D-12
 AO integral compression algorithm  1   Integral accuracy      1.0D-12

     0.262 MB (compressed) written to integral file (100.0%)


 NUMBER OF SORTED TWO-ELECTRON INTEGRALS:       5272.     BUFFER LENGTH:  32768
 NUMBER OF SEGMENTS:   1  SEGMENT LENGTH:       5272      RECORD LENGTH: 524288

 Memory used in sort:       0.56 MW

 SORT1 READ       12220. AND WROTE        4734. INTEGRALS IN      1 RECORDS. CPU TIME:     0.00 SEC, REAL TIME:     0.01 SEC
 SORT2 READ        4734. AND WROTE        5272. INTEGRALS IN      1 RECORDS. CPU TIME:     0.00 SEC, REAL TIME:     0.01 SEC

 FILE SIZES:   FILE 1:    19.3 MBYTE,  FILE 4:     4.2 MBYTE,   TOTAL:     23.6 MBYTE

 OPERATOR DM      FOR CENTER  0  COORDINATES:    0.000000    0.000000    0.000000
 OPERATOR EKIN    FOR CENTER  0  COORDINATES:    0.000000    0.000000    0.000000
 OPERATOR POT     FOR CENTER  0  COORDINATES:    0.000000    0.000000    0.000000


 **********************************************************************************************************************************
 DATASETS  * FILE   NREC   LENGTH (MB)   RECORD NAMES
              1      20       19.12       500      610      700      900      950      970     1000      129      960     1100   
                                          VAR    BASINP    GEOM    SYMINP    ZMAT    AOBASIS   BASIS     P2S    ABASIS      S 
                                         1400     1410     1420     1200     1210     1080     1600     1650     1300     1700   
                                         EKIN       V       ECP      H0       H01     AOSYM     SMH    MOLCAS    ERIS     OPER   

 PROGRAMS   *        TOTAL       INT
 CPU TIMES  *         0.32      0.21
 REAL TIME  *         4.73 SEC
 DISK USED  *        23.83 MB      
 **********************************************************************************************************************************


 PROGRAM * RHF-SCF (OPEN SHELL)       Authors: W. Meyer, H.-J. Werner


 NUMBER OF ELECTRONS:       4+    1-    SPACE SYMMETRY=8    SPIN SYMMETRY: Quartet 
 CONVERGENCE THRESHOLDS:    1.00E-05 (Density)    1.00E-07 (Energy)
 MAX. NUMBER OF ITERATIONS:       60
 INTERPOLATION TYPE:            DIIS
 INTERPOLATION STEPS:              2 (START)      1 (STEP)
 LEVEL SHIFTS:                 -0.60 (CLOSED) -0.30 (OPEN) 

 Number of closed-shell orbitals:    1 (   1   0   0   0   0   0   0 )
 Number of open-shell orbitals:      3 (   0   1   1   0   1   0   0 )



   Atom=P  basis=ECP10MWB_GUESS    lmin=0  lmax=1

 Orbital guess generated from atomic densities. Full valence occupancy:    1   1   1   0   1   0   0   0


 Molecular orbital dump at record        2100.2

 ITERATION    DDIFF          GRAD             ENERGY        2-EL.EN.            DIPOLE MOMENTS         DIIS   ORB.
    1      0.000D+00      0.000D+00        -6.33107635      7.282672    0.00000    0.00000    0.00000    0    start
    2      0.000D+00      0.129D-01        -6.33954060      7.449607    0.00000    0.00000    0.00000    1    diag,B
    3      0.787D-01      0.458D-02        -6.34091581      7.529254    0.00000    0.00000    0.00000    2    diag,B
    4      0.432D-01      0.102D-02        -6.34096243      7.534798    0.00000    0.00000    0.00000    3    diag,B
    5      0.787D-02      0.334D-03        -6.34096636      7.534330    0.00000    0.00000    0.00000    4    diag,B
    6      0.188D-02      0.434D-04        -6.34096642      7.534352    0.00000    0.00000    0.00000    5    diag,B
    7      0.193D-03      0.370D-05        -6.34096642      7.534293    0.00000    0.00000    0.00000    6    fixocc
    8      0.243D-04      0.142D-07        -6.34096642      7.534293    0.00000    0.00000    0.00000    7    diag,B
    9      0.104D-06      0.888D-10        -6.34096642      7.534293    0.00000    0.00000    0.00000    0    orth

 Final alpha occupancy:   1   1   1   0   1   0   0
 Final beta  occupancy:   1   0   0   0   0   0   0

 !RHF STATE 1.8 Energy                 -6.340966418315
 Nuclear energy                         0.00000000
 One-electron energy                  -10.10811290
 Two-electron energy                    3.76714648
 Virial quotient                       -2.69266256
 !RHF STATE 1.8 Dipole moment           0.00000000     0.00000000     0.00000000
 Dipole moment /Debye                   0.00000000     0.00000000     0.00000000
 

 !RHF expec          <1.8|EKIN|1.8>     2.354905702325
 
 !RHF expec           <1.8|POT|1.8>    -2.719094879022

 ELECTRON ORBITALS
 =================


   Orb  Occ    Energy  Couls-En    Coefficients

                                   1 1s      1 1s      1 1s      1 3d0     1 3d2+    1 3d0     1 3d2+ 

   1.1   2    -0.6989   -2.9915  1.000000 -0.000001  0.000001 -0.000000  0.000000  0.000000 -0.000000

                                   1 2px     1 2px     1 2px  

   1.2   +    -0.3920   -2.2330  1.000002 -0.000000 -0.000001

                                   1 2py     1 2py     1 2py  

   1.3   +    -0.3920   -2.2330  1.000002 -0.000000 -0.000001

                                   1 2pz     1 2pz     1 2pz  

   1.5   +    -0.3920   -2.2330  1.000002 -0.000000 -0.000001

 HOMO      1.2    -0.391981 =     -10.6664eV
 LUMO      2.1     0.281859 =       7.6698eV
 LUMO-HOMO         0.673840 =      18.3361eV


 **********************************************************************************************************************************
 DATASETS  * FILE   NREC   LENGTH (MB)   RECORD NAMES
              1      20       19.12       500      610      700      900      950      970     1000      129      960     1100   
                                          VAR    BASINP    GEOM    SYMINP    ZMAT    AOBASIS   BASIS     P2S    ABASIS      S 
                                         1400     1410     1420     1200     1210     1080     1600     1650     1300     1700   
                                         EKIN       V       ECP      H0       H01     AOSYM     SMH    MOLCAS    ERIS     OPER   

              2       4        2.75       700     1000      520     2100   
                                         GEOM     BASIS   MCVARS     RHF  

 PROGRAMS   *        TOTAL        HF       INT
 CPU TIMES  *         0.37      0.05      0.21
 REAL TIME  *         4.95 SEC
 DISK USED  *        23.83 MB      
 **********************************************************************************************************************************
 SETTING SCF(I)         =        -6.34096642  AU                              
 SETTING _CC_NORM_MAX   =         2.00000000                                  


 PROGRAM * CCSD (Restricted open-shell coupled cluster)     Authors: C. Hampel, H.-J. Werner, 1991, M. Deegan, P.J. Knowles, 1992


 Convergence thresholds:  THRVAR = 1.00D-08  THRDEN = 1.00D-06

 CCSD(T)     terms to be evaluated (factor= 1.000)


 Number of closed-shell orbitals:   1 (   1   0   0   0   0   0   0 )
 Number of active  orbitals:        3 (   0   1   1   0   1   0   0 )
 Number of external orbitals:      18 (   6   2   2   2   2   2   2 )

 Memory could be reduced to 0.30 Mwords without degradation in triples

 Number of N-1 electron functions:               5
 Number of N-2 electron functions:              10
 Number of singly external CSFs:                21
 Number of doubly external CSFs:               420
 Total number of CSFs:                         441

 Molecular orbitals read from record     2100.2  Type=RHF/CANONICAL (state 1.8)

 Integral transformation finished. Total CPU:   0.01 sec, npass=  1  Memory used:   0.07 MW

 Starting RMP2 calculation

 Wavefunction is spin-projected

 ITER.      SQ.NORM     CORR.ENERGY   TOTAL ENERGY   ENERGY CHANGE        DEN1      VAR(S)    VAR(P)  DIIS     TIME
   1      1.03826795    -0.06947067    -6.41043709    -0.06947067    -0.00053967  0.51D-07  0.31D-03  1  1     0.02
   2      1.03908437    -0.07007819    -6.41104461    -0.00060752    -0.00000116  0.25D-08  0.59D-06  2  2     0.02
   3      1.03910256    -0.07008631    -6.41105272    -0.00000811    -0.00000000  0.47D-12  0.10D-08  3  3     0.02
   4      1.03910304    -0.07008658    -6.41105300    -0.00000028    -0.00000000  0.85D-14  0.13D-11  4  4     0.02

 Norm of t1 vector:      0.00702727      S-energy:    -0.00009782      T1 diagnostic:  0.00022496
 Norm of t2 vector:      0.19761997      P-energy:    -0.06998876
                                         Alpha-Beta:  -0.05095893
                                         Alpha-Alpha: -0.01902984
                                         Beta-Beta:    0.00000000

 Spin contamination <S**2-Sz**2-Sz>     0.00000000
  Reference energy                     -6.340966418315
  RHF-RMP2 correlation energy          -0.070086582786
 !RHF-RMP2 energy                      -6.411053001101
 (NB above energy spin projected)

 Starting RCCSD calculation

 ITER.      SQ.NORM     CORR.ENERGY   TOTAL ENERGY   ENERGY CHANGE        DEN1      VAR(S)    VAR(P)  DIIS     TIME
   1      1.05323005    -0.08167392    -6.42264034    -0.08167392    -0.00520579  0.41D-04  0.28D-02  1  1     0.02
   2      1.06267909    -0.08780445    -6.42877087    -0.00613053    -0.00011613  0.23D-05  0.60D-04  2  2     0.02
   3      1.06384171    -0.08822150    -6.42918792    -0.00041705    -0.00000285  0.30D-06  0.14D-05  3  3     0.02
   4      1.06406857    -0.08832012    -6.42928654    -0.00009862    -0.00000008  0.42D-08  0.36D-07  4  4     0.03
   5      1.06403780    -0.08829755    -6.42926397     0.00002257    -0.00000000  0.27D-09  0.86D-09  5  5     0.03
   6      1.06404922    -0.08830405    -6.42927047    -0.00000651    -0.00000000  0.25D-10  0.18D-10  6  6     0.04
   7      1.06404753    -0.08830297    -6.42926939     0.00000109    -0.00000000  0.26D-11  0.77D-12  6  1     0.04
   8      1.06404758    -0.08830298    -6.42926940    -0.00000001    -0.00000000  0.17D-12  0.11D-12  6  2     0.04

 Norm of t1 vector:      0.01470005      S-energy:    -0.00013991      T1 diagnostic:  0.00253995
                                                                       D1 diagnostic:  0.00391573
 Norm of t2 vector:      0.25264894      P-energy:    -0.08816307
                                         Alpha-Beta:  -0.06796177
                                         Alpha-Alpha: -0.02020131
                                         Beta-Beta:    0.00000000

 Doubles amplitudes (print threshold =  0.500E-01):

         I         J         SYM. A    SYM. B    A         B      T(IJ, AB) [Alpha-Beta]

         2         1         4         3         1         1     -0.05203294
         2         1         6         5         1         1     -0.05203294
         3         1         1         3         1         1      0.05647754
         3         1         4         2         1         1     -0.05203294
         3         1         7         5         1         1     -0.05203294
         4         1         1         5         2         1     -0.05916025
         4         1         6         2         1         1     -0.05203294
         4         1         7         3         1         1     -0.05203294

 Spin contamination <S**2-Sz**2-Sz>     0.00000000

 Memory could be reduced to 0.30 Mwords without degradation in triples
 

 RESULTS
 =======

  Reference energy                     -6.340966418315
  RCCSD singles energy                 -0.000139906446
  RCCSD pair energy                    -0.088163074183
  RCCSD correlation energy             -0.088302980629
  Triples (T) contribution             -0.001654789879
  Total correlation energy             -0.089957770508
 
  RHF-RCCSD energy                     -6.429269398943
  RHF-RCCSD[T] energy                  -6.430925582613
  RHF-RCCSD-T energy                   -6.430926915433
 !RHF-RCCSD(T) energy                  -6.430924188822

 Program statistics:

 Available memory in ccsd:               511999732
 Min. memory needed in ccsd:                  4174
 Max. memory used in ccsd:                    4494
 Max. memory used in cckext:                 36358 ( 8 integral passes)
 Max. memory used in cckint:                 68402 ( 1 integral passes)



 **********************************************************************************************************************************
 DATASETS  * FILE   NREC   LENGTH (MB)   RECORD NAMES
              1      20       19.12       500      610      700      900      950      970     1000      129      960     1100   
                                          VAR    BASINP    GEOM    SYMINP    ZMAT    AOBASIS   BASIS     P2S    ABASIS      S 
                                         1400     1410     1420     1200     1210     1080     1600     1650     1300     1700   
                                         EKIN       V       ECP      H0       H01     AOSYM     SMH    MOLCAS    ERIS     OPER   

              2       4        2.75       700     1000      520     2100   
                                         GEOM     BASIS   MCVARS     RHF  

 PROGRAMS   *        TOTAL  RCCSD(T)        HF       INT
 CPU TIMES  *         0.45      0.07      0.05      0.21
 REAL TIME  *         6.08 SEC
 DISK USED  *        23.83 MB      
 **********************************************************************************************************************************
 SETTING POSTHF(I)      =        -6.43092419  AU                              
                                                                                                                                                                                                                                                                

       SCF           POSTHF       EKIN          POT
    -6.34096642   -6.43092419   2.35490570   -2.71909488
                                                  

 RCCSD(T)/USERDEF energy=     -6.430924188822

        RCCSD(T)        HF-SCF  
     -6.43092419     -6.34096642
 **********************************************************************************************************************************
 Variable memory released
