
 Primary working directories    : /global/cscratch1/sd/aannabe
 Secondary working directories  : /global/cscratch1/sd/aannabe
 Wavefunction directory         : /global/homes/a/aannabe/wfu/
 Main file repository           : /global/cscratch1/sd/aannabe/

 SHA1      : 2873118e99aab1bc19f5b6fc1784693c06d15c95
 NAME      : 2015.1.8
 ARCHNAME  : linux/x86_64
 FC        : /opt/cray/pe/craype/2.5.5/bin/ftn
 BLASLIB   : -Wl,-_start-group /opt/intel/compilers_and_libraries_2016.3.210/linux/mkl/lib/intel64/libmkl_intel_ilp64.a /opt/intel/compilers_and_libraries_2016.3.210/linux/mkl/lib/intel64/libmkl_intel_thread.a /opt/intel/compilers_and_libraries_2016.3.210/linux/mkl/lib/intel64/libmkl_core.a -Wl,-_end-group
 id        : lbl

 Nodes     nprocs
 nid00446     1

 Using customized tuning parameters: mindgm=8; mindgv=16; mindgc=4; mindgr=1; noblas=0; minvec=7
 default implementation of scratch files=df  

 ***,Cr
 memory,512,m
 gthresh,twoint=1.e-12
 
 gprint,basis,orbitals
 gexpec,ekin,pot
 
 angstrom
 geometry={
 1                                                                               ! Number of atoms
 Cr 0.0 0.0 0.0
 }
 
 basis={
 Including file /global/homes/a/aannabe/docs/totals/pps/Cr.pp
 Including file /global/homes/a/aannabe/docs/totals/basis/aug-cc-pVnZ/Cr_qz.basis
 }
 
 {hf
 wf,14,1,6
 occ,4,1,1,1,1,1,1,0
 open,2.1,3.1,4.1,1.4,1.6,1.7
 sym,1,1,1,2,3
 }
 scf(i)=energy
 
 _CC_NORM_MAX=2.0
 {ci
 maxit,100
 core
 }
 posthf(i)=energy
 
 table,scf,posthf,ekin,pot
 save,4.csv,new
 
 

 Variables initialized (889), CPU time= 0.01 sec
 Commands  initialized (702), CPU time= 0.01 sec, 572 directives.
 Default parameters read. Elapsed time= 0.38 sec

 Checking input...
 Passed
1


                                         ***  PROGRAM SYSTEM MOLPRO  ***
                                       Copyright, TTI GmbH Stuttgart, 2015
                                    Version 2015.1 linked Sep  7 2016 23:09:38


 **********************************************************************************************************************************
 LABEL *   Cr                                                                            
  64 bit serial version                                                                  DATE: 12-Jun-18          TIME: 13:46:42  
 **********************************************************************************************************************************

 SHA1:             2873118e99aab1bc19f5b6fc1784693c06d15c95
 **********************************************************************************************************************************

 THRESHOLDS:

 ZERO    =  1.00D-12  ONEINT  =  1.00D-12  TWOINT  =  1.00D-12  PREFAC  =  1.00D-14  LOCALI  =  1.00D-09  EORDER  =  1.00D-04
 ENERGY  =  0.00D+00  ETEST   =  0.00D+00  EDENS   =  0.00D+00  THRDEDEF=  1.00D-06  GRADIENT=  1.00D-02  STEP    =  1.00D-03
 ORBITAL =  1.00D-05  CIVEC   =  1.00D-05  COEFF   =  1.00D-04  PRINTCI =  5.00D-02  PUNCHCI =  9.90D+01  OPTGRAD =  3.00D-04
 OPTENERG=  1.00D-06  OPTSTEP =  3.00D-04  THRGRAD =  1.00D-10  COMPRESS=  1.00D-11  VARMIN  =  1.00D-07  VARMAX  =  1.00D-03
 THRDOUB =  0.00D+00  THRDIV  =  1.00D-05  THRRED  =  1.00D-07  THRPSP  =  1.00D+00  THRDC   =  1.00D-10  THRCS   =  1.00D-10
 THRNRM  =  1.00D-08  THREQ   =  0.00D+00  THRDE   =  1.00D+00  THRREF  =  1.00D-05  SPARFAC =  1.00D+00  THRDLP  =  1.00D-07
 THRDIA  =  1.00D-10  THRDLS  =  1.00D-07  THRGPS  =  0.00D+00  THRKEX  =  0.00D+00  THRDIS  =  2.00D-01  THRVAR  =  1.00D-10
 THRLOC  =  1.00D-06  THRGAP  =  1.00D-06  THRLOCT = -1.00D+00  THRGAPT = -1.00D+00  THRORB  =  1.00D-06  THRMLTP =  0.00D+00
 THRCPQCI=  1.00D-10  KEXTA   =  0.00D+00  THRCOARS=  0.00D+00  SYMTOL  =  1.00D-06  GRADTOL =  1.00D-06  THROVL  =  1.00D-08
 THRORTH =  1.00D-08  GRID    =  1.00D-06  GRIDMAX =  1.00D-03  DTMAX   =  0.00D+00  THROCCDE=  1.00D-01  THROCCDE=  1.00D-01



 ZUNIT=ANG
 

Geometry recognized as XYZ


 Variable memory set to  512000000 words,  buffer space   230000 words

 SETTING BASIS          =    USERDEF


 Recomputing integrals since basis changed


 Using spherical harmonics



 PROGRAM * SEWARD (Integral evaluation for generally contracted gaussian basis sets)     Author: Roland Lindh, 1990

 Geometry written to block  1 of record 700

 Orientation using atomic masses  
 Molecule type: Atom
 Symmetry elements: X,Y,Z
 Rotational constants:       0.0000000      0.0000000      0.0000000 GHz  (calculated with average atomic masses)

 Point group  D2h 



 ATOMIC COORDINATES

 NR  ATOM    CHARGE       X              Y              Z

   1  CR     14.00    0.000000000    0.000000000    0.000000000


          CR  CORE POTENTIAL

          d POTENTIAL

 POWERS             1              3              2              2
 EXPONENTIALS   18.28091       17.09801       16.72267       5.028651    
 COEFFICIENTS   14.00000       255.9328      -132.0183     -0.7738876    

          s - d POTENTIAL

 POWERS             2              2
 EXPONENTIALS   16.90079       7.336622    
 COEFFICIENTS   219.4815       28.07933    

          p - d POTENTIAL

 POWERS             2              2
 EXPONENTIALS   17.31975       6.924098    
 COEFFICIENTS   139.9840       19.54836    


 BASIS DATA

   Nr Sym  Nuc  Type         Exponents   Contraction coefficients

    1.1 Ag    1  1s          73.977737     0.000864   -0.000183   -0.000327   -0.000698    0.002983    0.000000
    2.1 Ag                   37.684349    -0.011595    0.002704    0.005309    0.010207   -0.026969    0.000000
    3.1 Ag                   19.278723     0.090467   -0.022650   -0.046905   -0.091261    0.199304    0.000000
    4.1 Ag                   12.130763    -0.024837    0.007181    0.015411    0.052207   -0.257094    0.000000
    5.1 Ag                    7.453002    -0.330407    0.087705    0.191697    0.342164   -0.312924    0.000000
    6.1 Ag                    3.756296    -0.200598    0.047616    0.099759    0.174866   -0.372823    0.000000
                              2.084137     0.449766   -0.125672   -0.338994   -0.994258    2.612676    0.000000
                              0.993314     0.647575   -0.244571   -0.695806   -1.190604   -1.108319    0.000000
                              0.483094     0.229025   -0.198419   -0.007315    2.271834   -3.520973    0.000000
                              0.225854     0.009217    0.030889    1.118599    1.003013    5.386315    0.000000
                              0.115338     0.001132    0.423935    0.717257   -2.605235   -1.948192    0.000000
                              0.052134    -0.000367    0.576941   -0.868565    0.265158   -1.985699    0.000000
                              0.023679     0.000092    0.148323   -0.467186    0.902286    1.706187    1.000000
    7.1 Ag    1  1s           0.011000     1.000000
    8.1 Ag    1  3d0        120.683729    -0.000006
                             42.646591     0.003111
                             21.154405     0.028641
                              9.708242     0.076222
                              4.614990     0.170595
                              2.243726     0.266908
                              1.086491     0.311039
                              0.524700     0.267312
                              0.255752     0.163336
                              0.121497     0.062782
                              0.054339     0.007872
    9.1 Ag    1  3d2+       120.683729    -0.000006
                             42.646591     0.003111
                             21.154405     0.028641
                              9.708242     0.076222
                              4.614990     0.170595
                              2.243726     0.266908
                              1.086491     0.311039
                              0.524700     0.267312
                              0.255752     0.163336
                              0.121497     0.062782
                              0.054339     0.007872
   10.1 Ag    1  3d0        120.683729     0.000017
                             42.646591    -0.003576
                             21.154405    -0.031476
                              9.708242    -0.087583
                              4.614990    -0.195740
                              2.243726    -0.270132
                              1.086491    -0.170034
                              0.524700     0.143412
                              0.255752     0.408687
                              0.121497     0.370257
                              0.054339     0.123112
   11.1 Ag    1  3d2+       120.683729     0.000017
                             42.646591    -0.003576
                             21.154405    -0.031476
                              9.708242    -0.087583
                              4.614990    -0.195740
                              2.243726    -0.270132
                              1.086491    -0.170034
                              0.524700     0.143412
                              0.255752     0.408687
                              0.121497     0.370257
                              0.054339     0.123112
   12.1 Ag    1  3d0        120.683729     0.000040
                             42.646591    -0.005181
                             21.154405    -0.043393
                              9.708242    -0.127734
                              4.614990    -0.282070
                              2.243726    -0.288390
                              1.086491     0.168269
                              0.524700     0.673062
                              0.255752     0.099196
                              0.121497    -0.570612
                              0.054339    -0.297197
   13.1 Ag    1  3d2+       120.683729     0.000040
                             42.646591    -0.005181
                             21.154405    -0.043393
                              9.708242    -0.127734
                              4.614990    -0.282070
                              2.243726    -0.288390
                              1.086491     0.168269
                              0.524700     0.673062
                              0.255752     0.099196
                              0.121497    -0.570612
                              0.054339    -0.297197
   14.1 Ag    1  3d0        120.683729     0.000119
                             42.646591    -0.007954
                             21.154405    -0.060425
                              9.708242    -0.196810
                              4.614990    -0.401389
                              2.243726    -0.072186
                              1.086491     0.940895
                              0.524700     0.035863
                              0.255752    -1.153529
                              0.121497     0.432192
                              0.054339     0.483161
   15.1 Ag    1  3d2+       120.683729     0.000119
                             42.646591    -0.007954
                             21.154405    -0.060425
                              9.708242    -0.196810
                              4.614990    -0.401389
                              2.243726    -0.072186
                              1.086491     0.940895
                              0.524700     0.035863
                              0.255752    -1.153529
                              0.121497     0.432192
                              0.054339     0.483161
   16.1 Ag    1  3d0        120.683729     0.000000
                             42.646591     0.000000
                             21.154405     0.000000
                              9.708242     0.000000
                              4.614990     0.000000
                              2.243726     0.000000
                              1.086491     0.000000
                              0.524700     0.000000
                              0.255752     0.000000
                              0.121497     0.000000
                              0.054339     1.000000
   17.1 Ag    1  3d2+       120.683729     0.000000
                             42.646591     0.000000
                             21.154405     0.000000
                              9.708242     0.000000
                              4.614990     0.000000
                              2.243726     0.000000
                              1.086491     0.000000
                              0.524700     0.000000
                              0.255752     0.000000
                              0.121497     0.000000
                              0.054339     1.000000
   18.1 Ag    1  3d0          0.026000     1.000000
   19.1 Ag    1  3d2+         0.026000     1.000000
   20.1 Ag    1  5g0          0.190079     1.000000
   21.1 Ag    1  5g4+         0.190079     1.000000
   22.1 Ag    1  5g2+         0.190079     1.000000
   23.1 Ag    1  5g0          0.715513     1.000000
   24.1 Ag    1  5g4+         0.715513     1.000000
   25.1 Ag    1  5g2+         0.715513     1.000000
   26.1 Ag    1  5g0          2.693396     1.000000
   27.1 Ag    1  5g4+         2.693396     1.000000
   28.1 Ag    1  5g2+         2.693396     1.000000
    1.2 B3u   1  2px        101.951240     0.000088    0.000028   -0.000137    0.000027    0.000534    0.000000
    2.2 B3u                  52.309865    -0.000747   -0.000085    0.000932    0.000180   -0.003339    0.000000
    3.2 B3u                  27.142574     0.007135   -0.000751   -0.006845   -0.005742    0.017662    0.000000
    4.2 B3u                  15.066862    -0.014702    0.000844    0.019831    0.020419   -0.084249    0.000000
    5.2 B3u                   9.693669    -0.073353    0.022656    0.043647    0.100527   -0.080777    0.000000
    6.2 B3u                   4.985710     0.012007   -0.012781   -0.019289   -0.100608    0.272392    0.000000
                              2.761266     0.283117   -0.062386   -0.281187   -0.607746    1.310455    0.000000
                              1.417673     0.440786   -0.143581   -0.370298   -0.601705   -1.061793    0.000000
                              0.728201     0.306775   -0.062281   -0.199873    1.450905   -2.376805    0.000000
                              0.378189     0.081804   -0.054471    1.028552    0.672299    4.477317    0.000000
                              0.189359     0.008839    0.377135    0.423711   -1.904823   -2.795798    0.000000
                              0.072301     0.001022    0.471633   -0.800926    0.665814    0.203008    0.000000
                              0.037471     0.000325    0.311624   -0.141910    0.348522    0.570555    1.000000
    7.2 B3u   1  2px          0.018000     1.000000
    8.2 B3u   1  4f1+         0.100815     1.000000
    9.2 B3u   1  4f3+         0.100815     1.000000
   10.2 B3u   1  4f1+         0.342104     1.000000
   11.2 B3u   1  4f3+         0.342104     1.000000
   12.2 B3u   1  4f1+         1.160895     1.000000
   13.2 B3u   1  4f3+         1.160895     1.000000
   14.2 B3u   1  4f1+         3.939379     1.000000
   15.2 B3u   1  4f3+         3.939379     1.000000
   16.2 B3u   1  6h1+         0.590356     1.000000
   17.2 B3u   1  6h3+         0.590356     1.000000
   18.2 B3u   1  6h5+         0.590356     1.000000
   19.2 B3u   1  6h1+         1.706513     1.000000
   20.2 B3u   1  6h3+         1.706513     1.000000
   21.2 B3u   1  6h5+         1.706513     1.000000
    1.3 B2u   1  2py        101.951240     0.000088    0.000028   -0.000137    0.000027    0.000534    0.000000
    2.3 B2u                  52.309865    -0.000747   -0.000085    0.000932    0.000180   -0.003339    0.000000
    3.3 B2u                  27.142574     0.007135   -0.000751   -0.006845   -0.005742    0.017662    0.000000
    4.3 B2u                  15.066862    -0.014702    0.000844    0.019831    0.020419   -0.084249    0.000000
    5.3 B2u                   9.693669    -0.073353    0.022656    0.043647    0.100527   -0.080777    0.000000
    6.3 B2u                   4.985710     0.012007   -0.012781   -0.019289   -0.100608    0.272392    0.000000
                              2.761266     0.283117   -0.062386   -0.281187   -0.607746    1.310455    0.000000
                              1.417673     0.440786   -0.143581   -0.370298   -0.601705   -1.061793    0.000000
                              0.728201     0.306775   -0.062281   -0.199873    1.450905   -2.376805    0.000000
                              0.378189     0.081804   -0.054471    1.028552    0.672299    4.477317    0.000000
                              0.189359     0.008839    0.377135    0.423711   -1.904823   -2.795798    0.000000
                              0.072301     0.001022    0.471633   -0.800926    0.665814    0.203008    0.000000
                              0.037471     0.000325    0.311624   -0.141910    0.348522    0.570555    1.000000
    7.3 B2u   1  2py          0.018000     1.000000
    8.3 B2u   1  4f1-         0.100815     1.000000
    9.3 B2u   1  4f3-         0.100815     1.000000
   10.3 B2u   1  4f1-         0.342104     1.000000
   11.3 B2u   1  4f3-         0.342104     1.000000
   12.3 B2u   1  4f1-         1.160895     1.000000
   13.3 B2u   1  4f3-         1.160895     1.000000
   14.3 B2u   1  4f1-         3.939379     1.000000
   15.3 B2u   1  4f3-         3.939379     1.000000
   16.3 B2u   1  6h1-         0.590356     1.000000
   17.3 B2u   1  6h3-         0.590356     1.000000
   18.3 B2u   1  6h5-         0.590356     1.000000
   19.3 B2u   1  6h1-         1.706513     1.000000
   20.3 B2u   1  6h3-         1.706513     1.000000
   21.3 B2u   1  6h5-         1.706513     1.000000
    1.4 B1g   1  3d2-       120.683729    -0.000006    0.000017    0.000040    0.000119    0.000000
    2.4 B1g                  42.646591     0.003111   -0.003576   -0.005181   -0.007954    0.000000
    3.4 B1g                  21.154405     0.028641   -0.031476   -0.043393   -0.060425    0.000000
    4.4 B1g                   9.708242     0.076222   -0.087583   -0.127734   -0.196810    0.000000
    5.4 B1g                   4.614990     0.170595   -0.195740   -0.282070   -0.401389    0.000000
                              2.243726     0.266908   -0.270132   -0.288390   -0.072186    0.000000
                              1.086491     0.311039   -0.170034    0.168269    0.940895    0.000000
                              0.524700     0.267312    0.143412    0.673062    0.035863    0.000000
                              0.255752     0.163336    0.408687    0.099196   -1.153529    0.000000
                              0.121497     0.062782    0.370257   -0.570612    0.432192    0.000000
                              0.054339     0.007872    0.123112   -0.297197    0.483161    1.000000
    6.4 B1g   1  3d2-         0.026000     1.000000
    7.4 B1g   1  5g2-         0.190079     1.000000
    8.4 B1g   1  5g4-         0.190079     1.000000
    9.4 B1g   1  5g2-         0.715513     1.000000
   10.4 B1g   1  5g4-         0.715513     1.000000
   11.4 B1g   1  5g2-         2.693396     1.000000
   12.4 B1g   1  5g4-         2.693396     1.000000
    1.5 B1u   1  2pz        101.951240     0.000088    0.000028   -0.000137    0.000027    0.000534    0.000000
    2.5 B1u                  52.309865    -0.000747   -0.000085    0.000932    0.000180   -0.003339    0.000000
    3.5 B1u                  27.142574     0.007135   -0.000751   -0.006845   -0.005742    0.017662    0.000000
    4.5 B1u                  15.066862    -0.014702    0.000844    0.019831    0.020419   -0.084249    0.000000
    5.5 B1u                   9.693669    -0.073353    0.022656    0.043647    0.100527   -0.080777    0.000000
    6.5 B1u                   4.985710     0.012007   -0.012781   -0.019289   -0.100608    0.272392    0.000000
                              2.761266     0.283117   -0.062386   -0.281187   -0.607746    1.310455    0.000000
                              1.417673     0.440786   -0.143581   -0.370298   -0.601705   -1.061793    0.000000
                              0.728201     0.306775   -0.062281   -0.199873    1.450905   -2.376805    0.000000
                              0.378189     0.081804   -0.054471    1.028552    0.672299    4.477317    0.000000
                              0.189359     0.008839    0.377135    0.423711   -1.904823   -2.795798    0.000000
                              0.072301     0.001022    0.471633   -0.800926    0.665814    0.203008    0.000000
                              0.037471     0.000325    0.311624   -0.141910    0.348522    0.570555    1.000000
    7.5 B1u   1  2pz          0.018000     1.000000
    8.5 B1u   1  4f0          0.100815     1.000000
    9.5 B1u   1  4f2+         0.100815     1.000000
   10.5 B1u   1  4f0          0.342104     1.000000
   11.5 B1u   1  4f2+         0.342104     1.000000
   12.5 B1u   1  4f0          1.160895     1.000000
   13.5 B1u   1  4f2+         1.160895     1.000000
   14.5 B1u   1  4f0          3.939379     1.000000
   15.5 B1u   1  4f2+         3.939379     1.000000
   16.5 B1u   1  6h2+         0.590356     1.000000
   17.5 B1u   1  6h4+         0.590356     1.000000
   18.5 B1u   1  6h0          0.590356     1.000000
   19.5 B1u   1  6h2+         1.706513     1.000000
   20.5 B1u   1  6h4+         1.706513     1.000000
   21.5 B1u   1  6h0          1.706513     1.000000
    1.6 B2g   1  3d1+       120.683729    -0.000006    0.000017    0.000040    0.000119    0.000000
    2.6 B2g                  42.646591     0.003111   -0.003576   -0.005181   -0.007954    0.000000
    3.6 B2g                  21.154405     0.028641   -0.031476   -0.043393   -0.060425    0.000000
    4.6 B2g                   9.708242     0.076222   -0.087583   -0.127734   -0.196810    0.000000
    5.6 B2g                   4.614990     0.170595   -0.195740   -0.282070   -0.401389    0.000000
                              2.243726     0.266908   -0.270132   -0.288390   -0.072186    0.000000
                              1.086491     0.311039   -0.170034    0.168269    0.940895    0.000000
                              0.524700     0.267312    0.143412    0.673062    0.035863    0.000000
                              0.255752     0.163336    0.408687    0.099196   -1.153529    0.000000
                              0.121497     0.062782    0.370257   -0.570612    0.432192    0.000000
                              0.054339     0.007872    0.123112   -0.297197    0.483161    1.000000
    6.6 B2g   1  3d1+         0.026000     1.000000
    7.6 B2g   1  5g1+         0.190079     1.000000
    8.6 B2g   1  5g3+         0.190079     1.000000
    9.6 B2g   1  5g1+         0.715513     1.000000
   10.6 B2g   1  5g3+         0.715513     1.000000
   11.6 B2g   1  5g1+         2.693396     1.000000
   12.6 B2g   1  5g3+         2.693396     1.000000
    1.7 B3g   1  3d1-       120.683729    -0.000006    0.000017    0.000040    0.000119    0.000000
    2.7 B3g                  42.646591     0.003111   -0.003576   -0.005181   -0.007954    0.000000
    3.7 B3g                  21.154405     0.028641   -0.031476   -0.043393   -0.060425    0.000000
    4.7 B3g                   9.708242     0.076222   -0.087583   -0.127734   -0.196810    0.000000
    5.7 B3g                   4.614990     0.170595   -0.195740   -0.282070   -0.401389    0.000000
                              2.243726     0.266908   -0.270132   -0.288390   -0.072186    0.000000
                              1.086491     0.311039   -0.170034    0.168269    0.940895    0.000000
                              0.524700     0.267312    0.143412    0.673062    0.035863    0.000000
                              0.255752     0.163336    0.408687    0.099196   -1.153529    0.000000
                              0.121497     0.062782    0.370257   -0.570612    0.432192    0.000000
                              0.054339     0.007872    0.123112   -0.297197    0.483161    1.000000
    6.7 B3g   1  3d1-         0.026000     1.000000
    7.7 B3g   1  5g1-         0.190079     1.000000
    8.7 B3g   1  5g3-         0.190079     1.000000
    9.7 B3g   1  5g1-         0.715513     1.000000
   10.7 B3g   1  5g3-         0.715513     1.000000
   11.7 B3g   1  5g1-         2.693396     1.000000
   12.7 B3g   1  5g3-         2.693396     1.000000
    1.8 Au    1  4f2-         0.100815     1.000000
    2.8 Au    1  4f2-         0.342104     1.000000
    3.8 Au    1  4f2-         1.160895     1.000000
    4.8 Au    1  4f2-         3.939379     1.000000
    5.8 Au    1  6h4-         0.590356     1.000000
    6.8 Au    1  6h2-         0.590356     1.000000
    7.8 Au    1  6h4-         1.706513     1.000000
    8.8 Au    1  6h2-         1.706513     1.000000

 NUCLEAR CHARGE:                   14
 NUMBER OF PRIMITIVE AOS:         255
 NUMBER OF SYMMETRY AOS:          193
 NUMBER OF CONTRACTIONS:          135   (  28Ag  +  21B3u +  21B2u +  12B1g +  21B1u +  12B2g +  12B3g +   8Au  )
 NUMBER OF CORE ORBITALS:           4   (   1Ag  +   1B3u +   1B2u +   0B1g +   1B1u +   0B2g +   0B3g +   0Au  )
 NUMBER OF VALENCE ORBITALS:        6   (   3Ag  +   0B3u +   0B2u +   1B1g +   0B1u +   1B2g +   1B3g +   0Au  )


 NUCLEAR REPULSION ENERGY    0.00000000

 EXTRA SYMMETRY OF AOS IN SYMMETRY 1:   1 1 1 1 1 1 1 2 3 2   3 2 3 2 3 2 3 2 3 4   5 6 4 5 6 4 5 6
 EXTRA SYMMETRY OF AOS IN SYMMETRY 2:   1 1 1 1 1 1 1 2 3 2   3 2 3 2 3 4 5 6 4 5   6
 EXTRA SYMMETRY OF AOS IN SYMMETRY 3:   1 1 1 1 1 1 1 2 3 2   3 2 3 2 3 4 5 6 4 5   6
 EXTRA SYMMETRY OF AOS IN SYMMETRY 4:   1 1 1 1 1 1 2 3 2 3   2 3
 EXTRA SYMMETRY OF AOS IN SYMMETRY 5:   1 1 1 1 1 1 1 2 3 2   3 2 3 2 3 4 5 6 4 5   6
 EXTRA SYMMETRY OF AOS IN SYMMETRY 6:   1 1 1 1 1 1 2 3 2 3   2 3
 EXTRA SYMMETRY OF AOS IN SYMMETRY 7:   1 1 1 1 1 1 2 3 2 3   2 3
 EXTRA SYMMETRY OF AOS IN SYMMETRY 8:   1 1 1 1 2 3 2 3

 Eigenvalues of metric

         1 0.124E-02 0.301E-01 0.301E-01 0.840E-01 0.364E+00 0.364E+00 0.553E+00 0.553E+00
         2 0.673E-02 0.234E+00 0.322E+00 0.322E+00 0.583E+00 0.583E+00 0.583E+00 0.666E+00
         3 0.673E-02 0.234E+00 0.322E+00 0.322E+00 0.583E+00 0.583E+00 0.583E+00 0.666E+00
         4 0.301E-01 0.364E+00 0.553E+00 0.553E+00 0.979E+00 0.979E+00 0.100E+01 0.101E+01
         5 0.673E-02 0.234E+00 0.322E+00 0.322E+00 0.583E+00 0.583E+00 0.583E+00 0.666E+00
         6 0.301E-01 0.364E+00 0.553E+00 0.553E+00 0.979E+00 0.979E+00 0.100E+01 0.101E+01
         7 0.301E-01 0.364E+00 0.553E+00 0.553E+00 0.979E+00 0.979E+00 0.100E+01 0.101E+01
         8 0.322E+00 0.583E+00 0.583E+00 0.666E+00 0.122E+01 0.142E+01 0.142E+01 0.179E+01


 Contracted 2-electron integrals neglected if value below      1.0D-12
 AO integral compression algorithm  1   Integral accuracy      1.0D-12

     33.817 MB (compressed) written to integral file ( 46.5%)


 NUMBER OF SORTED TWO-ELECTRON INTEGRALS:    5465755.     BUFFER LENGTH:  32768
 NUMBER OF SEGMENTS:   1  SEGMENT LENGTH:    5465755      RECORD LENGTH: 524288

 Memory used in sort:       6.02 MW

 SORT1 READ     9044109. AND WROTE     3825599. INTEGRALS IN     11 RECORDS. CPU TIME:     0.26 SEC, REAL TIME:     0.31 SEC
 SORT2 READ     3825599. AND WROTE     5465755. INTEGRALS IN    129 RECORDS. CPU TIME:     0.22 SEC, REAL TIME:     0.30 SEC

 FILE SIZES:   FILE 1:    53.3 MBYTE,  FILE 4:    46.2 MBYTE,   TOTAL:     99.5 MBYTE

 OPERATOR DM      FOR CENTER  0  COORDINATES:    0.000000    0.000000    0.000000
 OPERATOR EKIN    FOR CENTER  0  COORDINATES:    0.000000    0.000000    0.000000
 OPERATOR POT     FOR CENTER  0  COORDINATES:    0.000000    0.000000    0.000000


 **********************************************************************************************************************************
 DATASETS  * FILE   NREC   LENGTH (MB)   RECORD NAMES
              1      20       39.83       500      610      700      900      950      970     1000      129      960     1100   
                                          VAR    BASINP    GEOM    SYMINP    ZMAT    AOBASIS   BASIS     P2S    ABASIS      S 
                                         1400     1410     1420     1200     1210     1080     1600     1650     1300     1700   
                                         EKIN       V       ECP      H0       H01     AOSYM     SMH    MOLCAS    ERIS     OPER   

 PROGRAMS   *        TOTAL       INT
 CPU TIMES  *         3.21      3.09
 REAL TIME  *        12.37 SEC
 DISK USED  *        99.83 MB      
 **********************************************************************************************************************************


 PROGRAM * RHF-SCF (OPEN SHELL)       Authors: W. Meyer, H.-J. Werner


 NUMBER OF ELECTRONS:      10+    4-    SPACE SYMMETRY=1    SPIN SYMMETRY: Septet  
 CONVERGENCE THRESHOLDS:    1.00E-05 (Density)    1.00E-07 (Energy)
 MAX. NUMBER OF ITERATIONS:       60
 INTERPOLATION TYPE:            DIIS
 INTERPOLATION STEPS:              2 (START)      1 (STEP)
 LEVEL SHIFTS:                 -0.60 (CLOSED) -0.30 (OPEN) 


 Singly occupied orbitals:      2.1       3.1       4.1       1.4       1.6       1.7
 
 Extra symmetries of mos in symmetry 1:   1   1   2   3

   Atom=CR basis=ECP10MDF_GUESS    lmin=0  lmax=2

 Orbital guess generated from atomic densities. Full valence occupancy:    4   1   1   1   1   1   1   0


 Molecular orbital dump at record        2100.2

 ITERATION    DDIFF          GRAD             ENERGY        2-EL.EN.            DIPOLE MOMENTS         DIIS   ORB.
    1      0.000D+00      0.000D+00       -86.01083490    132.588971    0.00000    0.00000    0.00000    0    start
    2      0.000D+00      0.207D-01       -86.04128642    128.343100    0.00000    0.00000    0.00000    1    diag,B
    3      0.473D-02      0.713D-02       -86.04770164    129.742253    0.00000    0.00000    0.00000    2    diag,B
    4      0.147D-02      0.160D-02       -86.04838665    129.687908    0.00000    0.00000    0.00000    3    diag,B
    5      0.754D-03      0.281D-03       -86.04849890    129.672129    0.00000    0.00000    0.00000    4    diag,B
    6      0.345D-03      0.103D-03       -86.04853633    129.650388    0.00000    0.00000    0.00000    5    diag,B
    7      0.289D-03      0.343D-04       -86.04853963    129.644445    0.00000    0.00000    0.00000    6    fixocc
    8      0.111D-03      0.120D-04       -86.04854014    129.640873    0.00000    0.00000    0.00000    7    diag,B
    9      0.748D-04      0.447D-05       -86.04854022    129.640158    0.00000    0.00000    0.00000    8    diag,B
   10      0.476D-04      0.569D-06       -86.04854022    129.640237    0.00000    0.00000    0.00000    9    orth
   11      0.383D-05      0.135D-06       -86.04854022    129.640237    0.00000    0.00000    0.00000    0    orth

 Final alpha occupancy:   4   1   1   1   1   1   1   0
 Final beta  occupancy:   1   1   1   0   1   0   0   0

 !RHF STATE 1.1 Energy                -86.048540221841
 Nuclear energy                         0.00000000
 One-electron energy                 -150.86865883
 Two-electron energy                   64.82011860
 Virial quotient                       -1.85648470
 !RHF STATE 1.1 Dipole moment           0.00000000     0.00000000     0.00000000
 Dipole moment /Debye                   0.00000000     0.00000000     0.00000000
 

 !RHF expec          <1.1|EKIN|1.1>    46.350255588541
 
 !RHF expec           <1.1|POT|1.1>   -14.862980473973

 ELECTRON ORBITALS
 =================


   Orb  Occ    Energy  Couls-En    Coefficients

                                   1 1s      1 1s      1 1s      1 1s      1 1s      1 1s      1 1s      1 3d0     1 3d2+    1 3d0  
                                   1 3d2+    1 3d0     1 3d2+    1 3d0     1 3d2+    1 3d0     1 3d2+    1 3d0     1 3d2+    1 5g0  
                                   1 5g4+    1 5g2+    1 5g0     1 5g4+    1 5g2+    1 5g0     1 5g4+    1 5g2+ 

   1.1   2    -3.3599  -16.9191  1.000314  0.009142  0.006953  0.004917 -0.000282 -0.001767 -0.000229  0.000000 -0.000000  0.000000
                                -0.000000 -0.000000  0.000000  0.000000 -0.000000 -0.000000  0.000000  0.000000 -0.000000  0.000000
                                -0.000000  0.000000 -0.000000 -0.000000 -0.000000  0.000000  0.000000  0.000000

   2.1   +    -0.2255   -4.5812 -0.007862  0.992740 -0.052448  0.012514  0.001196  0.000571  0.006108 -0.000000  0.000000 -0.000000
                                 0.000000  0.000000  0.000000 -0.000000  0.000000  0.000000  0.000000 -0.000000  0.000000 -0.000000
                                -0.000000  0.000000  0.000000  0.000000  0.000000 -0.000000 -0.000000 -0.000000

   3.1   +    -0.3697   -9.6267 -0.000000 -0.000000  0.000000  0.000000  0.000000  0.000000 -0.000000  0.998103  0.000467  0.084998
                                 0.000040 -0.019826 -0.000009  0.000526  0.000000 -0.002088 -0.000001  0.000214  0.000000 -0.000000
                                 0.000000 -0.000000  0.000000 -0.000000  0.000000 -0.000000  0.000000 -0.000000

   4.1   +    -0.3697   -9.6267  0.000000  0.000000 -0.000000 -0.000000 -0.000000 -0.000000  0.000000 -0.000467  0.998103 -0.000040
                                 0.084998  0.000009 -0.019826 -0.000000  0.000526  0.000001 -0.002088 -0.000000  0.000214  0.000000
                                 0.000000 -0.000000 -0.000000 -0.000000  0.000000  0.000000  0.000000  0.000000

                                   1 2px     1 2px     1 2px     1 2px     1 2px     1 2px     1 2px     1 4f1+    1 4f3+    1 4f1+ 
                                   1 4f3+    1 4f1+    1 4f3+    1 4f1+    1 4f3+    1 6h1+    1 6h3+    1 6h5+    1 6h1+    1 6h3+ 
                                   1 6h5+ 

   1.2   2    -2.0724  -14.2574  1.001168  0.037356  0.025583  0.008902  0.001743 -0.014915  0.000803 -0.000000 -0.000000 -0.000000
                                 0.000000  0.000000 -0.000000 -0.000000  0.000000  0.000000 -0.000000  0.000000  0.000000  0.000000
                                -0.000000

                                   1 2py     1 2py     1 2py     1 2py     1 2py     1 2py     1 2py     1 4f1-    1 4f3-    1 4f1- 
                                   1 4f3-    1 4f1-    1 4f3-    1 4f1-    1 4f3-    1 6h1-    1 6h3-    1 6h5-    1 6h1-    1 6h3- 
                                   1 6h5- 

   1.3   2    -2.0724  -14.2574  1.001168  0.037356  0.025583  0.008902  0.001743 -0.014915  0.000803 -0.000000  0.000000 -0.000000
                                -0.000000  0.000000  0.000000 -0.000000 -0.000000  0.000000  0.000000  0.000000  0.000000 -0.000000
                                -0.000000

                                   1 3d2-    1 3d2-    1 3d2-    1 3d2-    1 3d2-    1 3d2-    1 5g2-    1 5g4-    1 5g2-    1 5g4- 
                                   1 5g2-    1 5g4- 

   1.4   +    -0.3697   -9.6267  0.998103  0.084998 -0.019826  0.000526 -0.002088  0.000214 -0.000000  0.000000  0.000000 -0.000000
                                 0.000000  0.000000

                                   1 2pz     1 2pz     1 2pz     1 2pz     1 2pz     1 2pz     1 2pz     1 4f0     1 4f2+    1 4f0  
                                   1 4f2+    1 4f0     1 4f2+    1 4f0     1 4f2+    1 6h2+    1 6h4+    1 6h0     1 6h2+    1 6h4+ 
                                   1 6h0  

   1.5   2    -2.0724  -14.2574  1.001168  0.037356  0.025583  0.008902  0.001743 -0.014915  0.000803 -0.000000  0.000000  0.000000
                                -0.000000 -0.000000 -0.000000  0.000000 -0.000000  0.000000 -0.000000 -0.000000 -0.000000  0.000000
                                 0.000000

                                   1 3d1+    1 3d1+    1 3d1+    1 3d1+    1 3d1+    1 3d1+    1 5g1+    1 5g3+    1 5g1+    1 5g3+ 
                                   1 5g1+    1 5g3+ 

   1.6   +    -0.3697   -9.6267  0.998103  0.084998 -0.019826  0.000526 -0.002088  0.000214 -0.000000 -0.000000  0.000000  0.000000
                                -0.000000 -0.000000

                                   1 3d1-    1 3d1-    1 3d1-    1 3d1-    1 3d1-    1 3d1-    1 5g1-    1 5g3-    1 5g1-    1 5g3- 
                                   1 5g1-    1 5g3- 

   1.7   +    -0.3697   -9.6267  0.998103  0.084998 -0.019826  0.000526 -0.002088  0.000214 -0.000000  0.000000  0.000000 -0.000000
                                -0.000000  0.000000

 HOMO      4.1    -0.369703 =     -10.0601eV
 LUMO      2.2     0.021180 =       0.5763eV
 LUMO-HOMO         0.390883 =      10.6365eV


 **********************************************************************************************************************************
 DATASETS  * FILE   NREC   LENGTH (MB)   RECORD NAMES
              1      20       39.83       500      610      700      900      950      970     1000      129      960     1100   
                                          VAR    BASINP    GEOM    SYMINP    ZMAT    AOBASIS   BASIS     P2S    ABASIS      S 
                                         1400     1410     1420     1200     1210     1080     1600     1650     1300     1700   
                                         EKIN       V       ECP      H0       H01     AOSYM     SMH    MOLCAS    ERIS     OPER   

              2       4        2.85       700     1000      520     2100   
                                         GEOM     BASIS   MCVARS     RHF  

 PROGRAMS   *        TOTAL        HF       INT
 CPU TIMES  *         3.46      0.25      3.09
 REAL TIME  *        13.43 SEC
 DISK USED  *        99.83 MB      
 **********************************************************************************************************************************
 SETTING SCF(I)         =       -86.04854022  AU                              
 SETTING _CC_NORM_MAX   =         2.00000000                                  


 PROGRAM * CI (Multireference internally contracted CI)     Authors: H.-J. Werner, P.J. Knowles, 1987


 Convergence thresholds:  THRVAR = 1.00D-08  THRDEN = 1.00D-06

 Number of optimized states:  1  Roots:   1
 Number of reference states:  1  Roots:   1

 Reference symmetry:                   1   Septet  
 Number of electrons:                 14
 Maximum number of shells:             3
 Maximum number of spin couplings:    35

 Reference space:        1 conf        1 CSFs
 N elec internal:      115 conf      115 CSFs
 N-1 el internal:      190 conf      430 CSFs
 N-2 el internal:       49 conf      421 CSFs

 Number of electrons in valence space:                     14
 Maximum number of open shell orbitals in reference space:  6
 Maximum number of open shell orbitals in internal spaces: 10


 Number of closed-shell orbitals:   4 (   1   1   1   0   1   0   0   0 )
 Number of active  orbitals:        6 (   3   0   0   1   0   1   1   0 )
 Number of external orbitals:     125 (  24  20  20  11  20  11  11   8 )

 Molecular orbitals read from record     2100.2  Type=RHF/CANONICAL (state 1.1)

 Integral transformation finished. Total CPU:   0.05 sec, npass=  1  Memory used:   0.19 MW

 Number of p-space configurations:   1

 Reference wavefunction optimized for reference space (refopt=1)

 State     Reference Energy 
   1         -86.04854022

 Number of blocks in overlap matrix:    79   Smallest eigenvalue:  0.10D+01
 Number of N-2 electron functions:      79
 Number of N-1 electron functions:     430

 Number of internal configurations:                   16
 Number of singly external configurations:          6960
 Number of doubly external configurations:         78462
 Total number of contracted configurations:        85438
 Total number of uncontracted configurations:     421861

 Diagonal Coupling coefficients finished.               Storage:   49985 words, CPU-Time:      0.00 seconds.
 Energy denominators for pairs finished in 1 passes.    Storage:   71610 words, CPU-time:      0.00 seconds.

  ITER. STATE  ROOT     SQ.NORM     CORR.ENERGY   TOTAL ENERGY   ENERGY CHANGE       DEN1      VAR(S)    VAR(P)      TIME
    1     1     1     1.00000000     0.00000000   -86.04854022    -0.00000000    -0.55484707  0.31D-01  0.66D-01     0.07
    2     1     1     1.06661567    -0.47565028   -86.52419050    -0.47565028    -0.00975265  0.13D-02  0.89D-03     0.42
    3     1     1     1.06393542    -0.48507480   -86.53361502    -0.00942452    -0.00018730  0.19D-04  0.29D-04     0.74
    4     1     1     1.06482057    -0.48526313   -86.53380335    -0.00018834    -0.00001403  0.67D-05  0.11D-05     1.09
    5     1     1     1.06515477    -0.48527816   -86.53381838    -0.00001503    -0.00000090  0.17D-06  0.13D-06     1.42
    6     1     1     1.06521863    -0.48527918   -86.53381941    -0.00000103    -0.00000006  0.14D-07  0.71D-08     1.77
    7     1     1     1.06521894    -0.48527925   -86.53381947    -0.00000007    -0.00000000  0.47D-09  0.29D-09     2.12


 =====================================
 Analysis of CPU times by interactions
 =====================================

       I      S      P

 I   0.0%
 S   0.5%  43.4%
 P   0.9%   8.0%  12.3%

 Initialization:   3.3%
 Other:           31.6%

 Total CPU:        2.1 seconds
 =====================================



 Reference coefficients greater than 0.0500000
 =============================================
 2///22/2//           0.9674533



 RESULTS FOR STATE 1.1
 =====================

 Coefficient of reference function:   C(0) = 0.96745332 (fixed)   0.96745332 (relaxed)

 Energy contributions of configuration classes

 CLASS          SQ.NORM        ECORR1        ECORR2
 +++++++++++++++++++++++++++++++++++++++++++++++++++
 Internals    0.00300034   -0.01564922   -0.01600990
 Singles      0.01968218   -0.12284402   -0.12391678
 Pairs        0.04573243   -0.34678601   -0.34535257
 Total        1.06841495   -0.48527925   -0.48527925
 +++++++++++++++++++++++++++++++++++++++++++++++++++


 Reference energy                     -86.04854022
 Nuclear energy                         0.00000000
 Kinetic energy                        46.74820999
 One electron energy                 -150.37409018
 Two electron energy                   63.84027071
 Virial quotient                       -1.85106167
 Correlation energy                    -0.48527925
 !CI(SD) STATE 1.1 Energy             -86.533819472863

 Properties without orbital relaxation:

 !CI(SD) STATE 1.1 Dipole moment        0.00000000     0.00000000     0.00000000
 Dipole moment /Debye                   0.00000000     0.00000000     0.00000000

 Cluster corrected energies           -86.56701983 (Davidson, fixed reference)
 Cluster corrected energies           -86.56701983 (Davidson, relaxed reference)

 Cluster corrected energies           -86.55957747 (Pople, fixed reference)
 Cluster corrected energies           -86.55957747 (Pople, relaxed reference)

 

 !CI(SD) expec       <1.1|EKIN|1.1>    46.748209992729
 
 !CI(SD) expec        <1.1|POT|1.1>   -14.855874881701


 **********************************************************************************************************************************
 DATASETS  * FILE   NREC   LENGTH (MB)   RECORD NAMES
              1      21       41.51       500      610      700      900      950      970     1000      129      960     1100   
                                          VAR    BASINP    GEOM    SYMINP    ZMAT    AOBASIS   BASIS     P2S    ABASIS      S 
                                         1400     1410     1420     1200     1210     1080     1600     1650     1300     1700   
                                         EKIN       V       ECP      H0       H01     AOSYM     SMH    MOLCAS    ERIS     OPER   
                                         1380   
                                         JKOP   

              2       4        2.85       700     1000      520     2100   
                                         GEOM     BASIS   MCVARS     RHF  

 PROGRAMS   *        TOTAL        CI        HF       INT
 CPU TIMES  *         5.62      2.16      0.25      3.09
 REAL TIME  *        18.68 SEC
 DISK USED  *        99.83 MB      
 **********************************************************************************************************************************
 SETTING POSTHF(I)      =       -86.53381947  AU                              
                                                                                                                                                                                                                                                                

        SCF            POSTHF        EKIN           POT
    -86.04854022   -86.53381947   46.74820999   -14.85587488
                                                  

 CI/USERDEF energy=    -86.533819472863

        CI              HF-SCF  
    -86.53381947    -86.04854022
 **********************************************************************************************************************************
 Variable memory released
