TACC:  Starting up job 2696975 
TACC:  Starting parallel tasks... 
  Input file(s): Mn.log.qmc.in-wfj.xml 

=====================================================
                    QMCPACK 3.5.0 

       (c) Copyright 2003-  QMCPACK developers

                    Please cite:
 J. Kim et al. J. Phys. Cond. Mat. 30 195901 (2018)
      https://doi.org/10.1088/1361-648X/aab9c3

  Git branch: develop
  Last git commit: ca320f40410f5ef17c38db08d5c54848ef64bfe1
  Last git commit date: Tue Dec 18 15:37:17 2018 +0800
  Last git commit subject: Merge pull request #764 from Paul-St-Young/dat-h5
=====================================================
  Global options 

  MPI Nodes             = 1024
  MPI Nodes per group   = 1024
  MPI Group ID          = 0
  OMP 1st level threads = 1
  OMP nested threading disabled or only 1 thread on the 2nd level

  Precision used in this calculation, see definitions in the manual:
  Base precision      = double
  Full precision      = double

  Structure-of-arrays (SoA) optimization enabled

  Input XML = Mn.log.qmc.in-wfj.xml

  Project = Mn.log
  date    = 2018-12-27 16:39:27 CST
  host    = c403-024.stampede2.tacc.utexas.edu

 Random Number
 -------------
  Offset for the random number seeds based on time: 159

  Range of prime numbers to use as seeds over processors and threads = 947-9601


 Particle Set 
 ------------
  Name: ion0
  All the species have the same mass 1
  Particle set size: 1

 Particle Set 
 ------------
  Name: e
  All the species have the same mass 1
  Particle set size: 15

 Wavefunction setup: 
 ------------------- 
  Name: psi0
  LCAO: SoaAtomicBasisSet<MultiQuintic,1>

  Distance table for similar particles (A-A):
    source/target: e
    Using structure-of-arrays (SoA) data layout
    Distance computations use open boundary conditions in 3D.


  Distance table for dissimilar particles (A-B):
    source: ion0  target: e
    Using structure-of-arrays (SoA) data layout
    Distance computations use open boundary conditions in 3D.

Reading BasisSet from HDF5 file:Mn.log.h5
<input node="atomicBasisSet" name="gaussian" expandYlm="pyscf" angular="spherical" elementType="Mn" normalized="no" type="Numerical" expM="0" />
  AO BasisSet for Mn
   Spherical Harmonics contain (-1)^m factor
   Angular momentum m expanded as -l, ... ,l, with the exception of L=1 (1,-1,0)
   Grid is created by the input paremters in h5
    Using log grid ri = 1e-06 rf = 100 npts = 1001
   R(n,l,m,s) 0 0 0 0
   R(n,l,m,s) 1 0 0 0
   R(n,l,m,s) 2 0 0 0
   R(n,l,m,s) 3 0 0 0
   R(n,l,m,s) 4 0 0 0
   R(n,l,m,s) 5 0 0 0
   R(n,l,m,s) 6 0 0 0
   R(n,l,m,s) 7 0 0 0
   R(n,l,m,s) 8 1 0 0
   R(n,l,m,s) 9 1 0 0
   R(n,l,m,s) 10 1 0 0
   R(n,l,m,s) 11 1 0 0
   R(n,l,m,s) 12 1 0 0
   R(n,l,m,s) 13 1 0 0
   R(n,l,m,s) 14 1 0 0
   R(n,l,m,s) 15 1 0 0
   R(n,l,m,s) 16 2 0 0
   R(n,l,m,s) 17 2 0 0
   R(n,l,m,s) 18 2 0 0
   R(n,l,m,s) 19 2 0 0
   R(n,l,m,s) 20 2 0 0
   R(n,l,m,s) 21 2 0 0
   R(n,l,m,s) 22 2 0 0
   R(n,l,m,s) 23 3 0 0
   R(n,l,m,s) 24 3 0 0
   R(n,l,m,s) 25 3 0 0
   R(n,l,m,s) 26 3 0 0
   R(n,l,m,s) 27 4 0 0
   R(n,l,m,s) 28 4 0 0
   R(n,l,m,s) 29 4 0 0
   R(n,l,m,s) 30 5 0 0
   R(n,l,m,s) 31 5 0 0
Expanding Ylm as L=1 as (1,-1,0) and L>1 as -l,-l+1,...,l-1,l
   Adding 1 spherical orbitals
   Adding 1 spherical orbitals
   Adding 1 spherical orbitals
   Adding 1 spherical orbitals
   Adding 1 spherical orbitals
   Adding 1 spherical orbitals
   Adding 1 spherical orbitals
   Adding 1 spherical orbitals
   Adding 3 spherical orbitals
   Adding 3 spherical orbitals
   Adding 3 spherical orbitals
   Adding 3 spherical orbitals
   Adding 3 spherical orbitals
   Adding 3 spherical orbitals
   Adding 3 spherical orbitals
   Adding 3 spherical orbitals
   Adding 5 spherical orbitals
   Adding 5 spherical orbitals
   Adding 5 spherical orbitals
   Adding 5 spherical orbitals
   Adding 5 spherical orbitals
   Adding 5 spherical orbitals
   Adding 5 spherical orbitals
   Adding 7 spherical orbitals
   Adding 7 spherical orbitals
   Adding 7 spherical orbitals
   Adding 7 spherical orbitals
   Adding 9 spherical orbitals
   Adding 9 spherical orbitals
   Adding 9 spherical orbitals
   Adding 11 spherical orbitals
   Adding 11 spherical orbitals
   Maximum Angular Momentum  = 5
   Number of Radial functors = 32
   Basis size                = 144

  Created SPOSet builder named 'LCAOBSet' of type molecularorbital
Reuse SPOSetBuilder "LCAOBSet" type MolecularOrbital
  Building SPOSet '' with '' basis set.
Reuse SPOSetBuilder "LCAOBSet" type MolecularOrbital
  Building SPOSet '' with '' basis set.
  Creating a determinant updet group=0 sposet=updet
  Reusing a SPO set updet
Using DiracDeterminant 
Using rank-1 Sherman-Morrison Fahy update

  Creating a determinant downdet group=1 sposet=downdet
  Reusing a SPO set downdet
Using DiracDeterminant 
Using rank-1 Sherman-Morrison Fahy update

  FermionWF = SlaterDet
  RadialJastrowBuilder adds a functor with cusp = -0.25
 size = 10 parameters 
 cusp = -0.25
 rcut = 12.1
Parameter     Name      Value
uu_0 0.226905 1 1  ON 0
uu_1 0.050864 1 1  ON 1
uu_2 -0.0194149 1 1  ON 2
uu_3 -0.0601993 1 1  ON 3
uu_4 -0.0783828 1 1  ON 4
uu_5 -0.0986959 1 1  ON 5
uu_6 -0.100992 1 1  ON 6
uu_7 -0.083958 1 1  ON 7
uu_8 -0.0265057 1 1  ON 8
uu_9 0.0123805 1 1  ON 9
  RadialJastrowBuilder adds a functor with cusp = -0.5
 size = 10 parameters 
 cusp = -0.5
 rcut = 12.1
Parameter     Name      Value
ud_0 0.36041 1 1  ON 0
ud_1 0.160107 1 1  ON 1
ud_2 0.0854739 1 1  ON 2
ud_3 0.034241 1 1  ON 3
ud_4 -0.00689849 1 1  ON 4
ud_5 -0.048058 1 1  ON 5
ud_6 -0.0742524 1 1  ON 6
ud_7 -0.0825418 1 1  ON 7
ud_8 -0.0520155 1 1  ON 8
ud_9 -0.0336088 1 1  ON 9
 size = 10 parameters 
 cusp = 0
 rcut = 12.1
Parameter     Name      Value
eMn_0 -2.35904 1 1  ON 0
eMn_1 -1.3293 1 1  ON 1
eMn_2 -0.499612 1 1  ON 2
eMn_3 0.0662768 1 1  ON 3
eMn_4 0.548199 1 1  ON 4
eMn_5 0.921048 1 1  ON 5
eMn_6 1.1338 1 1  ON 6
eMn_7 0.993964 1 1  ON 7
eMn_8 0.474511 1 1  ON 8
eMn_9 0.0670793 1 1  ON 9
Expected 26 parameters, but found 0 in PolynomialFunctor3D.
Parameter     Name      Value
uuMn_0 0 1 1  ON 0
uuMn_1 0 1 1  ON 1
uuMn_2 0 1 1  ON 2
uuMn_3 0 1 1  ON 3
uuMn_4 0 1 1  ON 4
uuMn_5 0 1 1  ON 5
uuMn_6 0 1 1  ON 6
uuMn_7 0 1 1  ON 7
uuMn_8 0 1 1  ON 8
uuMn_9 0 1 1  ON 9
uuMn_10 0 1 1  ON 10
uuMn_11 0 1 1  ON 11
uuMn_12 0 1 1  ON 12
uuMn_13 0 1 1  ON 13
uuMn_14 0 1 1  ON 14
uuMn_15 0 1 1  ON 15
uuMn_16 0 1 1  ON 16
uuMn_17 0 1 1  ON 17
uuMn_18 0 1 1  ON 18
uuMn_19 0 1 1  ON 19
uuMn_20 0 1 1  ON 20
uuMn_21 0 1 1  ON 21
uuMn_22 0 1 1  ON 22
uuMn_23 0 1 1  ON 23
uuMn_24 0 1 1  ON 24
uuMn_25 0 1 1  ON 25
Expected 26 parameters, but found 0 in PolynomialFunctor3D.
Parameter     Name      Value
udMn_0 0 1 1  ON 0
udMn_1 0 1 1  ON 1
udMn_2 0 1 1  ON 2
udMn_3 0 1 1  ON 3
udMn_4 0 1 1  ON 4
udMn_5 0 1 1  ON 5
udMn_6 0 1 1  ON 6
udMn_7 0 1 1  ON 7
udMn_8 0 1 1  ON 8
udMn_9 0 1 1  ON 9
udMn_10 0 1 1  ON 10
udMn_11 0 1 1  ON 11
udMn_12 0 1 1  ON 12
udMn_13 0 1 1  ON 13
udMn_14 0 1 1  ON 14
udMn_15 0 1 1  ON 15
udMn_16 0 1 1  ON 16
udMn_17 0 1 1  ON 17
udMn_18 0 1 1  ON 18
udMn_19 0 1 1  ON 19
udMn_20 0 1 1  ON 20
udMn_21 0 1 1  ON 21
udMn_22 0 1 1  ON 22
udMn_23 0 1 1  ON 23
udMn_24 0 1 1  ON 24
udMn_25 0 1 1  ON 25
  QMCHamiltonian::addOperator Kinetic to H, physical Hamiltonian 
  QMCHamiltonian::addOperator ElecElec to H, physical Hamiltonian 
QMCHamiltonian::addOperatorType added type coulomb named ElecElec
  CoulombAA for ion0 is not created.  Number of particles == 1 and nonPeriodic

  ECPotential builder for pseudopotential 

  Adding pseudopotential for Mn
   Linear grid  ri=0 rf=10 npts = 10001
    ECPComponentBuilder::buildSemiLocalAndLocal 
    Assuming Hartree unit
   Number of angular momentum channels 3
   Maximum angular momentum channel 2
   Creating a Linear Grid Rmax=1.365
  Using global grid with delta = 0.001
   Making L=2 a local potential with a radial cutoff of 9.999
    Non-local pseudopotential parameters
    Maximum angular mementum = 1
    Number of non-local channels = 2
       l(0)=0
       l(1)=1
    Cutoff radius = 1.365
    Spherical grids and weights: 
                        1                 0                 0       0.08333333333
                       -1   1.224646799e-16                 0       0.08333333333
             0.4472135955       0.894427191                 0       0.08333333333
            -0.4472135955      0.7236067977      0.5257311121       0.08333333333
             0.4472135955      0.2763932023      0.8506508084       0.08333333333
            -0.4472135955     -0.2763932023      0.8506508084       0.08333333333
             0.4472135955     -0.7236067977      0.5257311121       0.08333333333
            -0.4472135955      -0.894427191   1.095357397e-16       0.08333333333
             0.4472135955     -0.7236067977     -0.5257311121       0.08333333333
            -0.4472135955     -0.2763932023     -0.8506508084       0.08333333333
             0.4472135955      0.2763932023     -0.8506508084       0.08333333333
            -0.4472135955      0.7236067977     -0.5257311121       0.08333333333
    Maximum cutoff radius 1.365
  QMCHamiltonian::addOperator LocalECP to H, physical Hamiltonian 

  Using NonLocalECP potential 
    Maximum grid on a sphere for NonLocalECPotential: 12
  QMCHamiltonian::addOperator NonLocalECP to H, physical Hamiltonian 
QMCHamiltonian::addOperatorType added type pseudo named PseudoPot

  QMCHamiltonian::add2WalkerProperty added
    4 to P::PropertyList 
    0 to P::Collectables 
    starting Index of the observables in P::PropertyList = 9
ParticleSetPool::randomize 
<init source="ion0" target="e">
</init>
  Initialization Execution time = 0.5795 secs
=========================================================
 Summary of QMC systems 
=========================================================
ParticleSetPool has: 

  ParticleSet e : 0 10 15 

    15

    u -3.8440095639e+00  1.4819870962e+00  9.4549045687e-01
    u -3.2582414779e+00 -1.0363212625e+00  7.1795589472e-01
    u  1.7707569531e+00 -1.7579732266e+00 -1.4744776508e+00
    u  1.1598178495e+00  4.4889329657e-01  7.6016439367e-01
    u  2.2874118547e-01  7.1661861846e-01 -4.4356606535e+00
    u -2.2157846824e+00 -1.8229608788e-01  1.2979233514e-01
    u  3.5384366050e-01  2.8816347716e-01 -2.3636965712e-01
    u -6.0769673247e-01  1.1401513281e+00 -1.9222927563e+00
    u -5.7836083000e-01  3.9582432815e+00  6.7867639476e-02
    u -1.2441173447e+00  8.1346464162e-01 -1.7517302982e+00
    (... and 5 more particle positions ...)

  ParticleSet ion0 : 0 1 

    1

    Mn  0.0000000000e+00  0.0000000000e+00  0.0000000000e+00

  Hamiltonian h0
  Kinetic         Kinetic energy
  ElecElec        CoulombAA source/target e

  LocalECP        LocalECPotential: ion0
  NonLocalECP     NonLocalECPotential: ion0

=========================================================
  Start VMC
  File Root Mn.log.s000 append = no 
=========================================================
  Adding 1 walkers to 0 existing sets
  Total number of walkers: 1.0240000000e+03
  Total weight: 1.0240000000e+03
  Resetting Properties of the walkers 1 x 13

<vmc function="put">
  qmc_counter=0  my_counter=0
  time step      = 1.5000000000e-01
  blocks         = 200
  steps          = 1
  substeps       = 5
  current        = 0
  target samples = 1.0240000000e+03
  walkers/mpi    = 1

  stepsbetweensamples = 200
<parameter name="blocks" condition="int">200</parameter>
<parameter name="blocks_between_recompute" condition="int">0</parameter>
<parameter name="check_properties" condition="int">100</parameter>
<parameter name="checkproperties" condition="int">100</parameter>
<parameter name="current" condition="int">0</parameter>
<parameter name="dmcwalkersperthread" condition="real">1.0000000000e+00</parameter>
<parameter name="maxcpusecs" condition="real">3.6000000000e+05</parameter>
<parameter name="record_configs" condition="int">0</parameter>
<parameter name="record_walkers" condition="int">200</parameter>
<parameter name="recordconfigs" condition="int">0</parameter>
<parameter name="recordwalkers" condition="int">200</parameter>
<parameter name="rewind" condition="int">0</parameter>
<parameter name="samples" condition="real">1.0240000000e+03</parameter>
<parameter name="samplesperthread" condition="real">1.0000000000e+00</parameter>
<parameter name="steps" condition="int">1</parameter>
<parameter name="stepsbetweensamples" condition="int">200</parameter>
<parameter name="store_configs" condition="int">0</parameter>
<parameter name="storeconfigs" condition="int">0</parameter>
<parameter name="sub_steps" condition="int">5</parameter>
<parameter name="substeps" condition="int">5</parameter>
<parameter name="tau" condition="au">1.5000000000e-01</parameter>
<parameter name="time_step" condition="au">1.5000000000e-01</parameter>
<parameter name="timestep" condition="au">1.5000000000e-01</parameter>
<parameter name="use_drift" condition="string">no</parameter>
<parameter name="usedrift" condition="string">no</parameter>
<parameter name="walkers" condition="int">1</parameter>
<parameter name="warmup_steps" condition="int">100</parameter>
<parameter name="warmupsteps" condition="int">100</parameter>
  DumpConfig==false Nothing (configurations, state) will be saved.
  Walker Samples are dumped every 200 steps.
</vmc>
  Initial partition of walkers 0 1 

  Using Particle by Particle moves
  Walker moves without drift
  Total Sample Size   =1024
  Walker distribution on root = 0 1 
  Using Locality Approximation
===== Memory Usage after the buffer registration =====
Available memory on node 0, free + buffers : 85270 MB
Memory footprint by rank 0 on node 0       : 75 MB
==================================================
  Anonymous Buffer size per walker : 8096 Bytes.
MEMORY increase 0 MB VMC::resetRun
====================================================
  SimpleFixedNodeBranch::finalize after a VMC block
    QMC counter        = 0
    time step          = 0.15
    reference energy   = -103.725
    reference variance = 1.2351
====================================================
  QMC Execution time = 1.6817e+00 secs 
Loop execution max-interations = 20

=========================================================
  Start QMCFixedSampleLinearOptimize
  File Root Mn.log.s001 append = no 
=========================================================
  Skip QMCDriver::putQMCInfo 
  Resetting Properties of the walkers 1 x 13

=========================================================
  Start VMC
  File Root Mn.log.s001 append = no 
=========================================================
  Using the current 1 walkers.
  Total number of walkers: 1.0240e+03
  Total weight: 1.0240e+03
  Resetting Properties of the walkers 1 x 13

<vmc function="put">
  qmc_counter=0  my_counter=0
  time step      = 1.5000e-01
  blocks         = 500
  steps          = 1
  substeps       = 5
  current        = 0
  target samples = 5.1200e+05
  walkers/mpi    = 1

  stepsbetweensamples = 1
<parameter name="blocks" condition="int">500</parameter>
<parameter name="blocks_between_recompute" condition="int">0</parameter>
<parameter name="check_properties" condition="int">100</parameter>
<parameter name="checkproperties" condition="int">100</parameter>
<parameter name="current" condition="int">0</parameter>
<parameter name="dmcwalkersperthread" condition="real">5.0000e+02</parameter>
<parameter name="maxcpusecs" condition="real">3.6000e+05</parameter>
<parameter name="record_configs" condition="int">0</parameter>
<parameter name="record_walkers" condition="int">1</parameter>
<parameter name="recordconfigs" condition="int">0</parameter>
<parameter name="recordwalkers" condition="int">1</parameter>
<parameter name="rewind" condition="int">0</parameter>
<parameter name="samples" condition="real">5.1200e+05</parameter>
<parameter name="samplesperthread" condition="real">5.0000e+02</parameter>
<parameter name="steps" condition="int">1</parameter>
<parameter name="stepsbetweensamples" condition="int">1</parameter>
<parameter name="store_configs" condition="int">0</parameter>
<parameter name="storeconfigs" condition="int">0</parameter>
<parameter name="sub_steps" condition="int">5</parameter>
<parameter name="substeps" condition="int">5</parameter>
<parameter name="tau" condition="au">1.5000e-01</parameter>
<parameter name="time_step" condition="au">1.5000e-01</parameter>
<parameter name="timestep" condition="au">1.5000e-01</parameter>
<parameter name="use_drift" condition="string">no</parameter>
<parameter name="usedrift" condition="string">no</parameter>
<parameter name="walkers" condition="int">1</parameter>
<parameter name="warmup_steps" condition="int">0</parameter>
<parameter name="warmupsteps" condition="int">0</parameter>
  DumpConfig==false Nothing (configurations, state) will be saved.
  Walker Samples are dumped every 1 steps.
</vmc>
    Restarting, cummulative properties:
      energy     = -1.0372e+02
      variance   = 0.0000e+00
      r2accepted = 1.0000e-10
      r2proposed = 1.0000e-10
 Using QMCCostFunction::QMCCostFunction
  EstimatorManagerBase::add replace LocalEnergy estimator.
<optimization-report>
<vmc stage="main" blocks="500">
  Cannot make clones again. Use existing 1 clones
  Initial partition of walkers 0 1 

  Using Particle by Particle moves
  Walker moves without drift
  Total Sample Size   =512000
  Walker distribution on root = 0 1 
  Using Locality Approximation
===== Memory Usage after the buffer registration =====
Available memory on node 0, free + buffers : 85243 MB
Memory footprint by rank 0 on node 0       : 75 MB
==================================================
  Anonymous Buffer size per walker : 8096 Bytes.
MEMORY increase 0 MB VMC::resetRun
====================================================
  SimpleFixedNodeBranch::finalize after a VMC block
    QMC counter        = 1
    time step          = 0.15
    reference energy   = -103.822
    reference variance = 1.64445
====================================================
  Execution time = 4.2770e+00
</vmc>
<opt stage="setup">
  <log>
   Reading configurations from h5FileRoot Mn.log.s001
  QMCCostFunction is created with 1 threads.
  Using Nonlocal PP in Opt: NonLocalECP
   Number of samples loaded to each thread : 500 
  VMC Eavg = -1.0376e+02
  VMC Evar = 1.5417e+00
  Total weights = 5.1200e+05
  Execution time = 2.4384e+00
  </log>
</opt>
<opt stage="main" walkers="512000">
  <log>

*****************************************
Building overlap and Hamiltonian matrices
*****************************************

Among totally 82 optimized parameters, largest LM parameter change : 1.0642e-01 at parameter 10

******************************************************************************
Init Cost =  -9.8497e+01    New Cost =  -9.8532e+01  Delta Cost =  -3.5326e-02
******************************************************************************

The new set of parameters is valid. Updating the trial wave function!

*****************************************************************************
Applying the update for shift_i =   1.0000e-02     and shift_s =   2.5000e-01
*****************************************************************************
  Execution time = 7.8515e+00
  </log>
  <optVariables href="Mn.log.s001.opt.xml">
uu_0 2.1518e-01 1 1  ON 0
uu_1 5.8360e-02 1 1  ON 1
uu_2 -1.3694e-02 1 1  ON 2
uu_3 -4.9762e-02 1 1  ON 3
uu_4 -7.3572e-02 1 1  ON 4
uu_5 -9.5045e-02 1 1  ON 5
uu_6 -1.0020e-01 1 1  ON 6
uu_7 -8.2895e-02 1 1  ON 7
uu_8 -2.8195e-02 1 1  ON 8
uu_9 1.0204e-02 1 1  ON 9
ud_0 4.6683e-01 1 1  ON 10
ud_1 2.0748e-01 1 1  ON 11
ud_2 8.2604e-02 1 1  ON 12
ud_3 2.7169e-02 1 1  ON 13
ud_4 -1.5168e-02 1 1  ON 14
ud_5 -6.2184e-02 1 1  ON 15
ud_6 -7.8318e-02 1 1  ON 16
ud_7 -9.0610e-02 1 1  ON 17
ud_8 -6.5687e-02 1 1  ON 18
ud_9 -3.7929e-02 1 1  ON 19
eMn_0 -2.3744e+00 1 1  ON 20
eMn_1 -1.4238e+00 1 1  ON 21
eMn_2 -4.3853e-01 1 1  ON 22
eMn_3 1.0781e-01 1 1  ON 23
eMn_4 5.5531e-01 1 1  ON 24
eMn_5 9.1423e-01 1 1  ON 25
eMn_6 1.1094e+00 1 1  ON 26
eMn_7 1.0012e+00 1 1  ON 27
eMn_8 4.9839e-01 1 1  ON 28
eMn_9 7.3916e-02 1 1  ON 29
uuMn_0 2.2524e-06 1 1  ON 30
uuMn_1 2.6864e-06 1 1  ON 31
uuMn_2 -2.3752e-07 1 1  ON 32
uuMn_3 -3.3452e-06 1 1  ON 33
uuMn_4 -5.1743e-07 1 1  ON 34
uuMn_5 9.3089e-08 1 1  ON 35
uuMn_6 9.0706e-07 1 1  ON 36
uuMn_7 1.7548e-06 1 1  ON 37
uuMn_8 2.1647e-06 1 1  ON 38
uuMn_9 -3.2629e-06 1 1  ON 39
uuMn_10 -2.0373e-06 1 1  ON 40
uuMn_11 -1.2219e-06 1 1  ON 41
uuMn_12 -4.5794e-07 1 1  ON 42
uuMn_13 2.8612e-06 1 1  ON 43
uuMn_14 5.7359e-07 1 1  ON 44
uuMn_15 -1.4380e-08 1 1  ON 45
uuMn_16 2.1978e-06 1 1  ON 46
uuMn_17 2.4719e-06 1 1  ON 47
uuMn_18 1.1854e-07 1 1  ON 48
uuMn_19 4.4879e-08 1 1  ON 49
uuMn_20 -6.6811e-07 1 1  ON 50
uuMn_21 -1.2449e-07 1 1  ON 51
uuMn_22 2.4986e-08 1 1  ON 52
uuMn_23 1.9493e-07 1 1  ON 53
uuMn_24 1.7409e-08 1 1  ON 54
uuMn_25 -7.6849e-09 1 1  ON 55
udMn_0 3.4650e-06 1 1  ON 56
udMn_1 9.2647e-06 1 1  ON 57
udMn_2 2.5851e-06 1 1  ON 58
udMn_3 -6.0668e-06 1 1  ON 59
udMn_4 -1.4345e-06 1 1  ON 60
udMn_5 -6.4271e-07 1 1  ON 61
udMn_6 1.3683e-05 1 1  ON 62
udMn_7 -2.9217e-06 1 1  ON 63
udMn_8 3.6653e-06 1 1  ON 64
udMn_9 -1.3796e-05 1 1  ON 65
udMn_10 -4.3342e-06 1 1  ON 66
udMn_11 -1.9036e-08 1 1  ON 67
udMn_12 -8.1135e-07 1 1  ON 68
udMn_13 6.9704e-06 1 1  ON 69
udMn_14 4.6568e-07 1 1  ON 70
udMn_15 2.4203e-08 1 1  ON 71
udMn_16 1.3898e-05 1 1  ON 72
udMn_17 3.8508e-06 1 1  ON 73
udMn_18 -1.7211e-06 1 1  ON 74
udMn_19 3.1015e-07 1 1  ON 75
udMn_20 -4.1217e-06 1 1  ON 76
udMn_21 3.7196e-07 1 1  ON 77
udMn_22 -5.0314e-08 1 1  ON 78
udMn_23 1.1403e-06 1 1  ON 79
udMn_24 -1.2496e-07 1 1  ON 80
udMn_25 1.4539e-08 1 1  ON 81
  </optVariables>
   Restore the number of walkers to 1, removing 0 walkers.
</opt>
</optimization-report>
  QMC Execution time = 7.8681e+00 secs 
  Reusing QMCFixedSampleLinearOptimize
 Using QMCCostFunction::QMCCostFunction

=========================================================
  Start QMCFixedSampleLinearOptimize
  File Root Mn.log.s002 append = no 
=========================================================
  Skip QMCDriver::putQMCInfo 
  Resetting Properties of the walkers 1 x 13

=========================================================
  Start VMC
  File Root Mn.log.s002 append = no 
=========================================================
Using existing walkers 
  Resetting Properties of the walkers 1 x 13

<vmc function="put">
  qmc_counter=1  my_counter=1
  time step      = 1.5000e-01
  blocks         = 500
  steps          = 1
  substeps       = 5
  current        = 0
  target samples = 5.1200e+05
  walkers/mpi    = 1

  stepsbetweensamples = 1
<parameter name="blocks" condition="int">500</parameter>
<parameter name="blocks_between_recompute" condition="int">0</parameter>
<parameter name="check_properties" condition="int">100</parameter>
<parameter name="checkproperties" condition="int">100</parameter>
<parameter name="current" condition="int">0</parameter>
<parameter name="dmcwalkersperthread" condition="real">5.0000e+02</parameter>
<parameter name="maxcpusecs" condition="real">3.6000e+05</parameter>
<parameter name="record_configs" condition="int">0</parameter>
<parameter name="record_walkers" condition="int">1</parameter>
<parameter name="recordconfigs" condition="int">0</parameter>
<parameter name="recordwalkers" condition="int">1</parameter>
<parameter name="rewind" condition="int">0</parameter>
<parameter name="samples" condition="real">5.1200e+05</parameter>
<parameter name="samplesperthread" condition="real">5.0000e+02</parameter>
<parameter name="steps" condition="int">1</parameter>
<parameter name="stepsbetweensamples" condition="int">1</parameter>
<parameter name="store_configs" condition="int">0</parameter>
<parameter name="storeconfigs" condition="int">0</parameter>
<parameter name="sub_steps" condition="int">5</parameter>
<parameter name="substeps" condition="int">5</parameter>
<parameter name="tau" condition="au">1.5000e-01</parameter>
<parameter name="time_step" condition="au">1.5000e-01</parameter>
<parameter name="timestep" condition="au">1.5000e-01</parameter>
<parameter name="use_drift" condition="string">no</parameter>
<parameter name="usedrift" condition="string">no</parameter>
<parameter name="walkers" condition="int">1</parameter>
<parameter name="warmup_steps" condition="int">0</parameter>
<parameter name="warmupsteps" condition="int">0</parameter>
  DumpConfig==false Nothing (configurations, state) will be saved.
  Walker Samples are dumped every 1 steps.
</vmc>
  EstimatorManagerBase::add replace LocalEnergy estimator.
  EstimatorManagerBase::add replace LocalEnergy estimator.
<optimization-report>
<vmc stage="main" blocks="500">
  Cannot make clones again. Use existing 1 clones
  Initial partition of walkers 0 1 
  Using Particle by Particle moves
  Walker moves without drift
  Total Sample Size   =512000
  Walker distribution on root = 0 1 
  Using Locality Approximation
===== Memory Usage after the buffer registration =====
Available memory on node 0, free + buffers : 84110 MB
Memory footprint by rank 0 on node 0       : 96 MB
==================================================
====================================================
  SimpleFixedNodeBranch::finalize after a VMC block
    QMC counter        = 2
    time step          = 0.15
    reference energy   = -103.746
    reference variance = 1.6745
====================================================
  Execution time = 4.5110e+00
</vmc>
<opt stage="setup">
  <log>
   Reading configurations from h5FileRoot Mn.log.s002
  QMCCostFunction is created with 1 threads.
  Using Nonlocal PP in Opt: NonLocalECP
   Number of samples loaded to each thread : 500 
  VMC Eavg = -1.0379e+02
  VMC Evar = 1.3521e+00
  Total weights = 5.1200e+05
  Execution time = 2.4201e+00
  </log>
</opt>
<opt stage="main" walkers="512000">
  <log>

*****************************************
Building overlap and Hamiltonian matrices
*****************************************

Among totally 82 optimized parameters, largest LM parameter change : 7.9961e-02 at parameter 10

******************************************************************************
Init Cost =  -9.8529e+01    New Cost =  -9.8530e+01  Delta Cost =  -1.0835e-03
******************************************************************************

The new set of parameters is valid. Updating the trial wave function!

*****************************************************************************
Applying the update for shift_i =   1.0000e-02     and shift_s =   6.2500e-02
*****************************************************************************
  Execution time = 8.0206e+00
  </log>
  <optVariables href="Mn.log.s002.opt.xml">
uu_0 2.1026e-01 1 1  ON 0
uu_1 5.8751e-02 1 1  ON 1
uu_2 -9.9017e-03 1 1  ON 2
uu_3 -4.2998e-02 1 1  ON 3
uu_4 -6.8893e-02 1 1  ON 4
uu_5 -9.0057e-02 1 1  ON 5
uu_6 -9.4337e-02 1 1  ON 6
uu_7 -7.7125e-02 1 1  ON 7
uu_8 -2.7919e-02 1 1  ON 8
uu_9 8.0818e-03 1 1  ON 9
ud_0 5.4679e-01 1 1  ON 10
ud_1 2.5930e-01 1 1  ON 11
ud_2 1.0082e-01 1 1  ON 12
ud_3 2.9745e-02 1 1  ON 13
ud_4 -2.0146e-02 1 1  ON 14
ud_5 -6.7038e-02 1 1  ON 15
ud_6 -8.4075e-02 1 1  ON 16
ud_7 -9.5666e-02 1 1  ON 17
ud_8 -7.6501e-02 1 1  ON 18
ud_9 -5.1286e-02 1 1  ON 19
eMn_0 -2.4015e+00 1 1  ON 20
eMn_1 -1.4821e+00 1 1  ON 21
eMn_2 -4.1626e-01 1 1  ON 22
eMn_3 1.6597e-01 1 1  ON 23
eMn_4 5.6232e-01 1 1  ON 24
eMn_5 8.9097e-01 1 1  ON 25
eMn_6 1.0957e+00 1 1  ON 26
eMn_7 1.0118e+00 1 1  ON 27
eMn_8 5.2351e-01 1 1  ON 28
eMn_9 8.2734e-02 1 1  ON 29
uuMn_0 2.4586e-06 1 1  ON 30
uuMn_1 3.1322e-06 1 1  ON 31
uuMn_2 -2.8622e-07 1 1  ON 32
uuMn_3 -3.7707e-06 1 1  ON 33
uuMn_4 -5.9697e-07 1 1  ON 34
uuMn_5 1.5562e-07 1 1  ON 35
uuMn_6 1.1050e-06 1 1  ON 36
uuMn_7 1.9749e-06 1 1  ON 37
uuMn_8 2.4303e-06 1 1  ON 38
uuMn_9 -3.6415e-06 1 1  ON 39
uuMn_10 -2.3199e-06 1 1  ON 40
uuMn_11 -1.2911e-06 1 1  ON 41
uuMn_12 -5.6714e-07 1 1  ON 42
uuMn_13 3.1042e-06 1 1  ON 43
uuMn_14 6.8422e-07 1 1  ON 44
uuMn_15 -1.4533e-08 1 1  ON 45
uuMn_16 2.6771e-06 1 1  ON 46
uuMn_17 2.8625e-06 1 1  ON 47
uuMn_18 -2.0888e-08 1 1  ON 48
uuMn_19 1.1648e-07 1 1  ON 49
uuMn_20 -8.5005e-07 1 1  ON 50
uuMn_21 -1.3128e-07 1 1  ON 51
uuMn_22 2.1007e-08 1 1  ON 52
uuMn_23 3.3559e-07 1 1  ON 53
uuMn_24 1.0331e-08 1 1  ON 54
uuMn_25 -7.1692e-09 1 1  ON 55
udMn_0 4.0712e-06 1 1  ON 56
udMn_1 9.8588e-06 1 1  ON 57
udMn_2 2.7831e-06 1 1  ON 58
udMn_3 -6.6692e-06 1 1  ON 59
udMn_4 -1.5256e-06 1 1  ON 60
udMn_5 -1.0371e-06 1 1  ON 61
udMn_6 1.4518e-05 1 1  ON 62
udMn_7 -2.4655e-06 1 1  ON 63
udMn_8 3.7454e-06 1 1  ON 64
udMn_9 -1.4992e-05 1 1  ON 65
udMn_10 -4.5967e-06 1 1  ON 66
udMn_11 -2.5329e-07 1 1  ON 67
udMn_12 -7.5415e-07 1 1  ON 68
udMn_13 7.1191e-06 1 1  ON 69
udMn_14 4.1603e-07 1 1  ON 70
udMn_15 2.2754e-08 1 1  ON 71
udMn_16 1.5620e-05 1 1  ON 72
udMn_17 3.5324e-06 1 1  ON 73
udMn_18 -1.5506e-06 1 1  ON 74
udMn_19 2.3320e-07 1 1  ON 75
udMn_20 -4.5868e-06 1 1  ON 76
udMn_21 4.0044e-07 1 1  ON 77
udMn_22 -4.4378e-08 1 1  ON 78
udMn_23 1.3878e-06 1 1  ON 79
udMn_24 -1.4293e-07 1 1  ON 80
udMn_25 1.4695e-08 1 1  ON 81
  </optVariables>
   Restore the number of walkers to 1, removing 0 walkers.
</opt>
</optimization-report>
  QMC Execution time = 8.0396e+00 secs 
  Reusing QMCFixedSampleLinearOptimize
 Using QMCCostFunction::QMCCostFunction

=========================================================
  Start QMCFixedSampleLinearOptimize
  File Root Mn.log.s003 append = no 
=========================================================
  Skip QMCDriver::putQMCInfo 
  Resetting Properties of the walkers 1 x 13

=========================================================
  Start VMC
  File Root Mn.log.s003 append = no 
=========================================================
Using existing walkers 
  Resetting Properties of the walkers 1 x 13

<vmc function="put">
  qmc_counter=2  my_counter=2
  time step      = 1.5000e-01
  blocks         = 500
  steps          = 1
  substeps       = 5
  current        = 0
  target samples = 5.1200e+05
  walkers/mpi    = 1

  stepsbetweensamples = 1
<parameter name="blocks" condition="int">500</parameter>
<parameter name="blocks_between_recompute" condition="int">0</parameter>
<parameter name="check_properties" condition="int">100</parameter>
<parameter name="checkproperties" condition="int">100</parameter>
<parameter name="current" condition="int">0</parameter>
<parameter name="dmcwalkersperthread" condition="real">5.0000e+02</parameter>
<parameter name="maxcpusecs" condition="real">3.6000e+05</parameter>
<parameter name="record_configs" condition="int">0</parameter>
<parameter name="record_walkers" condition="int">1</parameter>
<parameter name="recordconfigs" condition="int">0</parameter>
<parameter name="recordwalkers" condition="int">1</parameter>
<parameter name="rewind" condition="int">0</parameter>
<parameter name="samples" condition="real">5.1200e+05</parameter>
<parameter name="samplesperthread" condition="real">5.0000e+02</parameter>
<parameter name="steps" condition="int">1</parameter>
<parameter name="stepsbetweensamples" condition="int">1</parameter>
<parameter name="store_configs" condition="int">0</parameter>
<parameter name="storeconfigs" condition="int">0</parameter>
<parameter name="sub_steps" condition="int">5</parameter>
<parameter name="substeps" condition="int">5</parameter>
<parameter name="tau" condition="au">1.5000e-01</parameter>
<parameter name="time_step" condition="au">1.5000e-01</parameter>
<parameter name="timestep" condition="au">1.5000e-01</parameter>
<parameter name="use_drift" condition="string">no</parameter>
<parameter name="usedrift" condition="string">no</parameter>
<parameter name="walkers" condition="int">1</parameter>
<parameter name="warmup_steps" condition="int">0</parameter>
<parameter name="warmupsteps" condition="int">0</parameter>
  DumpConfig==false Nothing (configurations, state) will be saved.
  Walker Samples are dumped every 1 steps.
</vmc>
  EstimatorManagerBase::add replace LocalEnergy estimator.
  EstimatorManagerBase::add replace LocalEnergy estimator.
<optimization-report>
<vmc stage="main" blocks="500">
  Cannot make clones again. Use existing 1 clones
  Initial partition of walkers 0 1 
  Using Particle by Particle moves
  Walker moves without drift
  Total Sample Size   =512000
  Walker distribution on root = 0 1 
  Using Locality Approximation
===== Memory Usage after the buffer registration =====
Available memory on node 0, free + buffers : 84105 MB
Memory footprint by rank 0 on node 0       : 99 MB
==================================================
====================================================
  SimpleFixedNodeBranch::finalize after a VMC block
    QMC counter        = 3
    time step          = 0.15
    reference energy   = -103.762
    reference variance = 1.39302
====================================================
  Execution time = 4.2147e+00
</vmc>
<opt stage="setup">
  <log>
   Reading configurations from h5FileRoot Mn.log.s003
  QMCCostFunction is created with 1 threads.
  Using Nonlocal PP in Opt: NonLocalECP
   Number of samples loaded to each thread : 500 
  VMC Eavg = -1.0379e+02
  VMC Evar = 1.3500e+00
  Total weights = 5.1200e+05
  Execution time = 2.4159e+00
  </log>
</opt>
<opt stage="main" walkers="512000">
  <log>

*****************************************
Building overlap and Hamiltonian matrices
*****************************************

Among totally 82 optimized parameters, largest LM parameter change : 5.4118e-02 at parameter 10

******************************************************************************
Init Cost =  -9.8533e+01    New Cost =  -9.8533e+01  Delta Cost =  -7.4160e-05
******************************************************************************

The new set of parameters is valid. Updating the trial wave function!

*****************************************************************************
Applying the update for shift_i =   1.0000e-02     and shift_s =   1.5625e-02
*****************************************************************************
  Execution time = 7.7308e+00
  </log>
  <optVariables href="Mn.log.s003.opt.xml">
uu_0 2.0911e-01 1 1  ON 0
uu_1 5.9287e-02 1 1  ON 1
uu_2 -6.6725e-03 1 1  ON 2
uu_3 -4.2029e-02 1 1  ON 3
uu_4 -7.0523e-02 1 1  ON 4
uu_5 -9.1517e-02 1 1  ON 5
uu_6 -9.2190e-02 1 1  ON 6
uu_7 -7.3913e-02 1 1  ON 7
uu_8 -2.4569e-02 1 1  ON 8
uu_9 1.2266e-02 1 1  ON 9
ud_0 6.0091e-01 1 1  ON 10
ud_1 2.9664e-01 1 1  ON 11
ud_2 1.1260e-01 1 1  ON 12
ud_3 2.4229e-02 1 1  ON 13
ud_4 -3.0678e-02 1 1  ON 14
ud_5 -7.7288e-02 1 1  ON 15
ud_6 -9.3324e-02 1 1  ON 16
ud_7 -1.0623e-01 1 1  ON 17
ud_8 -8.6255e-02 1 1  ON 18
ud_9 -4.7165e-02 1 1  ON 19
eMn_0 -2.4294e+00 1 1  ON 20
eMn_1 -1.5279e+00 1 1  ON 21
eMn_2 -4.0160e-01 1 1  ON 22
eMn_3 2.1575e-01 1 1  ON 23
eMn_4 5.7335e-01 1 1  ON 24
eMn_5 8.6596e-01 1 1  ON 25
eMn_6 1.0834e+00 1 1  ON 26
eMn_7 1.0211e+00 1 1  ON 27
eMn_8 5.4613e-01 1 1  ON 28
eMn_9 9.0795e-02 1 1  ON 29
uuMn_0 2.5899e-06 1 1  ON 30
uuMn_1 3.3137e-06 1 1  ON 31
uuMn_2 -2.1502e-07 1 1  ON 32
uuMn_3 -3.8271e-06 1 1  ON 33
uuMn_4 -5.6184e-07 1 1  ON 34
uuMn_5 1.6821e-07 1 1  ON 35
uuMn_6 1.3698e-06 1 1  ON 36
uuMn_7 1.7011e-06 1 1  ON 37
uuMn_8 2.4932e-06 1 1  ON 38
uuMn_9 -4.0137e-06 1 1  ON 39
uuMn_10 -2.2364e-06 1 1  ON 40
uuMn_11 -1.3965e-06 1 1  ON 41
uuMn_12 -5.3065e-07 1 1  ON 42
uuMn_13 3.2392e-06 1 1  ON 43
uuMn_14 6.4848e-07 1 1  ON 44
uuMn_15 -1.4555e-08 1 1  ON 45
uuMn_16 3.2295e-06 1 1  ON 46
uuMn_17 2.7753e-06 1 1  ON 47
uuMn_18 1.2631e-08 1 1  ON 48
uuMn_19 8.6003e-08 1 1  ON 49
uuMn_20 -1.0080e-06 1 1  ON 50
uuMn_21 -9.5054e-08 1 1  ON 51
uuMn_22 1.8908e-08 1 1  ON 52
uuMn_23 3.5750e-07 1 1  ON 53
uuMn_24 -9.8282e-10 1 1  ON 54
uuMn_25 -5.6297e-09 1 1  ON 55
udMn_0 4.5971e-06 1 1  ON 56
udMn_1 9.9155e-06 1 1  ON 57
udMn_2 2.4770e-06 1 1  ON 58
udMn_3 -7.1325e-06 1 1  ON 59
udMn_4 -1.5009e-06 1 1  ON 60
udMn_5 -1.3462e-06 1 1  ON 61
udMn_6 1.4308e-05 1 1  ON 62
udMn_7 -2.8670e-06 1 1  ON 63
udMn_8 3.5662e-06 1 1  ON 64
udMn_9 -1.5233e-05 1 1  ON 65
udMn_10 -4.7819e-06 1 1  ON 66
udMn_11 2.7053e-07 1 1  ON 67
udMn_12 -7.5057e-07 1 1  ON 68
udMn_13 7.5924e-06 1 1  ON 69
udMn_14 4.1806e-07 1 1  ON 70
udMn_15 2.1988e-08 1 1  ON 71
udMn_16 1.5379e-05 1 1  ON 72
udMn_17 4.2444e-06 1 1  ON 73
udMn_18 -2.0692e-06 1 1  ON 74
udMn_19 2.7548e-07 1 1  ON 75
udMn_20 -4.7584e-06 1 1  ON 76
udMn_21 4.6281e-07 1 1  ON 77
udMn_22 -5.1546e-08 1 1  ON 78
udMn_23 1.4187e-06 1 1  ON 79
udMn_24 -1.5260e-07 1 1  ON 80
udMn_25 1.5770e-08 1 1  ON 81
  </optVariables>
   Restore the number of walkers to 1, removing 0 walkers.
</opt>
</optimization-report>
  QMC Execution time = 7.7500e+00 secs 
  Reusing QMCFixedSampleLinearOptimize
 Using QMCCostFunction::QMCCostFunction

=========================================================
  Start QMCFixedSampleLinearOptimize
  File Root Mn.log.s004 append = no 
=========================================================
  Skip QMCDriver::putQMCInfo 
  Resetting Properties of the walkers 1 x 13

=========================================================
  Start VMC
  File Root Mn.log.s004 append = no 
=========================================================
Using existing walkers 
  Resetting Properties of the walkers 1 x 13

<vmc function="put">
  qmc_counter=3  my_counter=3
  time step      = 1.5000e-01
  blocks         = 500
  steps          = 1
  substeps       = 5
  current        = 0
  target samples = 5.1200e+05
  walkers/mpi    = 1

  stepsbetweensamples = 1
<parameter name="blocks" condition="int">500</parameter>
<parameter name="blocks_between_recompute" condition="int">0</parameter>
<parameter name="check_properties" condition="int">100</parameter>
<parameter name="checkproperties" condition="int">100</parameter>
<parameter name="current" condition="int">0</parameter>
<parameter name="dmcwalkersperthread" condition="real">5.0000e+02</parameter>
<parameter name="maxcpusecs" condition="real">3.6000e+05</parameter>
<parameter name="record_configs" condition="int">0</parameter>
<parameter name="record_walkers" condition="int">1</parameter>
<parameter name="recordconfigs" condition="int">0</parameter>
<parameter name="recordwalkers" condition="int">1</parameter>
<parameter name="rewind" condition="int">0</parameter>
<parameter name="samples" condition="real">5.1200e+05</parameter>
<parameter name="samplesperthread" condition="real">5.0000e+02</parameter>
<parameter name="steps" condition="int">1</parameter>
<parameter name="stepsbetweensamples" condition="int">1</parameter>
<parameter name="store_configs" condition="int">0</parameter>
<parameter name="storeconfigs" condition="int">0</parameter>
<parameter name="sub_steps" condition="int">5</parameter>
<parameter name="substeps" condition="int">5</parameter>
<parameter name="tau" condition="au">1.5000e-01</parameter>
<parameter name="time_step" condition="au">1.5000e-01</parameter>
<parameter name="timestep" condition="au">1.5000e-01</parameter>
<parameter name="use_drift" condition="string">no</parameter>
<parameter name="usedrift" condition="string">no</parameter>
<parameter name="walkers" condition="int">1</parameter>
<parameter name="warmup_steps" condition="int">0</parameter>
<parameter name="warmupsteps" condition="int">0</parameter>
  DumpConfig==false Nothing (configurations, state) will be saved.
  Walker Samples are dumped every 1 steps.
</vmc>
  EstimatorManagerBase::add replace LocalEnergy estimator.
  EstimatorManagerBase::add replace LocalEnergy estimator.
<optimization-report>
<vmc stage="main" blocks="500">
  Cannot make clones again. Use existing 1 clones
  Initial partition of walkers 0 1 
  Using Particle by Particle moves
  Walker moves without drift
  Total Sample Size   =512000
  Walker distribution on root = 0 1 
  Using Locality Approximation
===== Memory Usage after the buffer registration =====
Available memory on node 0, free + buffers : 84101 MB
Memory footprint by rank 0 on node 0       : 102 MB
==================================================
====================================================
  SimpleFixedNodeBranch::finalize after a VMC block
    QMC counter        = 4
    time step          = 0.15
    reference energy   = -103.785
    reference variance = 0.968967
====================================================
  Execution time = 4.1693e+00
</vmc>
<opt stage="setup">
  <log>
   Reading configurations from h5FileRoot Mn.log.s004
  QMCCostFunction is created with 1 threads.
  Using Nonlocal PP in Opt: NonLocalECP
   Number of samples loaded to each thread : 500 
  VMC Eavg = -1.0379e+02
  VMC Evar = 1.4739e+00
  Total weights = 5.1200e+05
  Execution time = 2.3983e+00
  </log>
</opt>
<opt stage="main" walkers="512000">
  <log>

*****************************************
Building overlap and Hamiltonian matrices
*****************************************

Among totally 82 optimized parameters, largest LM parameter change : 4.5108e-02 at parameter 23

******************************************************************************
Init Cost =  -9.8526e+01    New Cost =  -9.8527e+01  Delta Cost =  -3.7384e-04
******************************************************************************

The new set of parameters is valid. Updating the trial wave function!

*****************************************************************************
Applying the update for shift_i =   1.0000e-02     and shift_s =   3.9062e-03
*****************************************************************************
  Execution time = 7.6559e+00
  </log>
  <optVariables href="Mn.log.s004.opt.xml">
uu_0 2.1265e-01 1 1  ON 0
uu_1 6.1044e-02 1 1  ON 1
uu_2 -3.5504e-03 1 1  ON 2
uu_3 -3.5613e-02 1 1  ON 3
uu_4 -6.5425e-02 1 1  ON 4
uu_5 -9.0276e-02 1 1  ON 5
uu_6 -9.9170e-02 1 1  ON 6
uu_7 -8.5687e-02 1 1  ON 7
uu_8 -3.0142e-02 1 1  ON 8
uu_9 1.3395e-02 1 1  ON 9
ud_0 6.3452e-01 1 1  ON 10
ud_1 3.1823e-01 1 1  ON 11
ud_2 1.2025e-01 1 1  ON 12
ud_3 2.2919e-02 1 1  ON 13
ud_4 -3.4790e-02 1 1  ON 14
ud_5 -8.0119e-02 1 1  ON 15
ud_6 -9.2895e-02 1 1  ON 16
ud_7 -1.0742e-01 1 1  ON 17
ud_8 -9.0618e-02 1 1  ON 18
ud_9 -5.1781e-02 1 1  ON 19
eMn_0 -2.4670e+00 1 1  ON 20
eMn_1 -1.5617e+00 1 1  ON 21
eMn_2 -3.8460e-01 1 1  ON 22
eMn_3 2.6085e-01 1 1  ON 23
eMn_4 5.8271e-01 1 1  ON 24
eMn_5 8.3781e-01 1 1  ON 25
eMn_6 1.0782e+00 1 1  ON 26
eMn_7 1.0294e+00 1 1  ON 27
eMn_8 5.6671e-01 1 1  ON 28
eMn_9 9.8426e-02 1 1  ON 29
uuMn_0 2.6422e-06 1 1  ON 30
uuMn_1 3.1639e-06 1 1  ON 31
uuMn_2 -3.0315e-07 1 1  ON 32
uuMn_3 -3.6446e-06 1 1  ON 33
uuMn_4 -5.2211e-07 1 1  ON 34
uuMn_5 2.1182e-07 1 1  ON 35
uuMn_6 1.1645e-06 1 1  ON 36
uuMn_7 1.8148e-06 1 1  ON 37
uuMn_8 2.3104e-06 1 1  ON 38
uuMn_9 -3.9000e-06 1 1  ON 39
uuMn_10 -2.1025e-06 1 1  ON 40
uuMn_11 -1.4991e-06 1 1  ON 41
uuMn_12 -4.5681e-07 1 1  ON 42
uuMn_13 2.9627e-06 1 1  ON 43
uuMn_14 5.8250e-07 1 1  ON 44
uuMn_15 -1.4761e-08 1 1  ON 45
uuMn_16 3.5671e-06 1 1  ON 46
uuMn_17 2.3055e-06 1 1  ON 47
uuMn_18 2.4322e-07 1 1  ON 48
uuMn_19 3.4129e-08 1 1  ON 49
uuMn_20 -1.0383e-06 1 1  ON 50
uuMn_21 -1.0498e-07 1 1  ON 51
uuMn_22 2.3369e-08 1 1  ON 52
uuMn_23 3.9287e-07 1 1  ON 53
uuMn_24 -3.8143e-09 1 1  ON 54
uuMn_25 -5.6712e-09 1 1  ON 55
udMn_0 4.6020e-06 1 1  ON 56
udMn_1 9.6324e-06 1 1  ON 57
udMn_2 2.4517e-06 1 1  ON 58
udMn_3 -7.1916e-06 1 1  ON 59
udMn_4 -1.4885e-06 1 1  ON 60
udMn_5 -1.5380e-06 1 1  ON 61
udMn_6 1.3855e-05 1 1  ON 62
udMn_7 -2.6075e-06 1 1  ON 63
udMn_8 3.5075e-06 1 1  ON 64
udMn_9 -1.4792e-05 1 1  ON 65
udMn_10 -4.7494e-06 1 1  ON 66
udMn_11 3.9605e-07 1 1  ON 67
udMn_12 -7.3785e-07 1 1  ON 68
udMn_13 7.4294e-06 1 1  ON 69
udMn_14 4.2201e-07 1 1  ON 70
udMn_15 2.0229e-08 1 1  ON 71
udMn_16 1.4417e-05 1 1  ON 72
udMn_17 4.4945e-06 1 1  ON 73
udMn_18 -2.3027e-06 1 1  ON 74
udMn_19 2.8246e-07 1 1  ON 75
udMn_20 -4.4905e-06 1 1  ON 76
udMn_21 4.8536e-07 1 1  ON 77
udMn_22 -5.3161e-08 1 1  ON 78
udMn_23 1.3247e-06 1 1  ON 79
udMn_24 -1.5063e-07 1 1  ON 80
udMn_25 1.5673e-08 1 1  ON 81
  </optVariables>
   Restore the number of walkers to 1, removing 0 walkers.
</opt>
</optimization-report>
  QMC Execution time = 7.6753e+00 secs 
  Reusing QMCFixedSampleLinearOptimize
 Using QMCCostFunction::QMCCostFunction

=========================================================
  Start QMCFixedSampleLinearOptimize
  File Root Mn.log.s005 append = no 
=========================================================
  Skip QMCDriver::putQMCInfo 
  Resetting Properties of the walkers 1 x 13

=========================================================
  Start VMC
  File Root Mn.log.s005 append = no 
=========================================================
Using existing walkers 
  Resetting Properties of the walkers 1 x 13

<vmc function="put">
  qmc_counter=4  my_counter=4
  time step      = 1.5000e-01
  blocks         = 500
  steps          = 1
  substeps       = 5
  current        = 0
  target samples = 5.1200e+05
  walkers/mpi    = 1

  stepsbetweensamples = 1
<parameter name="blocks" condition="int">500</parameter>
<parameter name="blocks_between_recompute" condition="int">0</parameter>
<parameter name="check_properties" condition="int">100</parameter>
<parameter name="checkproperties" condition="int">100</parameter>
<parameter name="current" condition="int">0</parameter>
<parameter name="dmcwalkersperthread" condition="real">5.0000e+02</parameter>
<parameter name="maxcpusecs" condition="real">3.6000e+05</parameter>
<parameter name="record_configs" condition="int">0</parameter>
<parameter name="record_walkers" condition="int">1</parameter>
<parameter name="recordconfigs" condition="int">0</parameter>
<parameter name="recordwalkers" condition="int">1</parameter>
<parameter name="rewind" condition="int">0</parameter>
<parameter name="samples" condition="real">5.1200e+05</parameter>
<parameter name="samplesperthread" condition="real">5.0000e+02</parameter>
<parameter name="steps" condition="int">1</parameter>
<parameter name="stepsbetweensamples" condition="int">1</parameter>
<parameter name="store_configs" condition="int">0</parameter>
<parameter name="storeconfigs" condition="int">0</parameter>
<parameter name="sub_steps" condition="int">5</parameter>
<parameter name="substeps" condition="int">5</parameter>
<parameter name="tau" condition="au">1.5000e-01</parameter>
<parameter name="time_step" condition="au">1.5000e-01</parameter>
<parameter name="timestep" condition="au">1.5000e-01</parameter>
<parameter name="use_drift" condition="string">no</parameter>
<parameter name="usedrift" condition="string">no</parameter>
<parameter name="walkers" condition="int">1</parameter>
<parameter name="warmup_steps" condition="int">0</parameter>
<parameter name="warmupsteps" condition="int">0</parameter>
  DumpConfig==false Nothing (configurations, state) will be saved.
  Walker Samples are dumped every 1 steps.
</vmc>
  EstimatorManagerBase::add replace LocalEnergy estimator.
  EstimatorManagerBase::add replace LocalEnergy estimator.
<optimization-report>
<vmc stage="main" blocks="500">
  Cannot make clones again. Use existing 1 clones
  Initial partition of walkers 0 1 
  Using Particle by Particle moves
  Walker moves without drift
  Total Sample Size   =512000
  Walker distribution on root = 0 1 
  Using Locality Approximation
===== Memory Usage after the buffer registration =====
Available memory on node 0, free + buffers : 84098 MB
Memory footprint by rank 0 on node 0       : 105 MB
==================================================
====================================================
  SimpleFixedNodeBranch::finalize after a VMC block
    QMC counter        = 5
    time step          = 0.15
    reference energy   = -103.792
    reference variance = 1.37143
====================================================
  Execution time = 4.2269e+00
</vmc>
<opt stage="setup">
  <log>
   Reading configurations from h5FileRoot Mn.log.s005
  QMCCostFunction is created with 1 threads.
  Using Nonlocal PP in Opt: NonLocalECP
   Number of samples loaded to each thread : 500 
  VMC Eavg = -1.0379e+02
  VMC Evar = 1.3698e+00
  Total weights = 5.1200e+05
  Execution time = 2.3831e+00
  </log>
</opt>
<opt stage="main" walkers="512000">
  <log>

*****************************************
Building overlap and Hamiltonian matrices
*****************************************

Among totally 82 optimized parameters, largest LM parameter change : 3.4318e-02 at parameter 23

******************************************************************************
Init Cost =  -9.8533e+01    New Cost =  -9.8533e+01  Delta Cost =  -2.1185e-04
******************************************************************************

The new set of parameters is valid. Updating the trial wave function!

*****************************************************************************
Applying the update for shift_i =   1.0000e-02     and shift_s =   3.9062e-03
*****************************************************************************
  Execution time = 7.6801e+00
  </log>
  <optVariables href="Mn.log.s005.opt.xml">
uu_0 2.1452e-01 1 1  ON 0
uu_1 6.3374e-02 1 1  ON 1
uu_2 -2.7287e-03 1 1  ON 2
uu_3 -3.8015e-02 1 1  ON 3
uu_4 -6.6775e-02 1 1  ON 4
uu_5 -8.7477e-02 1 1  ON 5
uu_6 -9.2653e-02 1 1  ON 6
uu_7 -7.8122e-02 1 1  ON 7
uu_8 -2.4753e-02 1 1  ON 8
uu_9 1.2662e-02 1 1  ON 9
ud_0 6.4961e-01 1 1  ON 10
ud_1 3.2962e-01 1 1  ON 11
ud_2 1.2734e-01 1 1  ON 12
ud_3 2.8197e-02 1 1  ON 13
ud_4 -2.7429e-02 1 1  ON 14
ud_5 -7.2067e-02 1 1  ON 15
ud_6 -8.7455e-02 1 1  ON 16
ud_7 -1.0340e-01 1 1  ON 17
ud_8 -8.5612e-02 1 1  ON 18
ud_9 -5.3116e-02 1 1  ON 19
eMn_0 -2.4965e+00 1 1  ON 20
eMn_1 -1.5943e+00 1 1  ON 21
eMn_2 -3.7095e-01 1 1  ON 22
eMn_3 2.9517e-01 1 1  ON 23
eMn_4 5.9319e-01 1 1  ON 24
eMn_5 8.1770e-01 1 1  ON 25
eMn_6 1.0677e+00 1 1  ON 26
eMn_7 1.0403e+00 1 1  ON 27
eMn_8 5.9044e-01 1 1  ON 28
eMn_9 1.0494e-01 1 1  ON 29
uuMn_0 2.6603e-06 1 1  ON 30
uuMn_1 3.1840e-06 1 1  ON 31
uuMn_2 -4.5165e-07 1 1  ON 32
uuMn_3 -3.7510e-06 1 1  ON 33
uuMn_4 -5.0125e-07 1 1  ON 34
uuMn_5 1.9776e-07 1 1  ON 35
uuMn_6 1.0237e-06 1 1  ON 36
uuMn_7 1.6913e-06 1 1  ON 37
uuMn_8 2.1766e-06 1 1  ON 38
uuMn_9 -3.7584e-06 1 1  ON 39
uuMn_10 -2.1615e-06 1 1  ON 40
uuMn_11 -1.2164e-06 1 1  ON 41
uuMn_12 -4.4484e-07 1 1  ON 42
uuMn_13 3.0088e-06 1 1  ON 43
uuMn_14 5.7183e-07 1 1  ON 44
uuMn_15 -1.5082e-08 1 1  ON 45
uuMn_16 3.1088e-06 1 1  ON 46
uuMn_17 2.5919e-06 1 1  ON 47
uuMn_18 -4.9857e-08 1 1  ON 48
uuMn_19 5.6873e-08 1 1  ON 49
uuMn_20 -9.2834e-07 1 1  ON 50
uuMn_21 -6.8321e-08 1 1  ON 51
uuMn_22 1.8289e-08 1 1  ON 52
uuMn_23 3.2713e-07 1 1  ON 53
uuMn_24 -6.3450e-09 1 1  ON 54
uuMn_25 -4.9459e-09 1 1  ON 55
udMn_0 4.9196e-06 1 1  ON 56
udMn_1 9.7370e-06 1 1  ON 57
udMn_2 2.3371e-06 1 1  ON 58
udMn_3 -7.0463e-06 1 1  ON 59
udMn_4 -1.4065e-06 1 1  ON 60
udMn_5 -1.5149e-06 1 1  ON 61
udMn_6 1.4226e-05 1 1  ON 62
udMn_7 -3.0232e-06 1 1  ON 63
udMn_8 3.1399e-06 1 1  ON 64
udMn_9 -1.5451e-05 1 1  ON 65
udMn_10 -4.5861e-06 1 1  ON 66
udMn_11 3.9481e-07 1 1  ON 67
udMn_12 -6.0302e-07 1 1  ON 68
udMn_13 7.3532e-06 1 1  ON 69
udMn_14 2.7744e-07 1 1  ON 70
udMn_15 2.1729e-08 1 1  ON 71
udMn_16 1.6104e-05 1 1  ON 72
udMn_17 3.7201e-06 1 1  ON 73
udMn_18 -1.9815e-06 1 1  ON 74
udMn_19 2.0143e-07 1 1  ON 75
udMn_20 -4.9321e-06 1 1  ON 76
udMn_21 5.0168e-07 1 1  ON 77
udMn_22 -5.0936e-08 1 1  ON 78
udMn_23 1.4721e-06 1 1  ON 79
udMn_24 -1.6172e-07 1 1  ON 80
udMn_25 1.6924e-08 1 1  ON 81
  </optVariables>
   Restore the number of walkers to 1, removing 0 walkers.
</opt>
</optimization-report>
  QMC Execution time = 7.6988e+00 secs 
  Reusing QMCFixedSampleLinearOptimize
 Using QMCCostFunction::QMCCostFunction

=========================================================
  Start QMCFixedSampleLinearOptimize
  File Root Mn.log.s006 append = no 
=========================================================
  Skip QMCDriver::putQMCInfo 
  Resetting Properties of the walkers 1 x 13

=========================================================
  Start VMC
  File Root Mn.log.s006 append = no 
=========================================================
Using existing walkers 
  Resetting Properties of the walkers 1 x 13

<vmc function="put">
  qmc_counter=5  my_counter=5
  time step      = 1.5000e-01
  blocks         = 500
  steps          = 1
  substeps       = 5
  current        = 0
  target samples = 5.1200e+05
  walkers/mpi    = 1

  stepsbetweensamples = 1
<parameter name="blocks" condition="int">500</parameter>
<parameter name="blocks_between_recompute" condition="int">0</parameter>
<parameter name="check_properties" condition="int">100</parameter>
<parameter name="checkproperties" condition="int">100</parameter>
<parameter name="current" condition="int">0</parameter>
<parameter name="dmcwalkersperthread" condition="real">5.0000e+02</parameter>
<parameter name="maxcpusecs" condition="real">3.6000e+05</parameter>
<parameter name="record_configs" condition="int">0</parameter>
<parameter name="record_walkers" condition="int">1</parameter>
<parameter name="recordconfigs" condition="int">0</parameter>
<parameter name="recordwalkers" condition="int">1</parameter>
<parameter name="rewind" condition="int">0</parameter>
<parameter name="samples" condition="real">5.1200e+05</parameter>
<parameter name="samplesperthread" condition="real">5.0000e+02</parameter>
<parameter name="steps" condition="int">1</parameter>
<parameter name="stepsbetweensamples" condition="int">1</parameter>
<parameter name="store_configs" condition="int">0</parameter>
<parameter name="storeconfigs" condition="int">0</parameter>
<parameter name="sub_steps" condition="int">5</parameter>
<parameter name="substeps" condition="int">5</parameter>
<parameter name="tau" condition="au">1.5000e-01</parameter>
<parameter name="time_step" condition="au">1.5000e-01</parameter>
<parameter name="timestep" condition="au">1.5000e-01</parameter>
<parameter name="use_drift" condition="string">no</parameter>
<parameter name="usedrift" condition="string">no</parameter>
<parameter name="walkers" condition="int">1</parameter>
<parameter name="warmup_steps" condition="int">0</parameter>
<parameter name="warmupsteps" condition="int">0</parameter>
  DumpConfig==false Nothing (configurations, state) will be saved.
  Walker Samples are dumped every 1 steps.
</vmc>
  EstimatorManagerBase::add replace LocalEnergy estimator.
  EstimatorManagerBase::add replace LocalEnergy estimator.
<optimization-report>
<vmc stage="main" blocks="500">
  Cannot make clones again. Use existing 1 clones
  Initial partition of walkers 0 1 
  Using Particle by Particle moves
  Walker moves without drift
  Total Sample Size   =512000
  Walker distribution on root = 0 1 
  Using Locality Approximation
===== Memory Usage after the buffer registration =====
Available memory on node 0, free + buffers : 84094 MB
Memory footprint by rank 0 on node 0       : 108 MB
==================================================
====================================================
  SimpleFixedNodeBranch::finalize after a VMC block
    QMC counter        = 6
    time step          = 0.15
    reference energy   = -103.77
    reference variance = 1.22547
====================================================
  Execution time = 4.5649e+00
</vmc>
<opt stage="setup">
  <log>
   Reading configurations from h5FileRoot Mn.log.s006
  QMCCostFunction is created with 1 threads.
  Using Nonlocal PP in Opt: NonLocalECP
   Number of samples loaded to each thread : 500 
  VMC Eavg = -1.0379e+02
  VMC Evar = 1.4043e+00
  Total weights = 5.1200e+05
  Execution time = 2.3911e+00
  </log>
</opt>
<opt stage="main" walkers="512000">
  <log>

*****************************************
Building overlap and Hamiltonian matrices
*****************************************

Among totally 82 optimized parameters, largest LM parameter change : 3.2258e-02 at parameter 25

******************************************************************************
Init Cost =  -9.8530e+01    New Cost =  -9.8530e+01  Delta Cost =  -1.7993e-04
******************************************************************************

The new set of parameters is valid. Updating the trial wave function!

*****************************************************************************
Applying the update for shift_i =   1.0000e-02     and shift_s =   3.9062e-03
*****************************************************************************
  Execution time = 8.0335e+00
  </log>
  <optVariables href="Mn.log.s006.opt.xml">
uu_0 2.1193e-01 1 1  ON 0
uu_1 5.8731e-02 1 1  ON 1
uu_2 -8.9798e-03 1 1  ON 2
uu_3 -4.5851e-02 1 1  ON 3
uu_4 -7.4014e-02 1 1  ON 4
uu_5 -9.1843e-02 1 1  ON 5
uu_6 -9.3356e-02 1 1  ON 6
uu_7 -7.4861e-02 1 1  ON 7
uu_8 -2.3228e-02 1 1  ON 8
uu_9 2.5036e-02 1 1  ON 9
ud_0 6.5988e-01 1 1  ON 10
ud_1 3.3880e-01 1 1  ON 11
ud_2 1.3218e-01 1 1  ON 12
ud_3 3.1836e-02 1 1  ON 13
ud_4 -2.3648e-02 1 1  ON 14
ud_5 -6.9908e-02 1 1  ON 15
ud_6 -8.8338e-02 1 1  ON 16
ud_7 -1.0916e-01 1 1  ON 17
ud_8 -8.8481e-02 1 1  ON 18
ud_9 -5.0877e-02 1 1  ON 19
eMn_0 -2.5264e+00 1 1  ON 20
eMn_1 -1.6188e+00 1 1  ON 21
eMn_2 -3.6201e-01 1 1  ON 22
eMn_3 3.2694e-01 1 1  ON 23
eMn_4 6.0116e-01 1 1  ON 24
eMn_5 7.8544e-01 1 1  ON 25
eMn_6 1.0675e+00 1 1  ON 26
eMn_7 1.0488e+00 1 1  ON 27
eMn_8 6.1235e-01 1 1  ON 28
eMn_9 1.1337e-01 1 1  ON 29
uuMn_0 2.8435e-06 1 1  ON 30
uuMn_1 3.2437e-06 1 1  ON 31
uuMn_2 -4.0603e-07 1 1  ON 32
uuMn_3 -3.8200e-06 1 1  ON 33
uuMn_4 -5.0820e-07 1 1  ON 34
uuMn_5 1.7500e-07 1 1  ON 35
uuMn_6 1.1044e-06 1 1  ON 36
uuMn_7 1.6866e-06 1 1  ON 37
uuMn_8 2.4131e-06 1 1  ON 38
uuMn_9 -4.0450e-06 1 1  ON 39
uuMn_10 -2.1479e-06 1 1  ON 40
uuMn_11 -1.4304e-06 1 1  ON 41
uuMn_12 -4.9976e-07 1 1  ON 42
uuMn_13 3.2224e-06 1 1  ON 43
uuMn_14 6.4533e-07 1 1  ON 44
uuMn_15 -1.7053e-08 1 1  ON 45
uuMn_16 3.4140e-06 1 1  ON 46
uuMn_17 2.7597e-06 1 1  ON 47
uuMn_18 3.6856e-08 1 1  ON 48
uuMn_19 7.1805e-08 1 1  ON 49
uuMn_20 -1.0903e-06 1 1  ON 50
uuMn_21 -8.4425e-08 1 1  ON 51
uuMn_22 1.8159e-08 1 1  ON 52
uuMn_23 3.6955e-07 1 1  ON 53
uuMn_24 -9.0690e-09 1 1  ON 54
uuMn_25 -4.2535e-09 1 1  ON 55
udMn_0 4.5797e-06 1 1  ON 56
udMn_1 9.5609e-06 1 1  ON 57
udMn_2 2.8154e-06 1 1  ON 58
udMn_3 -6.9232e-06 1 1  ON 59
udMn_4 -1.4520e-06 1 1  ON 60
udMn_5 -1.5448e-06 1 1  ON 61
udMn_6 1.4094e-05 1 1  ON 62
udMn_7 -2.3700e-06 1 1  ON 63
udMn_8 3.6752e-06 1 1  ON 64
udMn_9 -1.5048e-05 1 1  ON 65
udMn_10 -4.4081e-06 1 1  ON 66
udMn_11 -2.5948e-07 1 1  ON 67
udMn_12 -7.3355e-07 1 1  ON 68
udMn_13 7.0133e-06 1 1  ON 69
udMn_14 4.1848e-07 1 1  ON 70
udMn_15 2.0829e-08 1 1  ON 71
udMn_16 1.5121e-05 1 1  ON 72
udMn_17 3.5785e-06 1 1  ON 73
udMn_18 -1.5297e-06 1 1  ON 74
udMn_19 2.3075e-07 1 1  ON 75
udMn_20 -4.4524e-06 1 1  ON 76
udMn_21 3.7660e-07 1 1  ON 77
udMn_22 -4.1727e-08 1 1  ON 78
udMn_23 1.2819e-06 1 1  ON 79
udMn_24 -1.2789e-07 1 1  ON 80
udMn_25 1.2680e-08 1 1  ON 81
  </optVariables>
   Restore the number of walkers to 1, removing 0 walkers.
</opt>
</optimization-report>
  QMC Execution time = 8.0515e+00 secs 
  Reusing QMCFixedSampleLinearOptimize
 Using QMCCostFunction::QMCCostFunction

=========================================================
  Start QMCFixedSampleLinearOptimize
  File Root Mn.log.s007 append = no 
=========================================================
  Skip QMCDriver::putQMCInfo 
  Resetting Properties of the walkers 1 x 13

=========================================================
  Start VMC
  File Root Mn.log.s007 append = no 
=========================================================
Using existing walkers 
  Resetting Properties of the walkers 1 x 13

<vmc function="put">
  qmc_counter=6  my_counter=6
  time step      = 1.5000e-01
  blocks         = 500
  steps          = 1
  substeps       = 5
  current        = 0
  target samples = 5.1200e+05
  walkers/mpi    = 1

  stepsbetweensamples = 1
<parameter name="blocks" condition="int">500</parameter>
<parameter name="blocks_between_recompute" condition="int">0</parameter>
<parameter name="check_properties" condition="int">100</parameter>
<parameter name="checkproperties" condition="int">100</parameter>
<parameter name="current" condition="int">0</parameter>
<parameter name="dmcwalkersperthread" condition="real">5.0000e+02</parameter>
<parameter name="maxcpusecs" condition="real">3.6000e+05</parameter>
<parameter name="record_configs" condition="int">0</parameter>
<parameter name="record_walkers" condition="int">1</parameter>
<parameter name="recordconfigs" condition="int">0</parameter>
<parameter name="recordwalkers" condition="int">1</parameter>
<parameter name="rewind" condition="int">0</parameter>
<parameter name="samples" condition="real">5.1200e+05</parameter>
<parameter name="samplesperthread" condition="real">5.0000e+02</parameter>
<parameter name="steps" condition="int">1</parameter>
<parameter name="stepsbetweensamples" condition="int">1</parameter>
<parameter name="store_configs" condition="int">0</parameter>
<parameter name="storeconfigs" condition="int">0</parameter>
<parameter name="sub_steps" condition="int">5</parameter>
<parameter name="substeps" condition="int">5</parameter>
<parameter name="tau" condition="au">1.5000e-01</parameter>
<parameter name="time_step" condition="au">1.5000e-01</parameter>
<parameter name="timestep" condition="au">1.5000e-01</parameter>
<parameter name="use_drift" condition="string">no</parameter>
<parameter name="usedrift" condition="string">no</parameter>
<parameter name="walkers" condition="int">1</parameter>
<parameter name="warmup_steps" condition="int">0</parameter>
<parameter name="warmupsteps" condition="int">0</parameter>
  DumpConfig==false Nothing (configurations, state) will be saved.
  Walker Samples are dumped every 1 steps.
</vmc>
  EstimatorManagerBase::add replace LocalEnergy estimator.
  EstimatorManagerBase::add replace LocalEnergy estimator.
<optimization-report>
<vmc stage="main" blocks="500">
  Cannot make clones again. Use existing 1 clones
  Initial partition of walkers 0 1 
  Using Particle by Particle moves
  Walker moves without drift
  Total Sample Size   =512000
  Walker distribution on root = 0 1 
  Using Locality Approximation
===== Memory Usage after the buffer registration =====
Available memory on node 0, free + buffers : 84091 MB
Memory footprint by rank 0 on node 0       : 111 MB
==================================================
====================================================
  SimpleFixedNodeBranch::finalize after a VMC block
    QMC counter        = 7
    time step          = 0.15
    reference energy   = -103.755
    reference variance = 1.30386
====================================================
  Execution time = 4.3060e+00
</vmc>
<opt stage="setup">
  <log>
   Reading configurations from h5FileRoot Mn.log.s007
  QMCCostFunction is created with 1 threads.
  Using Nonlocal PP in Opt: NonLocalECP
   Number of samples loaded to each thread : 500 
  VMC Eavg = -1.0379e+02
  VMC Evar = 1.3816e+00
  Total weights = 5.1200e+05
  Execution time = 2.3962e+00
  </log>
</opt>
<opt stage="main" walkers="512000">
  <log>

*****************************************
Building overlap and Hamiltonian matrices
*****************************************

Among totally 82 optimized parameters, largest LM parameter change : 3.3212e-02 at parameter 20

******************************************************************************
Init Cost =  -9.8532e+01    New Cost =  -9.8533e+01  Delta Cost =  -8.5114e-04
******************************************************************************

The new set of parameters is valid. Updating the trial wave function!

*****************************************************************************
Applying the update for shift_i =   1.0000e-02     and shift_s =   3.9062e-03
*****************************************************************************
  Execution time = 7.8018e+00
  </log>
  <optVariables href="Mn.log.s007.opt.xml">
uu_0 2.0850e-01 1 1  ON 0
uu_1 5.5818e-02 1 1  ON 1
uu_2 -6.4878e-03 1 1  ON 2
uu_3 -3.5249e-02 1 1  ON 3
uu_4 -5.9971e-02 1 1  ON 4
uu_5 -7.9625e-02 1 1  ON 5
uu_6 -8.6929e-02 1 1  ON 6
uu_7 -8.0070e-02 1 1  ON 7
uu_8 -3.2370e-02 1 1  ON 8
uu_9 1.7775e-02 1 1  ON 9
ud_0 6.6613e-01 1 1  ON 10
ud_1 3.4575e-01 1 1  ON 11
ud_2 1.3990e-01 1 1  ON 12
ud_3 3.8457e-02 1 1  ON 13
ud_4 -2.1045e-02 1 1  ON 14
ud_5 -6.6050e-02 1 1  ON 15
ud_6 -8.5187e-02 1 1  ON 16
ud_7 -1.0467e-01 1 1  ON 17
ud_8 -8.4797e-02 1 1  ON 18
ud_9 -4.8672e-02 1 1  ON 19
eMn_0 -2.5596e+00 1 1  ON 20
eMn_1 -1.6383e+00 1 1  ON 21
eMn_2 -3.5518e-01 1 1  ON 22
eMn_3 3.5721e-01 1 1  ON 23
eMn_4 6.1078e-01 1 1  ON 24
eMn_5 7.7471e-01 1 1  ON 25
eMn_6 1.0596e+00 1 1  ON 26
eMn_7 1.0529e+00 1 1  ON 27
eMn_8 6.3026e-01 1 1  ON 28
eMn_9 1.2050e-01 1 1  ON 29
uuMn_0 2.8297e-06 1 1  ON 30
uuMn_1 3.2414e-06 1 1  ON 31
uuMn_2 -5.5589e-07 1 1  ON 32
uuMn_3 -3.8022e-06 1 1  ON 33
uuMn_4 -5.1020e-07 1 1  ON 34
uuMn_5 2.6567e-07 1 1  ON 35
uuMn_6 9.6606e-07 1 1  ON 36
uuMn_7 1.6842e-06 1 1  ON 37
uuMn_8 2.2342e-06 1 1  ON 38
uuMn_9 -3.8396e-06 1 1  ON 39
uuMn_10 -2.1857e-06 1 1  ON 40
uuMn_11 -1.3216e-06 1 1  ON 41
uuMn_12 -4.8642e-07 1 1  ON 42
uuMn_13 3.0574e-06 1 1  ON 43
uuMn_14 6.2695e-07 1 1  ON 44
uuMn_15 -1.6850e-08 1 1  ON 45
uuMn_16 3.2752e-06 1 1  ON 46
uuMn_17 2.5762e-06 1 1  ON 47
uuMn_18 1.3971e-07 1 1  ON 48
uuMn_19 6.7851e-08 1 1  ON 49
uuMn_20 -9.6861e-07 1 1  ON 50
uuMn_21 -1.3844e-07 1 1  ON 51
uuMn_22 2.5929e-08 1 1  ON 52
uuMn_23 3.3904e-07 1 1  ON 53
uuMn_24 1.1584e-08 1 1  ON 54
uuMn_25 -8.2778e-09 1 1  ON 55
udMn_0 4.7568e-06 1 1  ON 56
udMn_1 9.6317e-06 1 1  ON 57
udMn_2 2.6640e-06 1 1  ON 58
udMn_3 -6.9490e-06 1 1  ON 59
udMn_4 -1.4276e-06 1 1  ON 60
udMn_5 -1.5496e-06 1 1  ON 61
udMn_6 1.4337e-05 1 1  ON 62
udMn_7 -2.9061e-06 1 1  ON 63
udMn_8 3.4462e-06 1 1  ON 64
udMn_9 -1.5406e-05 1 1  ON 65
udMn_10 -4.4399e-06 1 1  ON 66
udMn_11 7.7558e-08 1 1  ON 67
udMn_12 -6.8328e-07 1 1  ON 68
udMn_13 7.2612e-06 1 1  ON 69
udMn_14 3.5436e-07 1 1  ON 70
udMn_15 2.2353e-08 1 1  ON 71
udMn_16 1.5820e-05 1 1  ON 72
udMn_17 3.6932e-06 1 1  ON 73
udMn_18 -1.8049e-06 1 1  ON 74
udMn_19 2.3979e-07 1 1  ON 75
udMn_20 -4.8284e-06 1 1  ON 76
udMn_21 4.5152e-07 1 1  ON 77
udMn_22 -5.0848e-08 1 1  ON 78
udMn_23 1.4312e-06 1 1  ON 79
udMn_24 -1.5249e-07 1 1  ON 80
udMn_25 1.6336e-08 1 1  ON 81
  </optVariables>
   Restore the number of walkers to 1, removing 0 walkers.
</opt>
</optimization-report>
  QMC Execution time = 7.8194e+00 secs 
  Reusing QMCFixedSampleLinearOptimize
 Using QMCCostFunction::QMCCostFunction

=========================================================
  Start QMCFixedSampleLinearOptimize
  File Root Mn.log.s008 append = no 
=========================================================
  Skip QMCDriver::putQMCInfo 
  Resetting Properties of the walkers 1 x 13

=========================================================
  Start VMC
  File Root Mn.log.s008 append = no 
=========================================================
Using existing walkers 
  Resetting Properties of the walkers 1 x 13

<vmc function="put">
  qmc_counter=7  my_counter=7
  time step      = 1.5000e-01
  blocks         = 500
  steps          = 1
  substeps       = 5
  current        = 0
  target samples = 5.1200e+05
  walkers/mpi    = 1

  stepsbetweensamples = 1
<parameter name="blocks" condition="int">500</parameter>
<parameter name="blocks_between_recompute" condition="int">0</parameter>
<parameter name="check_properties" condition="int">100</parameter>
<parameter name="checkproperties" condition="int">100</parameter>
<parameter name="current" condition="int">0</parameter>
<parameter name="dmcwalkersperthread" condition="real">5.0000e+02</parameter>
<parameter name="maxcpusecs" condition="real">3.6000e+05</parameter>
<parameter name="record_configs" condition="int">0</parameter>
<parameter name="record_walkers" condition="int">1</parameter>
<parameter name="recordconfigs" condition="int">0</parameter>
<parameter name="recordwalkers" condition="int">1</parameter>
<parameter name="rewind" condition="int">0</parameter>
<parameter name="samples" condition="real">5.1200e+05</parameter>
<parameter name="samplesperthread" condition="real">5.0000e+02</parameter>
<parameter name="steps" condition="int">1</parameter>
<parameter name="stepsbetweensamples" condition="int">1</parameter>
<parameter name="store_configs" condition="int">0</parameter>
<parameter name="storeconfigs" condition="int">0</parameter>
<parameter name="sub_steps" condition="int">5</parameter>
<parameter name="substeps" condition="int">5</parameter>
<parameter name="tau" condition="au">1.5000e-01</parameter>
<parameter name="time_step" condition="au">1.5000e-01</parameter>
<parameter name="timestep" condition="au">1.5000e-01</parameter>
<parameter name="use_drift" condition="string">no</parameter>
<parameter name="usedrift" condition="string">no</parameter>
<parameter name="walkers" condition="int">1</parameter>
<parameter name="warmup_steps" condition="int">0</parameter>
<parameter name="warmupsteps" condition="int">0</parameter>
  DumpConfig==false Nothing (configurations, state) will be saved.
  Walker Samples are dumped every 1 steps.
</vmc>
  EstimatorManagerBase::add replace LocalEnergy estimator.
  EstimatorManagerBase::add replace LocalEnergy estimator.
<optimization-report>
<vmc stage="main" blocks="500">
  Cannot make clones again. Use existing 1 clones
  Initial partition of walkers 0 1 
  Using Particle by Particle moves
  Walker moves without drift
  Total Sample Size   =512000
  Walker distribution on root = 0 1 
  Using Locality Approximation
===== Memory Usage after the buffer registration =====
Available memory on node 0, free + buffers : 84086 MB
Memory footprint by rank 0 on node 0       : 115 MB
==================================================
====================================================
  SimpleFixedNodeBranch::finalize after a VMC block
    QMC counter        = 8
    time step          = 0.15
    reference energy   = -103.721
    reference variance = 1.39008
====================================================
  Execution time = 4.2479e+00
</vmc>
<opt stage="setup">
  <log>
   Reading configurations from h5FileRoot Mn.log.s008
  QMCCostFunction is created with 1 threads.
  Using Nonlocal PP in Opt: NonLocalECP
   Number of samples loaded to each thread : 500 
  VMC Eavg = -1.0379e+02
  VMC Evar = 1.3989e+00
  Total weights = 5.1200e+05
  Execution time = 2.4133e+00
  </log>
</opt>
<opt stage="main" walkers="512000">
  <log>

*****************************************
Building overlap and Hamiltonian matrices
*****************************************

Among totally 82 optimized parameters, largest LM parameter change : 3.5246e-02 at parameter 20

******************************************************************************
Init Cost =  -9.8532e+01    New Cost =  -9.8532e+01  Delta Cost =   9.3843e-05
******************************************************************************

The new set of parameters is valid. Updating the trial wave function!

*****************************************************************************
Applying the update for shift_i =   1.0000e-02     and shift_s =   3.9062e-03
*****************************************************************************
  Execution time = 7.7366e+00
  </log>
  <optVariables href="Mn.log.s008.opt.xml">
uu_0 2.0654e-01 1 1  ON 0
uu_1 5.5601e-02 1 1  ON 1
uu_2 -5.4757e-03 1 1  ON 2
uu_3 -3.6476e-02 1 1  ON 3
uu_4 -6.4950e-02 1 1  ON 4
uu_5 -8.6567e-02 1 1  ON 5
uu_6 -9.1263e-02 1 1  ON 6
uu_7 -8.3868e-02 1 1  ON 7
uu_8 -2.9369e-02 1 1  ON 8
uu_9 2.5384e-02 1 1  ON 9
ud_0 6.7708e-01 1 1  ON 10
ud_1 3.5335e-01 1 1  ON 11
ud_2 1.4417e-01 1 1  ON 12
ud_3 4.0798e-02 1 1  ON 13
ud_4 -1.8302e-02 1 1  ON 14
ud_5 -6.5829e-02 1 1  ON 15
ud_6 -8.3854e-02 1 1  ON 16
ud_7 -1.0437e-01 1 1  ON 17
ud_8 -9.1767e-02 1 1  ON 18
ud_9 -5.6596e-02 1 1  ON 19
eMn_0 -2.5948e+00 1 1  ON 20
eMn_1 -1.6550e+00 1 1  ON 21
eMn_2 -3.4669e-01 1 1  ON 22
eMn_3 3.8424e-01 1 1  ON 23
eMn_4 6.2373e-01 1 1  ON 24
eMn_5 7.5180e-01 1 1  ON 25
eMn_6 1.0545e+00 1 1  ON 26
eMn_7 1.0565e+00 1 1  ON 27
eMn_8 6.5162e-01 1 1  ON 28
eMn_9 1.2688e-01 1 1  ON 29
uuMn_0 2.9007e-06 1 1  ON 30
uuMn_1 3.2437e-06 1 1  ON 31
uuMn_2 -6.1755e-07 1 1  ON 32
uuMn_3 -3.8923e-06 1 1  ON 33
uuMn_4 -4.9136e-07 1 1  ON 34
uuMn_5 2.5169e-07 1 1  ON 35
uuMn_6 9.8262e-07 1 1  ON 36
uuMn_7 1.3000e-06 1 1  ON 37
uuMn_8 2.1757e-06 1 1  ON 38
uuMn_9 -3.9487e-06 1 1  ON 39
uuMn_10 -2.2084e-06 1 1  ON 40
uuMn_11 -1.0911e-06 1 1  ON 41
uuMn_12 -4.5611e-07 1 1  ON 42
uuMn_13 3.3911e-06 1 1  ON 43
uuMn_14 5.9179e-07 1 1  ON 44
uuMn_15 -1.6117e-08 1 1  ON 45
uuMn_16 3.3229e-06 1 1  ON 46
uuMn_17 2.9016e-06 1 1  ON 47
uuMn_18 -1.1849e-07 1 1  ON 48
uuMn_19 6.6495e-08 1 1  ON 49
uuMn_20 -1.2362e-06 1 1  ON 50
uuMn_21 -6.7675e-08 1 1  ON 51
uuMn_22 1.8604e-08 1 1  ON 52
uuMn_23 4.5141e-07 1 1  ON 53
uuMn_24 -1.2191e-08 1 1  ON 54
uuMn_25 -4.7808e-09 1 1  ON 55
udMn_0 4.9090e-06 1 1  ON 56
udMn_1 9.6839e-06 1 1  ON 57
udMn_2 2.4533e-06 1 1  ON 58
udMn_3 -7.2094e-06 1 1  ON 59
udMn_4 -1.4466e-06 1 1  ON 60
udMn_5 -1.5868e-06 1 1  ON 61
udMn_6 1.4119e-05 1 1  ON 62
udMn_7 -2.9636e-06 1 1  ON 63
udMn_8 3.3615e-06 1 1  ON 64
udMn_9 -1.5328e-05 1 1  ON 65
udMn_10 -4.6339e-06 1 1  ON 66
udMn_11 3.6012e-07 1 1  ON 67
udMn_12 -6.9436e-07 1 1  ON 68
udMn_13 7.4554e-06 1 1  ON 69
udMn_14 3.6453e-07 1 1  ON 70
udMn_15 2.2223e-08 1 1  ON 71
udMn_16 1.5542e-05 1 1  ON 72
udMn_17 4.0706e-06 1 1  ON 73
udMn_18 -2.0828e-06 1 1  ON 74
udMn_19 2.6934e-07 1 1  ON 75
udMn_20 -4.8501e-06 1 1  ON 76
udMn_21 4.7624e-07 1 1  ON 77
udMn_22 -5.4761e-08 1 1  ON 78
udMn_23 1.4381e-06 1 1  ON 79
udMn_24 -1.5368e-07 1 1  ON 80
udMn_25 1.6630e-08 1 1  ON 81
  </optVariables>
   Restore the number of walkers to 1, removing 0 walkers.
</opt>
</optimization-report>
  QMC Execution time = 7.7554e+00 secs 
  Reusing QMCFixedSampleLinearOptimize
 Using QMCCostFunction::QMCCostFunction

=========================================================
  Start QMCFixedSampleLinearOptimize
  File Root Mn.log.s009 append = no 
=========================================================
  Skip QMCDriver::putQMCInfo 
  Resetting Properties of the walkers 1 x 13

=========================================================
  Start VMC
  File Root Mn.log.s009 append = no 
=========================================================
Using existing walkers 
  Resetting Properties of the walkers 1 x 13

<vmc function="put">
  qmc_counter=8  my_counter=8
  time step      = 1.5000e-01
  blocks         = 500
  steps          = 1
  substeps       = 5
  current        = 0
  target samples = 5.1200e+05
  walkers/mpi    = 1

  stepsbetweensamples = 1
<parameter name="blocks" condition="int">500</parameter>
<parameter name="blocks_between_recompute" condition="int">0</parameter>
<parameter name="check_properties" condition="int">100</parameter>
<parameter name="checkproperties" condition="int">100</parameter>
<parameter name="current" condition="int">0</parameter>
<parameter name="dmcwalkersperthread" condition="real">5.0000e+02</parameter>
<parameter name="maxcpusecs" condition="real">3.6000e+05</parameter>
<parameter name="record_configs" condition="int">0</parameter>
<parameter name="record_walkers" condition="int">1</parameter>
<parameter name="recordconfigs" condition="int">0</parameter>
<parameter name="recordwalkers" condition="int">1</parameter>
<parameter name="rewind" condition="int">0</parameter>
<parameter name="samples" condition="real">5.1200e+05</parameter>
<parameter name="samplesperthread" condition="real">5.0000e+02</parameter>
<parameter name="steps" condition="int">1</parameter>
<parameter name="stepsbetweensamples" condition="int">1</parameter>
<parameter name="store_configs" condition="int">0</parameter>
<parameter name="storeconfigs" condition="int">0</parameter>
<parameter name="sub_steps" condition="int">5</parameter>
<parameter name="substeps" condition="int">5</parameter>
<parameter name="tau" condition="au">1.5000e-01</parameter>
<parameter name="time_step" condition="au">1.5000e-01</parameter>
<parameter name="timestep" condition="au">1.5000e-01</parameter>
<parameter name="use_drift" condition="string">no</parameter>
<parameter name="usedrift" condition="string">no</parameter>
<parameter name="walkers" condition="int">1</parameter>
<parameter name="warmup_steps" condition="int">0</parameter>
<parameter name="warmupsteps" condition="int">0</parameter>
  DumpConfig==false Nothing (configurations, state) will be saved.
  Walker Samples are dumped every 1 steps.
</vmc>
  EstimatorManagerBase::add replace LocalEnergy estimator.
  EstimatorManagerBase::add replace LocalEnergy estimator.
<optimization-report>
<vmc stage="main" blocks="500">
  Cannot make clones again. Use existing 1 clones
  Initial partition of walkers 0 1 
  Using Particle by Particle moves
  Walker moves without drift
  Total Sample Size   =512000
  Walker distribution on root = 0 1 
  Using Locality Approximation
===== Memory Usage after the buffer registration =====
Available memory on node 0, free + buffers : 84082 MB
Memory footprint by rank 0 on node 0       : 118 MB
==================================================
====================================================
  SimpleFixedNodeBranch::finalize after a VMC block
    QMC counter        = 9
    time step          = 0.15
    reference energy   = -103.713
    reference variance = 1.43134
====================================================
  Execution time = 4.2208e+00
</vmc>
<opt stage="setup">
  <log>
   Reading configurations from h5FileRoot Mn.log.s009
  QMCCostFunction is created with 1 threads.
  Using Nonlocal PP in Opt: NonLocalECP
   Number of samples loaded to each thread : 500 
  VMC Eavg = -1.0379e+02
  VMC Evar = 1.3935e+00
  Total weights = 5.1200e+05
  Execution time = 2.4116e+00
  </log>
</opt>
<opt stage="main" walkers="512000">
  <log>

*****************************************
Building overlap and Hamiltonian matrices
*****************************************

Among totally 82 optimized parameters, largest LM parameter change : 2.9482e-02 at parameter 20

******************************************************************************
Init Cost =  -9.8530e+01    New Cost =  -9.8530e+01  Delta Cost =  -1.9604e-04
******************************************************************************

The new set of parameters is valid. Updating the trial wave function!

*****************************************************************************
Applying the update for shift_i =   1.0000e-02     and shift_s =   3.9062e-03
*****************************************************************************
  Execution time = 7.7307e+00
  </log>
  <optVariables href="Mn.log.s009.opt.xml">
uu_0 2.0567e-01 1 1  ON 0
uu_1 5.1999e-02 1 1  ON 1
uu_2 -1.0108e-02 1 1  ON 2
uu_3 -3.9726e-02 1 1  ON 3
uu_4 -6.5909e-02 1 1  ON 4
uu_5 -8.7188e-02 1 1  ON 5
uu_6 -9.3667e-02 1 1  ON 6
uu_7 -7.9965e-02 1 1  ON 7
uu_8 -3.0213e-02 1 1  ON 8
uu_9 1.9123e-02 1 1  ON 9
ud_0 6.8460e-01 1 1  ON 10
ud_1 3.5712e-01 1 1  ON 11
ud_2 1.4321e-01 1 1  ON 12
ud_3 3.8350e-02 1 1  ON 13
ud_4 -2.0214e-02 1 1  ON 14
ud_5 -6.3454e-02 1 1  ON 15
ud_6 -8.2006e-02 1 1  ON 16
ud_7 -1.0538e-01 1 1  ON 17
ud_8 -8.7337e-02 1 1  ON 18
ud_9 -5.4431e-02 1 1  ON 19
eMn_0 -2.6243e+00 1 1  ON 20
eMn_1 -1.6752e+00 1 1  ON 21
eMn_2 -3.3854e-01 1 1  ON 22
eMn_3 4.0963e-01 1 1  ON 23
eMn_4 6.3327e-01 1 1  ON 24
eMn_5 7.3673e-01 1 1  ON 25
eMn_6 1.0474e+00 1 1  ON 26
eMn_7 1.0605e+00 1 1  ON 27
eMn_8 6.6874e-01 1 1  ON 28
eMn_9 1.3433e-01 1 1  ON 29
uuMn_0 2.8452e-06 1 1  ON 30
uuMn_1 3.2435e-06 1 1  ON 31
uuMn_2 -3.8248e-07 1 1  ON 32
uuMn_3 -3.7303e-06 1 1  ON 33
uuMn_4 -5.1086e-07 1 1  ON 34
uuMn_5 2.7245e-07 1 1  ON 35
uuMn_6 1.2404e-06 1 1  ON 36
uuMn_7 1.6984e-06 1 1  ON 37
uuMn_8 2.3815e-06 1 1  ON 38
uuMn_9 -4.1621e-06 1 1  ON 39
uuMn_10 -2.0885e-06 1 1  ON 40
uuMn_11 -1.5935e-06 1 1  ON 41
uuMn_12 -4.8631e-07 1 1  ON 42
uuMn_13 3.1109e-06 1 1  ON 43
[...]
====================================================
  Execution time = 4.2382e+00
</vmc>
<opt stage="setup">
  <log>
   Reading configurations from h5FileRoot Mn.log.s020
  QMCCostFunction is created with 1 threads.
  Using Nonlocal PP in Opt: NonLocalECP
   Number of samples loaded to each thread : 500 
  VMC Eavg = -1.0379e+02
  VMC Evar = 1.3729e+00
  Total weights = 5.1200e+05
  Execution time = 2.4113e+00
  </log>
</opt>
<opt stage="main" walkers="512000">
  <log>

*****************************************
Building overlap and Hamiltonian matrices
*****************************************

Among totally 82 optimized parameters, largest LM parameter change : 1.7726e-02 at parameter 20

******************************************************************************
Init Cost =  -9.8533e+01    New Cost =  -9.8533e+01  Delta Cost =  -1.5210e-04
******************************************************************************

The new set of parameters is valid. Updating the trial wave function!

*****************************************************************************
Applying the update for shift_i =   1.0000e-02     and shift_s =   3.9062e-03
*****************************************************************************
  Execution time = 7.7270e+00
  </log>
  <optVariables href="Mn.log.s020.opt.xml">
uu_0 1.6875e-01 1 1  ON 0
uu_1 2.4119e-02 1 1  ON 1
uu_2 -2.3797e-02 1 1  ON 2
uu_3 -4.3229e-02 1 1  ON 3
uu_4 -6.4459e-02 1 1  ON 4
uu_5 -7.9819e-02 1 1  ON 5
uu_6 -8.8348e-02 1 1  ON 6
uu_7 -9.0133e-02 1 1  ON 7
uu_8 -4.9738e-02 1 1  ON 8
uu_9 1.2019e-02 1 1  ON 9
ud_0 6.8807e-01 1 1  ON 10
ud_1 3.6162e-01 1 1  ON 11
ud_2 1.5688e-01 1 1  ON 12
ud_3 6.3781e-02 1 1  ON 13
ud_4 1.3995e-02 1 1  ON 14
ud_5 -2.6350e-02 1 1  ON 15
ud_6 -4.4096e-02 1 1  ON 16
ud_7 -7.6255e-02 1 1  ON 17
ud_8 -7.9566e-02 1 1  ON 18
ud_9 -4.9753e-02 1 1  ON 19
eMn_0 -2.8557e+00 1 1  ON 20
eMn_1 -1.8410e+00 1 1  ON 21
eMn_2 -3.2192e-01 1 1  ON 22
eMn_3 5.7937e-01 1 1  ON 23
eMn_4 7.3722e-01 1 1  ON 24
eMn_5 6.1569e-01 1 1  ON 25
eMn_6 9.7634e-01 1 1  ON 26
eMn_7 1.0823e+00 1 1  ON 27
eMn_8 8.4663e-01 1 1  ON 28
eMn_9 2.3209e-01 1 1  ON 29
uuMn_0 2.9969e-06 1 1  ON 30
uuMn_1 3.3613e-06 1 1  ON 31
uuMn_2 -7.4826e-07 1 1  ON 32
uuMn_3 -3.8370e-06 1 1  ON 33
uuMn_4 -4.9177e-07 1 1  ON 34
uuMn_5 5.4667e-07 1 1  ON 35
uuMn_6 1.0498e-06 1 1  ON 36
uuMn_7 1.1696e-06 1 1  ON 37
uuMn_8 2.0970e-06 1 1  ON 38
uuMn_9 -4.1282e-06 1 1  ON 39
uuMn_10 -2.2029e-06 1 1  ON 40
uuMn_11 -1.0591e-06 1 1  ON 41
uuMn_12 -4.6912e-07 1 1  ON 42
uuMn_13 3.3709e-06 1 1  ON 43
uuMn_14 5.9840e-07 1 1  ON 44
uuMn_15 -1.4955e-08 1 1  ON 45
uuMn_16 3.8707e-06 1 1  ON 46
uuMn_17 2.8098e-06 1 1  ON 47
uuMn_18 -1.6067e-07 1 1  ON 48
uuMn_19 1.1575e-07 1 1  ON 49
uuMn_20 -1.3582e-06 1 1  ON 50
uuMn_21 -6.1980e-08 1 1  ON 51
uuMn_22 9.4934e-09 1 1  ON 52
uuMn_23 4.8970e-07 1 1  ON 53
uuMn_24 -2.0012e-08 1 1  ON 54
uuMn_25 -1.9702e-09 1 1  ON 55
udMn_0 5.0065e-06 1 1  ON 56
udMn_1 9.5665e-06 1 1  ON 57
udMn_2 2.1231e-06 1 1  ON 58
udMn_3 -7.1002e-06 1 1  ON 59
udMn_4 -1.3862e-06 1 1  ON 60
udMn_5 -1.3748e-06 1 1  ON 61
udMn_6 1.3802e-05 1 1  ON 62
udMn_7 -3.0618e-06 1 1  ON 63
udMn_8 2.9408e-06 1 1  ON 64
udMn_9 -1.5080e-05 1 1  ON 65
udMn_10 -4.5673e-06 1 1  ON 66
udMn_11 6.6384e-07 1 1  ON 67
udMn_12 -6.1951e-07 1 1  ON 68
udMn_13 7.2381e-06 1 1  ON 69
udMn_14 3.0174e-07 1 1  ON 70
udMn_15 2.1087e-08 1 1  ON 71
udMn_16 1.5257e-05 1 1  ON 72
udMn_17 3.9455e-06 1 1  ON 73
udMn_18 -2.1880e-06 1 1  ON 74
udMn_19 2.7314e-07 1 1  ON 75
udMn_20 -4.6946e-06 1 1  ON 76
udMn_21 4.7001e-07 1 1  ON 77
udMn_22 -5.5437e-08 1 1  ON 78
udMn_23 1.3785e-06 1 1  ON 79
udMn_24 -1.4705e-07 1 1  ON 80
udMn_25 1.6190e-08 1 1  ON 81
  </optVariables>
   Restore the number of walkers to 1, removing 0 walkers.
</opt>
</optimization-report>
  QMC Execution time = 7.7426e+00 secs 

=========================================================
  Start VMC
  File Root Mn.log.s021 append = no 
=========================================================
  Using the current 1 walkers.
  Total number of walkers: 1.0240e+03
  Total weight: 1.0240e+03
  Resetting Properties of the walkers 1 x 13

<vmc function="put">
  qmc_counter=0  my_counter=0
  time step      = 1.5000e-01
  blocks         = 200
  steps          = 1
  substeps       = 30
  current        = 0
  target samples = 4.0960e+03
  walkers/mpi    = 1

  stepsbetweensamples = 50
<parameter name="blocks" condition="int">200</parameter>
<parameter name="blocks_between_recompute" condition="int">0</parameter>
<parameter name="check_properties" condition="int">100</parameter>
<parameter name="checkproperties" condition="int">100</parameter>
<parameter name="current" condition="int">0</parameter>
<parameter name="dmcwalkersperthread" condition="real">4.0000e+00</parameter>
<parameter name="maxcpusecs" condition="real">3.6000e+05</parameter>
<parameter name="record_configs" condition="int">0</parameter>
<parameter name="record_walkers" condition="int">50</parameter>
<parameter name="recordconfigs" condition="int">0</parameter>
<parameter name="recordwalkers" condition="int">50</parameter>
<parameter name="rewind" condition="int">0</parameter>
<parameter name="samples" condition="real">4.0960e+03</parameter>
<parameter name="samplesperthread" condition="real">4.0000e+00</parameter>
<parameter name="steps" condition="int">1</parameter>
<parameter name="stepsbetweensamples" condition="int">50</parameter>
<parameter name="store_configs" condition="int">0</parameter>
<parameter name="storeconfigs" condition="int">0</parameter>
<parameter name="sub_steps" condition="int">30</parameter>
<parameter name="substeps" condition="int">30</parameter>
<parameter name="tau" condition="au">1.5000e-01</parameter>
<parameter name="time_step" condition="au">1.5000e-01</parameter>
<parameter name="timestep" condition="au">1.5000e-01</parameter>
<parameter name="use_drift" condition="string">no</parameter>
<parameter name="usedrift" condition="string">no</parameter>
<parameter name="walkers" condition="int">1</parameter>
<parameter name="warmup_steps" condition="int">100</parameter>
<parameter name="warmupsteps" condition="int">100</parameter>
  DumpConfig==false Nothing (configurations, state) will be saved.
  Walker Samples are dumped every 50 steps.
</vmc>
  EstimatorManagerBase::add replace LocalEnergy estimator.
  Cannot make clones again. Use existing 1 clones
  Initial partition of walkers 0 1 

  Using Particle by Particle moves
  Walker moves without drift
  Total Sample Size   =4096
  Walker distribution on root = 0 1 
  Using Locality Approximation
===== Memory Usage after the buffer registration =====
Available memory on node 0, free + buffers : 84028 MB
Memory footprint by rank 0 on node 0       : 155 MB
==================================================
  Anonymous Buffer size per walker : 8096 Bytes.
MEMORY increase 0 MB VMC::resetRun
====================================================
  SimpleFixedNodeBranch::finalize after a VMC block
    QMC counter        = 21
    time step          = 0.15
    reference energy   = -103.8
    reference variance = 1.25193
====================================================
  QMC Execution time = 5.8166e+00 secs 

=========================================================
  Start DMC
  File Root Mn.log.s022 append = no 
=========================================================
Using existing walkers 
  Resetting Properties of the walkers 1 x 13
  EstimatorManagerBase::add replace LocalEnergy estimator.
  Cannot make clones again. Use existing 1 clones
  Total number of walkers: 4.0960e+03
  Total weight: 4.0960e+03
  Creating WalkerController: target  number of walkers = 4096
  Using WalkerControlMPI for dynamic population control.
  START ALL OVER 
  WalkerControlBase parameters 
    maxCopy = 2
    Max Walkers per MPI rank 9
    Min Walkers per MPI rank 1
    Using non-blocking send/recv
  QMC counter      = 22
  time step        = 2.0000e-02
  effective time step = 2.0000e-02
  trial energy     = -1.0380e+02
  reference energy = -1.0380e+02
  Feedback = 1.0000e+00
  reference variance = 1.2519e+00
  target walkers = 4096
  branching cutoff scheme classic
  branch cutoff = 5.0000e+01 7.5000e+01
  Max and minimum walkers per node= 9 1
  QMC Status (BranchMode) = 0000001101
  Initial partition of walkers on a node: 0 4 
  Updates by particle-by-particle moves
  DMC moves are rejected when a node crossing is detected
  Using Non-local T-moves v0, M. Casula, PRB 74, 161102(R) (2006)
===== Memory Usage after the buffer registration =====
Available memory on node 0, free + buffers : 84028 MB
Memory footprint by rank 0 on node 0       : 155 MB
==================================================
SimpleFixedNodeBranch::checkParameters 
  Average Energy of a population  = -103.809
  Energy Variance = 1.35244

  Fluctuating population
  Persistent walkers are killed after 1 MC sweeps
  BranchInterval = 1
  Steps per block = 50
  Number of blocks = 150

  DMC Engine Initialization = 3.9433e-02 secs 

 Warmup is completed after 100

  TauEff     = 1.8599e-02
 TauEff/Tau = 9.2997e-01
  Etrial     = -1.0377e+02
 Running average of energy = -1.0383e+02
                  Variance = 1.5358e+00
branch cutoff = 1.5358e+01 2.3037e+01
====================================================
  SimpleFixedNodeBranch::finalize after a DMC block
    QMC counter                   = 22
    time step                     = 0.02
    effective time step           = 0.0186015
    trial energy                  = -103.827
    reference energy              = -103.837
    reference variance            = 1.53581
    target walkers                = 4096
    branch cutoff                 = 15.3581 23.0371
    Max and minimum walkers per node= 9 1
    Feedback                      = 1
    QMC Status (BranchMode)       = 0000001111
====================================================
  QMC Execution time = 9.0700e+01 secs 
  Reusing DMC
BRANCH resetRun
 SimpleFixedNodeBranch::resetRun detected changes in <parameter>'s 
 BranchMode : 0000001111 0000001111
  WalkerControlBase parameters 
    maxCopy = 2
    Max Walkers per MPI rank 9
    Min Walkers per MPI rank 1
    Using non-blocking send/recv
 iParam (old):                  0                 1                22              4096                 9                 1                 1                 0
 iParam (new):                100                 1                22              4096                 9                 1                 1                 0
 vParam (old):   2.0000000000e-02  1.8601492605e-02 -1.0382740465e+02 -1.0383697175e+02 -1.0382519949e+02  2.3037146408e+01  1.5358097605e+01  1.3022446213e-01  1.5358097605e+00 -7.6849741618e+05  7.4010000000e+03  1.0000000000e+00  1.0000000000e+01  1.0000000000e+00  1.0000000000e+00  1.0000000000e+00  1.0000000000e+00
 vParam (new):   1.0000000000e-02  1.8601492605e-02 -1.0382740465e+02 -1.0383697175e+02 -1.0382519949e+02  2.3037146408e+01  1.5358097605e+01  1.3022446213e-01  1.5358097605e+00 -7.6849741618e+05  7.4010000000e+03  1.0000000000e+00  1.0000000000e+01  1.0000000000e+00  1.0000000000e+00  1.0000000000e+00  1.0000000000e+00

 Using branching cutoff scheme classic
SimpleFixedNodeBranch::checkParameters 
  Average Energy of a population  = -103.824
  Energy Variance = 1.44486

  Using Non-local T-moves v0, M. Casula, PRB 74, 161102(R) (2006)
===== Memory Usage after the buffer registration =====
Available memory on node 0, free + buffers : 83986 MB
Memory footprint by rank 0 on node 0       : 163 MB
==================================================

=========================================================
  Start DMC
  File Root Mn.log.s023 append = no 
=========================================================
Using existing walkers 
  Resetting Properties of the walkers 1 x 13
  EstimatorManagerBase::add replace LocalEnergy estimator.
  Cannot make clones again. Use existing 1 clones
SimpleFixedNodeBranch::checkParameters 
  Average Energy of a population  = -103.821
  Energy Variance = 1.64399

  Fluctuating population
  Persistent walkers are killed after 1 MC sweeps
  BranchInterval = 1
  Steps per block = 100
  Number of blocks = 200

  DMC Engine Initialization = 3.6096572876e-04 secs 

 Warmup is completed after 100

  TauEff     = 9.6950592517e-03
 TauEff/Tau = 9.6950592517e-01
  Etrial     = -1.0396505517e+02
 Running average of energy = -1.0383377324e+02
                  Variance = 1.4434044040e+00
branch cutoff = 1.4434044040e+01 2.1651066060e+01
====================================================
  SimpleFixedNodeBranch::finalize after a DMC block
    QMC counter                   = 23
    time step                     = 0.01
    effective time step           = 0.00969408
    trial energy                  = -103.836
    reference energy              = -103.832
    reference variance            = 1.4434
    target walkers                = 4096
    branch cutoff                 = 14.434 21.6511
    Max and minimum walkers per node= 9 1
    Feedback                      = 1
    QMC Status (BranchMode)       = 0000001111
====================================================
  QMC Execution time = 2.4281e+02 secs 
  Reusing DMC
BRANCH resetRun
 SimpleFixedNodeBranch::resetRun detected changes in <parameter>'s 
 BranchMode : 0000001111 0000001111
  WalkerControlBase parameters 
    maxCopy = 2
    Max Walkers per MPI rank 9
    Min Walkers per MPI rank 1
    Using non-blocking send/recv
 iParam (old):                  0                 1                23              4096                 9                 1                 1                 0
 iParam (new):                200                 1                23              4096                 9                 1                 1                 0
 vParam (old):   1.0000000000e-02  9.6940796766e-03 -1.0383591564e+02 -1.0383201700e+02 -1.0379231254e+02  2.1651066060e+01  1.4434044040e+01  1.3856130648e-01  1.4434044040e+00 -2.0663609307e+06  1.9901000000e+04  1.0000000000e+00  1.0000000000e+01  1.0000000000e+00  1.0000000000e+00  1.0000000000e+00  1.0000000000e+00
 vParam (new):   5.0000000000e-03  9.6940796766e-03 -1.0383591564e+02 -1.0383201700e+02 -1.0379231254e+02  2.1651066060e+01  1.4434044040e+01  1.3856130648e-01  1.4434044040e+00 -2.0663609307e+06  1.9901000000e+04  1.0000000000e+00  1.0000000000e+01  1.0000000000e+00  1.0000000000e+00  1.0000000000e+00  1.0000000000e+00

 Using branching cutoff scheme classic
SimpleFixedNodeBranch::checkParameters 
  Average Energy of a population  = -103.793
  Energy Variance = 1.39338

  Using Non-local T-moves v0, M. Casula, PRB 74, 161102(R) (2006)
===== Memory Usage after the buffer registration =====
Available memory on node 0, free + buffers : 83957 MB
Memory footprint by rank 0 on node 0       : 171 MB
==================================================

=========================================================
  Start DMC
  File Root Mn.log.s024 append = no 
=========================================================
Using existing walkers 
  Resetting Properties of the walkers 1 x 13
  EstimatorManagerBase::add replace LocalEnergy estimator.
  Cannot make clones again. Use existing 1 clones
SimpleFixedNodeBranch::checkParameters 
  Average Energy of a population  = -103.807
  Energy Variance = 2.13843

  Fluctuating population
  Persistent walkers are killed after 1 MC sweeps
  BranchInterval = 1
  Steps per block = 200
  Number of blocks = 250

  DMC Engine Initialization = 7.6508522034e-04 secs 

 Warmup is completed after 200

  TauEff     = 4.9363588859e-03
 TauEff/Tau = 9.8727177717e-01
  Etrial     = -1.0383251122e+02
 Running average of energy = -1.0382841112e+02
                  Variance = 1.4759570181e+00
branch cutoff = 1.4759570181e+01 2.2139355271e+01
====================================================
  SimpleFixedNodeBranch::finalize after a DMC block
    QMC counter                   = 24
    time step                     = 0.005
    effective time step           = 0.00493615
    trial energy                  = -103.83
    reference energy              = -103.829
    reference variance            = 1.47596
    target walkers                = 4096
    branch cutoff                 = 14.7596 22.1394
    Max and minimum walkers per node= 9 1
    Feedback                      = 1
    QMC Status (BranchMode)       = 0000001111
====================================================
  QMC Execution time = 6.0508e+02 secs 
  Reusing DMC
BRANCH resetRun
 SimpleFixedNodeBranch::resetRun detected changes in <parameter>'s 
 BranchMode : 0000001111 0000001111
  WalkerControlBase parameters 
    maxCopy = 2
    Max Walkers per MPI rank 9
    Min Walkers per MPI rank 1
    Using non-blocking send/recv
 iParam (old):                  0                 1                24              4096                 9                 1                 1                 0
 iParam (new):                400                 1                24              4096                 9                 1                 1                 0
 vParam (old):   5.0000000000e-03  4.9361470907e-03 -1.0383049935e+02 -1.0382854813e+02 -1.0384758965e+02  2.2139355271e+01  1.4759570181e+01  1.3550530100e-01  1.4759570181e+00 -5.1707655442e+06  4.9801000000e+04  1.0000000000e+00  1.0000000000e+01  1.0000000000e+00  1.0000000000e+00  1.0000000000e+00  1.0000000000e+00
 vParam (new):   2.5000000000e-03  4.9361470907e-03 -1.0383049935e+02 -1.0382854813e+02 -1.0384758965e+02  2.2139355271e+01  1.4759570181e+01  1.3550530100e-01  1.4759570181e+00 -5.1707655442e+06  4.9801000000e+04  1.0000000000e+00  1.0000000000e+01  1.0000000000e+00  1.0000000000e+00  1.0000000000e+00  1.0000000000e+00

 Using branching cutoff scheme classic
SimpleFixedNodeBranch::checkParameters 
  Average Energy of a population  = -103.845
  Energy Variance = 1.42837

  Using Non-local T-moves v0, M. Casula, PRB 74, 161102(R) (2006)
===== Memory Usage after the buffer registration =====
Available memory on node 0, free + buffers : 83923 MB
Memory footprint by rank 0 on node 0       : 179 MB
==================================================

=========================================================
  Start DMC
  File Root Mn.log.s025 append = no 
=========================================================
Using existing walkers 
  Resetting Properties of the walkers 1 x 13
  EstimatorManagerBase::add replace LocalEnergy estimator.
  Cannot make clones again. Use existing 1 clones
SimpleFixedNodeBranch::checkParameters 
  Average Energy of a population  = -103.838
  Energy Variance = 1.50109

  Fluctuating population
  Persistent walkers are killed after 1 MC sweeps
  BranchInterval = 1
  Steps per block = 400
  Number of blocks = 300

  DMC Engine Initialization = 3.7407875061e-04 secs 

 Warmup is completed after 400

  TauEff     = 2.4870752440e-03
 TauEff/Tau = 9.9483009762e-01
  Etrial     = -1.0411659790e+02
 Running average of energy = -1.0382917430e+02
                  Variance = 1.3909794421e+00
branch cutoff = 1.3909794421e+01 2.0864691631e+01
====================================================
  SimpleFixedNodeBranch::finalize after a DMC block
    QMC counter                   = 25
    time step                     = 0.0025
    effective time step           = 0.00248708
    trial energy                  = -103.817
    reference energy              = -103.828
    reference variance            = 1.39098
    target walkers                = 4096
    branch cutoff                 = 13.9098 20.8647
    Max and minimum walkers per node= 9 1
    Feedback                      = 1
    QMC Status (BranchMode)       = 0000001111
====================================================
  QMC Execution time = 1.4536e+03 secs 
  Total Execution time = 2.5566e+03 secs

=========================================================
  A new xml input file : Mn.log.s025.cont.xml
TACC:  Shutdown complete. Exiting. 
