
 Primary working directories    : /global/cscratch1/sd/aannabe
 Secondary working directories  : /global/cscratch1/sd/aannabe
 Wavefunction directory         : /global/homes/a/aannabe/wfu/
 Main file repository           : /global/cscratch1/sd/aannabe/

 SHA1      : 2873118e99aab1bc19f5b6fc1784693c06d15c95
 NAME      : 2015.1.8
 ARCHNAME  : linux/x86_64
 FC        : /opt/cray/pe/craype/2.5.5/bin/ftn
 BLASLIB   : -Wl,-_start-group /opt/intel/compilers_and_libraries_2016.3.210/linux/mkl/lib/intel64/libmkl_intel_ilp64.a /opt/intel/compilers_and_libraries_2016.3.210/linux/mkl/lib/intel64/libmkl_intel_thread.a /opt/intel/compilers_and_libraries_2016.3.210/linux/mkl/lib/intel64/libmkl_core.a -Wl,-_end-group
 id        : lbl

 Nodes     nprocs
 nid00479     1

 Using customized tuning parameters: mindgm=8; mindgv=16; mindgc=4; mindgr=1; noblas=0; minvec=7
 default implementation of scratch files=df  

 ***,Cl
 memory,8,g
 gthresh,twoint=1.e-12
 
 gprint,basis,orbitals
 gexpec,ekin,pot
 
 angstrom
 geometry={
 1                                                                               ! Number of atoms
 Cl 0.0 0.0 0.0
 }
 
 basis={
 Including file /global/homes/a/aannabe/docs/accurate/ccECP_Kh/pps/Cl.pp
 Including file /global/homes/a/aannabe/docs/accurate/ccECP_Kh/basis/aug-cc-pVnZ/Cl_tz.basis
 }
 
 {rhf
  start,atden
  wf,7,3,1
  occ,1,1,1,0,1,0,0,0
  open,1.3
  orbital,4202.2
 }
 {multi
  maxiter,40
  start,4202.2
  occ,1,1,1,0,1,0,0,0
  closed,1,0,0,0,0,0,0
  wf,7,3,1;state,1
  wf,7,5,1;state,1
  wf,7,2,1;state,1
  natorb,ci,print
  orbital,5202.2
 }
 {rhf,nitord=1,maxit=0
  start,5202.2
  wf,7,3,1
  occ,1,1,1,0,1,0,0,0
  open,1.3
 }
 
 scf(i)=energy
 
 _CC_NORM_MAX=2.0
 {fci
 maxit,100
 core
 }
 posthf(i)=energy
 
 table,scf,posthf,ekin,pot
 save,3.csv,new
 
 

 Variables initialized (889), CPU time= 0.00 sec
 Commands  initialized (702), CPU time= 0.02 sec, 572 directives.
 Default parameters read. Elapsed time= 0.19 sec

 Checking input...
 Passed
1


                                         ***  PROGRAM SYSTEM MOLPRO  ***
                                       Copyright, TTI GmbH Stuttgart, 2015
                                    Version 2015.1 linked Sep  7 2016 23:09:38


 **********************************************************************************************************************************
 LABEL *   Cl                                                                            
  64 bit serial version                                                                  DATE: 30-Oct-18          TIME: 20:07:10  
 **********************************************************************************************************************************

 SHA1:             2873118e99aab1bc19f5b6fc1784693c06d15c95
 **********************************************************************************************************************************

 THRESHOLDS:

 ZERO    =  1.00D-12  ONEINT  =  1.00D-12  TWOINT  =  1.00D-12  PREFAC  =  1.00D-14  LOCALI  =  1.00D-09  EORDER  =  1.00D-04
 ENERGY  =  0.00D+00  ETEST   =  0.00D+00  EDENS   =  0.00D+00  THRDEDEF=  1.00D-06  GRADIENT=  1.00D-02  STEP    =  1.00D-03
 ORBITAL =  1.00D-05  CIVEC   =  1.00D-05  COEFF   =  1.00D-04  PRINTCI =  5.00D-02  PUNCHCI =  9.90D+01  OPTGRAD =  3.00D-04
 OPTENERG=  1.00D-06  OPTSTEP =  3.00D-04  THRGRAD =  1.00D-10  COMPRESS=  1.00D-11  VARMIN  =  1.00D-07  VARMAX  =  1.00D-03
 THRDOUB =  0.00D+00  THRDIV  =  1.00D-05  THRRED  =  1.00D-07  THRPSP  =  1.00D+00  THRDC   =  1.00D-10  THRCS   =  1.00D-10
 THRNRM  =  1.00D-08  THREQ   =  0.00D+00  THRDE   =  1.00D+00  THRREF  =  1.00D-05  SPARFAC =  1.00D+00  THRDLP  =  1.00D-07
 THRDIA  =  1.00D-10  THRDLS  =  1.00D-07  THRGPS  =  0.00D+00  THRKEX  =  0.00D+00  THRDIS  =  2.00D-01  THRVAR  =  1.00D-10
 THRLOC  =  1.00D-06  THRGAP  =  1.00D-06  THRLOCT = -1.00D+00  THRGAPT = -1.00D+00  THRORB  =  1.00D-06  THRMLTP =  0.00D+00
 THRCPQCI=  1.00D-10  KEXTA   =  0.00D+00  THRCOARS=  0.00D+00  SYMTOL  =  1.00D-06  GRADTOL =  1.00D-06  THROVL  =  1.00D-08
 THRORTH =  1.00D-08  GRID    =  1.00D-06  GRIDMAX =  1.00D-03  DTMAX   =  0.00D+00  THROCCDE=  1.00D-01  THROCCDE=  1.00D-01



 ZUNIT=ANG
 

Geometry recognized as XYZ


 Variable memory set to 8000000000 words,  buffer space   230000 words

 SETTING BASIS          =    USERDEF


 Recomputing integrals since basis changed


 Using spherical harmonics



 PROGRAM * SEWARD (Integral evaluation for generally contracted gaussian basis sets)     Author: Roland Lindh, 1990

 Geometry written to block  1 of record 700

 Orientation using atomic masses  
 Molecule type: Atom
 Symmetry elements: X,Y,Z
 Rotational constants:       0.0000000      0.0000000      0.0000000 GHz  (calculated with average atomic masses)

 Point group  D2h 



 ATOMIC COORDINATES

 NR  ATOM    CHARGE       X              Y              Z

   1  CL      7.00    0.000000000    0.000000000    0.000000000


          CL  CORE POTENTIAL

          d POTENTIAL

 POWERS             1              3              2
 EXPONENTIALS   7.944352       12.80126       6.296744    
 COEFFICIENTS   7.000000       55.61046      -22.86078    

          s - d POTENTIAL

 POWERS             2              2
 EXPONENTIALS   17.90843       4.159880    
 COEFFICIENTS   15.83923       44.46950    

          p - d POTENTIAL

 POWERS             2              2
 EXPONENTIALS   7.931763       3.610412    
 COEFFICIENTS   8.321946       24.04474    


 BASIS DATA

   Nr Sym  Nuc  Type         Exponents   Contraction coefficients

    1.1 Ag    1  1s          15.583847     0.002501
                              8.858485    -0.010046
                              5.035519     0.085810
                              2.862391    -0.290136
                              1.627098    -0.140314
                              0.924908     0.146839
                              0.525755     0.392484
                              0.298860     0.425061
                              0.169884     0.227195
                              0.096569     0.059828
    2.1 Ag    1  1s           1.020976     1.000000
    3.1 Ag    1  1s           0.186161     1.000000
    4.1 Ag    1  1s           0.132342     1.000000
    5.1 Ag    1  3d0          1.172371     1.000000
    6.1 Ag    1  3d2+         1.172371     1.000000
    7.1 Ag    1  3d0          0.363254     1.000000
    8.1 Ag    1  3d2+         0.363254     1.000000
    9.1 Ag    1  3d0          0.137654     1.000000
   10.1 Ag    1  3d2+         0.137654     1.000000
    1.2 B3u   1  2px          7.682894    -0.004609
                              4.507558    -0.001798
                              2.644587    -0.068614
                              1.551581     0.062352
                              0.910313     0.166337
                              0.534081     0.282292
                              0.313346     0.275967
                              0.183840     0.241328
                              0.107859     0.110223
                              0.063281     0.040289
    2.2 B3u   1  2px          0.899235     1.000000
    3.2 B3u   1  2px          0.143669     1.000000
    4.2 B3u   1  2px          0.051775     1.000000
    5.2 B3u   1  4f1+         0.720453     1.000000
    6.2 B3u   1  4f3+         0.720453     1.000000
    7.2 B3u   1  4f1+         0.300374     1.000000
    8.2 B3u   1  4f3+         0.300374     1.000000
    1.3 B2u   1  2py          7.682894    -0.004609
                              4.507558    -0.001798
                              2.644587    -0.068614
                              1.551581     0.062352
                              0.910313     0.166337
                              0.534081     0.282292
                              0.313346     0.275967
                              0.183840     0.241328
                              0.107859     0.110223
                              0.063281     0.040289
    2.3 B2u   1  2py          0.899235     1.000000
    3.3 B2u   1  2py          0.143669     1.000000
    4.3 B2u   1  2py          0.051775     1.000000
    5.3 B2u   1  4f1-         0.720453     1.000000
    6.3 B2u   1  4f3-         0.720453     1.000000
    7.3 B2u   1  4f1-         0.300374     1.000000
    8.3 B2u   1  4f3-         0.300374     1.000000
    1.4 B1g   1  3d2-         1.172371     1.000000
    2.4 B1g   1  3d2-         0.363254     1.000000
    3.4 B1g   1  3d2-         0.137654     1.000000
    1.5 B1u   1  2pz          7.682894    -0.004609
                              4.507558    -0.001798
                              2.644587    -0.068614
                              1.551581     0.062352
                              0.910313     0.166337
                              0.534081     0.282292
                              0.313346     0.275967
                              0.183840     0.241328
                              0.107859     0.110223
                              0.063281     0.040289
    2.5 B1u   1  2pz          0.899235     1.000000
    3.5 B1u   1  2pz          0.143669     1.000000
    4.5 B1u   1  2pz          0.051775     1.000000
    5.5 B1u   1  4f0          0.720453     1.000000
    6.5 B1u   1  4f2+         0.720453     1.000000
    7.5 B1u   1  4f0          0.300374     1.000000
    8.5 B1u   1  4f2+         0.300374     1.000000
    1.6 B2g   1  3d1+         1.172371     1.000000
    2.6 B2g   1  3d1+         0.363254     1.000000
    3.6 B2g   1  3d1+         0.137654     1.000000
    1.7 B3g   1  3d1-         1.172371     1.000000
    2.7 B3g   1  3d1-         0.363254     1.000000
    3.7 B3g   1  3d1-         0.137654     1.000000
    1.8 Au    1  4f2-         0.720453     1.000000
    2.8 Au    1  4f2-         0.300374     1.000000

 NUCLEAR CHARGE:                    7
 NUMBER OF PRIMITIVE AOS:          90
 NUMBER OF SYMMETRY AOS:           81
 NUMBER OF CONTRACTIONS:           45   (  10Ag  +   8B3u +   8B2u +   3B1g +   8B1u +   3B2g +   3B3g +   2Au  )
 NUMBER OF CORE ORBITALS:           0   (   0Ag  +   0B3u +   0B2u +   0B1g +   0B1u +   0B2g +   0B3g +   0Au  )
 NUMBER OF VALENCE ORBITALS:        4   (   1Ag  +   1B3u +   1B2u +   0B1g +   1B1u +   0B2g +   0B3g +   0Au  )


 NUCLEAR REPULSION ENERGY    0.00000000

 EXTRA SYMMETRY OF AOS IN SYMMETRY 1:   1 1 1 1 2 3 2 3 2 3
 EXTRA SYMMETRY OF AOS IN SYMMETRY 2:   1 1 1 1 2 3 2 3
 EXTRA SYMMETRY OF AOS IN SYMMETRY 3:   1 1 1 1 2 3 2 3
 EXTRA SYMMETRY OF AOS IN SYMMETRY 5:   1 1 1 1 2 3 2 3

 Eigenvalues of metric

         1 0.483E-02 0.726E-01 0.205E+00 0.205E+00 0.569E+00 0.822E+00 0.822E+00 0.197E+01
         2 0.179E-01 0.251E+00 0.341E+00 0.341E+00 0.985E+00 0.166E+01 0.166E+01 0.275E+01
         3 0.179E-01 0.251E+00 0.341E+00 0.341E+00 0.985E+00 0.166E+01 0.166E+01 0.275E+01
         4 0.205E+00 0.822E+00 0.197E+01
         5 0.179E-01 0.251E+00 0.341E+00 0.341E+00 0.985E+00 0.166E+01 0.166E+01 0.275E+01
         6 0.205E+00 0.822E+00 0.197E+01
         7 0.205E+00 0.822E+00 0.197E+01
         8 0.341E+00 0.166E+01


 Contracted 2-electron integrals neglected if value below      1.0D-12
 AO integral compression algorithm  1   Integral accuracy      1.0D-12

     1.049 MB (compressed) written to integral file ( 94.8%)


 NUMBER OF SORTED TWO-ELECTRON INTEGRALS:      75808.     BUFFER LENGTH:  32768
 NUMBER OF SEGMENTS:   1  SEGMENT LENGTH:      75808      RECORD LENGTH: 524288

 Memory used in sort:       0.63 MW

 SORT1 READ      155797. AND WROTE       61548. INTEGRALS IN      1 RECORDS. CPU TIME:     0.01 SEC, REAL TIME:     0.01 SEC
 SORT2 READ       61548. AND WROTE       75808. INTEGRALS IN      4 RECORDS. CPU TIME:     0.02 SEC, REAL TIME:     0.04 SEC

 FILE SIZES:   FILE 1:    20.2 MBYTE,  FILE 4:     4.2 MBYTE,   TOTAL:     24.4 MBYTE

 OPERATOR DM      FOR CENTER  0  COORDINATES:    0.000000    0.000000    0.000000
 OPERATOR EKIN    FOR CENTER  0  COORDINATES:    0.000000    0.000000    0.000000
 OPERATOR POT     FOR CENTER  0  COORDINATES:    0.000000    0.000000    0.000000


 **********************************************************************************************************************************
 DATASETS  * FILE   NREC   LENGTH (MB)   RECORD NAMES
              1      20       19.60       500      610      700      900      950      970     1000      129      960     1100   
                                          VAR    BASINP    GEOM    SYMINP    ZMAT    AOBASIS   BASIS     P2S    ABASIS      S 
                                         1400     1410     1420     1200     1210     1080     1600     1650     1300     1700   
                                         EKIN       V       ECP      H0       H01     AOSYM     SMH    MOLCAS    ERIS     OPER   

 PROGRAMS   *        TOTAL       INT
 CPU TIMES  *         2.32      2.19
 REAL TIME  *        14.39 SEC
 DISK USED  *        24.67 MB      
 **********************************************************************************************************************************


 PROGRAM * RHF-SCF (OPEN SHELL)       Authors: W. Meyer, H.-J. Werner


 NUMBER OF ELECTRONS:       4+    3-    SPACE SYMMETRY=3    SPIN SYMMETRY: Doublet 
 CONVERGENCE THRESHOLDS:    1.00E-05 (Density)    1.00E-07 (Energy)
 MAX. NUMBER OF ITERATIONS:       60
 INTERPOLATION TYPE:            DIIS
 INTERPOLATION STEPS:              2 (START)      1 (STEP)
 LEVEL SHIFTS:                 -0.60 (CLOSED) -0.30 (OPEN) 


 Singly occupied orbitals:      1.3

   Atom=CL basis=ECP10MWB_GUESS    lmin=0  lmax=1

 Orbital guess generated from atomic densities. Full valence occupancy:    1   1   1   0   1   0   0   0


 Molecular orbital dump at record        4202.2

 ITERATION    DDIFF          GRAD             ENERGY        2-EL.EN.            DIPOLE MOMENTS         DIIS   ORB.
    1      0.000D+00      0.000D+00       -14.68772296     19.777928    0.00000    0.00000    0.00000    0    start
    2      0.000D+00      0.819D-02       -14.69087380     19.934695    0.00000    0.00000    0.00000    1    diag,B
    3      0.770D-02      0.215D-02       -14.69124750     19.978012    0.00000    0.00000    0.00000    2    diag,B
    4      0.357D-02      0.672D-03       -14.69129538     19.987416    0.00000    0.00000    0.00000    3    diag,B
    5      0.152D-02      0.142D-03       -14.69129784     19.989033    0.00000    0.00000    0.00000    4    diag,B
    6      0.433D-03      0.262D-04       -14.69129790     19.989215    0.00000    0.00000    0.00000    5    diag,B
    7      0.884D-04      0.521D-05       -14.69129790     19.989291    0.00000    0.00000    0.00000    6    fixocc
    8      0.884D-05      0.178D-05       -14.69129790     19.989305    0.00000    0.00000    0.00000    0    orth

 Final alpha occupancy:   1   1   1   0   1   0   0   0
 Final beta  occupancy:   1   1   0   0   1   0   0   0

 !RHF STATE 1.3 Energy                -14.691297900215
 Nuclear energy                         0.00000000
 One-electron energy                  -24.68595030
 Two-electron energy                    9.99465240
 Virial quotient                       -2.67238925
 !RHF STATE 1.3 Dipole moment           0.00000000     0.00000000     0.00000000
 Dipole moment /Debye                   0.00000000     0.00000000     0.00000000
 

 !RHF expec          <1.3|EKIN|1.3>     5.497439379063
 
 !RHF expec           <1.3|POT|1.3>    -4.697885441961

 ELECTRON ORBITALS
 =================


   Orb  Occ    Energy  Couls-En    Coefficients

                                   1 1s      1 1s      1 1s      1 1s      1 3d0     1 3d2+    1 3d0     1 3d2+    1 3d0     1 3d2+ 


   1.1   2    -1.0800   -5.0931  1.000035  0.000005  0.000171 -0.000244  0.000470  0.000815  0.001039  0.001800  0.001979  0.003428

                                   1 2px     1 2px     1 2px     1 2px     1 4f1+    1 4f3+    1 4f1+    1 4f3+ 

   1.2   2    -0.4913   -3.8161  0.989753  0.001344  0.008227  0.004429 -0.001097 -0.004247 -0.000979 -0.003791

                                   1 2py     1 2py     1 2py     1 2py     1 4f1-    1 4f3-    1 4f1-    1 4f3- 

   1.3   +    -0.5717   -3.9317  1.042920 -0.005923 -0.036904 -0.015501 -0.007529 -0.009721 -0.005816 -0.007509

                                   1 2pz     1 2pz     1 2pz     1 2pz     1 4f0     1 4f2+    1 4f0     1 4f2+ 

   1.5   2    -0.4913   -3.8161  0.989753  0.001344  0.008227  0.004429 -0.002686 -0.003468 -0.002398 -0.003096

 HOMO      1.2    -0.491255 =     -13.3677eV
 LUMO      2.3     0.133110 =       3.6221eV
 LUMO-HOMO         0.624365 =      16.9898eV


 **********************************************************************************************************************************
 DATASETS  * FILE   NREC   LENGTH (MB)   RECORD NAMES
              1      20       19.60       500      610      700      900      950      970     1000      129      960     1100   
                                          VAR    BASINP    GEOM    SYMINP    ZMAT    AOBASIS   BASIS     P2S    ABASIS      S 
                                         1400     1410     1420     1200     1210     1080     1600     1650     1300     1700   
                                         EKIN       V       ECP      H0       H01     AOSYM     SMH    MOLCAS    ERIS     OPER   

              2       4        2.76       700     1000      520     4202   
                                         GEOM     BASIS   MCVARS     RHF  

 PROGRAMS   *        TOTAL       RHF       INT
 CPU TIMES  *         2.38      0.07      2.19
 REAL TIME  *        16.07 SEC
 DISK USED  *        24.67 MB      
 **********************************************************************************************************************************


 PROGRAM * MULTI (Direct Multiconfiguration SCF)       Authors: P.J. Knowles, H.-J. Werner (1984)     S.T. Elbert (1988)


 Number of closed-shell orbitals:   1 (   1   0   0   0   0   0   0   0 )
 Number of active  orbitals:        3 (   0   1   1   0   1   0   0   0 )
 Number of external orbitals:      41 (   9   7   7   3   7   3   3   2 )

 State symmetry 1

 Number of electrons:     5    Spin symmetry=Doublet   Space symmetry=3
 Number of states:        1
 Number of CSFs:          1   (1 determinants, 3 intermediate states)

 State symmetry 2

 Number of electrons:     5    Spin symmetry=Doublet   Space symmetry=5
 Number of states:        1
 Number of CSFs:          1   (1 determinants, 3 intermediate states)

 State symmetry 3

 Number of electrons:     5    Spin symmetry=Doublet   Space symmetry=2
 Number of states:        1
 Number of CSFs:          1   (1 determinants, 3 intermediate states)

 Iteration controls:
             1  2  3  4  5  6  7  8  9 10 11 12 13 14 15 16 17 18 19 20 21 22 23 24 25 26 27 28 29 30 31 32 33 34 35 36 37 38 39
 DIAGCI      T  T  T  T  T  T  T  T  T  T  T  T  T  T  T  T  T  T  T  T  T  T  T  T  T  T  T  T  T  T  T  T  T  T  T  T  T  T  T
 WERNER      T  T  T  T  T  T  T  T  T  T  T  T  T  T  T  T  T  T  T  T  T  T  T  T  T  T  T  T  T  T  T  T  T  T  T  T  T  T  T
 INTERNAL    F  T  T  T  T  T  T  T  T  T  T  T  T  T  T  T  T  T  T  T  T  T  T  T  T  T  T  T  T  T  T  T  T  T  T  T  T  T  T

 Molecular orbitals read from record     4202.2  Type=RHF/CANONICAL (state 1.3)
 *** IN SYMMETRY 1 ORBITAL  1 SYMMETRY CONTAMINATION OF 0.944D-02 HAS BEEN REMOVED

 EXTRA SYMMETRY OF MOS IN SYMMETRY 1:   1 1 3 2 3 2 1 3 2 1
 *** IN SYMMETRY 2 ORBITAL  1 SYMMETRY CONTAMINATION OF 0.998D-02 HAS BEEN REMOVED
 EXTRA SYMMETRY OF MOS IN SYMMETRY 2:   1 1 1 3 2 3 2 1
 *** IN SYMMETRY 3 ORBITAL  1 SYMMETRY CONTAMINATION OF 0.270D-01 HAS BEEN REMOVED
 EXTRA SYMMETRY OF MOS IN SYMMETRY 3:   1 1 1 3 2 3 2 1
 *** IN SYMMETRY 5 ORBITAL  1 SYMMETRY CONTAMINATION OF 0.115D-01 HAS BEEN REMOVED
 EXTRA SYMMETRY OF MOS IN SYMMETRY 5:   1 1 1 3 2 3 2 1

 Wavefunction dump at record             5202.2

 Convergence thresholds  0.10E-01 (gradient)  0.10E-05 (energy)  0.10E-02 (step length)

 Weight factors for state symmetry  1:    0.33333
 Weight factors for state symmetry  2:    0.33333
 Weight factors for state symmetry  3:    0.33333

 Number of orbital rotations:       30   (     0 Core/Active      9 Core/Virtual   0 Active/Active     21 Active/Virtual)
 Total number of variables:         33


 ITER. MIC  NCI  NEG     ENERGY(VAR)     ENERGY(PROJ)   ENERGY CHANGE     GRAD(0)  GRAD(ORB)   GRAD(CI)     STEP       TIME

   1   26   12    0     -14.68860541     -14.68946951   -0.00086410    0.03215187 0.00000000 0.00000000  0.30D-01      0.02
   2   12   12    0     -14.68946978     -14.68946978   -0.00000001    0.00011414 0.00000000 0.00000000  0.64D-04      0.03

 ** WVFN ****  CONVERGENCE REACHED, FINAL GRADIENT:  0.21D-08



 Results for state 1.3
 =====================

 !MCSCF STATE 1.3 Energy              -14.689469780972
 Nuclear energy                         0.00000000
 Kinetic energy                         5.49575592
 One electron energy                  -24.68808886
 Two electron energy                    9.99861908
 Virial ratio                           3.67287522

 !MCSCF STATE 1.3 Dipole moment         0.00000000     0.00000000     0.00000000
 Dipole moment /Debye                   0.00000000     0.00000000     0.00000000



 Results for state 1.5
 =====================

 !MCSCF STATE 1.5 Energy              -14.689469780971
 Nuclear energy                         0.00000000
 Kinetic energy                         5.49575592
 One electron energy                  -24.68808886
 Two electron energy                    9.99861908
 Virial ratio                           3.67287522

 !MCSCF STATE 1.5 Dipole moment         0.00000000     0.00000000     0.00000000
 Dipole moment /Debye                   0.00000000     0.00000000     0.00000000



 Results for state 1.2
 =====================

 !MCSCF STATE 1.2 Energy              -14.689469780971
 Nuclear energy                         0.00000000
 Kinetic energy                         5.49575592
 One electron energy                  -24.68808886
 Two electron energy                    9.99861908
 Virial ratio                           3.67287522

 !MCSCF STATE 1.2 Dipole moment         0.00000000     0.00000000     0.00000000
 Dipole moment /Debye                   0.00000000     0.00000000     0.00000000

 State-averaged charge density matrix saved on record  5202.2 (density set 1)

 !MCSCF expec        <1.3|EKIN|1.3>     5.495755915223
 !MCSCF expec        <1.5|EKIN|1.5>     5.495755915283
 !MCSCF expec        <1.2|EKIN|1.2>     5.495755915283

 !MCSCF expec         <1.3|POT|1.3>    -4.697955850042
 !MCSCF expec         <1.5|POT|1.5>    -4.697955850067
 !MCSCF expec         <1.2|POT|1.2>    -4.697955850067


 NATURAL ORBITALS (state averaged)
 =================================

   Orb     Occ        Energy       Coefficients

                                   1 1s      1 1s      1 1s      1 1s      1 3d0     1 3d2+    1 3d0     1 3d2+    1 3d0     1 3d2+ 


   1.1  2.00000    -1.079902     0.999977 -0.000013  0.000143 -0.000117  0.000000  0.000000  0.000000  0.000000  0.000000  0.000000

                                   1 2px     1 2px     1 2px     1 2px     1 4f1+    1 4f3+    1 4f1+    1 4f3+ 

   1.2  1.66667    -0.427668     1.000010 -0.000003 -0.000026  0.000029  0.000000  0.000000  0.000000  0.000000

                                   1 2py     1 2py     1 2py     1 2py     1 4f1-    1 4f3-    1 4f1-    1 4f3- 

   1.3  1.66667    -0.427668     1.000010 -0.000003 -0.000026  0.000029  0.000000  0.000000  0.000000  0.000000

                                   1 2pz     1 2pz     1 2pz     1 2pz     1 4f0     1 4f2+    1 4f0     1 4f2+ 

   1.5  1.66667    -0.427668     1.000010 -0.000003 -0.000026  0.000029  0.000000  0.000000  0.000000  0.000000
 

 EXTRA SYMMETRY OF MOS IN SYMMETRY 1:   1 1 2 3 2 3 1 2 3 1
 EXTRA SYMMETRY OF MOS IN SYMMETRY 2:   1 1 1 2 3 2 3 1
 EXTRA SYMMETRY OF MOS IN SYMMETRY 3:   1 1 1 2 3 2 3 1
 EXTRA SYMMETRY OF MOS IN SYMMETRY 5:   1 1 1 3 2 2 3 1

 Natural orbital dump (state averaged) at molpro section  5202.2    (Orbital set 2)


 CI vector for state symmetry 1
 ==============================

 2 a 2           1.0000000

 TOTAL ENERGIES                       -14.68946978

 CI vector for state symmetry 2
 ==============================

 2 2 a           1.0000000

 TOTAL ENERGIES                       -14.68946978

 CI vector for state symmetry 3
 ==============================

 a 2 2           1.0000000

 TOTAL ENERGIES                       -14.68946978



 **********************************************************************************************************************************
 DATASETS  * FILE   NREC   LENGTH (MB)   RECORD NAMES
              1      21       19.65       500      610      700      900      950      970     1000      129      960     1100   
                                          VAR    BASINP    GEOM    SYMINP    ZMAT    AOBASIS   BASIS     P2S    ABASIS      S 
                                         1400     1410     1420     1200     1210     1080     1600     1650     1300     1700   
                                         EKIN       V       ECP      H0       H01     AOSYM     SMH    MOLCAS    ERIS     OPER   
                                         1380   
                                         JKOP   

              2       5        5.26       700     1000      520     4202     5202   
                                         GEOM     BASIS   MCVARS     RHF     MCSCF   

 PROGRAMS   *        TOTAL     MULTI       RHF       INT
 CPU TIMES  *         2.42      0.04      0.07      2.19
 REAL TIME  *        19.63 SEC
 DISK USED  *        34.12 MB      
 **********************************************************************************************************************************


 PROGRAM * RHF-SCF (OPEN SHELL)       Authors: W. Meyer, H.-J. Werner


 NUMBER OF ELECTRONS:       4+    3-    SPACE SYMMETRY=3    SPIN SYMMETRY: Doublet 
 CONVERGENCE THRESHOLDS:    1.00E-05 (Density)    1.00E-07 (Energy)
 MAX. NUMBER OF ITERATIONS:        0
 INTERPOLATION TYPE:            DIIS
 INTERPOLATION STEPS:              2 (START)      1 (STEP)
 LEVEL SHIFTS:                 -0.60 (CLOSED) -0.30 (OPEN) 


 Singly occupied orbitals:      1.3
 Molecular orbitals read from record     5202.2  Type=MCSCF/NATURAL (state averaged)

 Molecular orbital dump at record        2101.2

 ITERATION    DDIFF          GRAD             ENERGY        2-EL.EN.            DIPOLE MOMENTS         DIIS   ORB.
    1      0.000D+00      0.000D+00       -14.68946978     19.997238    0.00000    0.00000    0.00000    0    start

 Final alpha occupancy:   1   1   1   0   1   0   0   0
 Final beta  occupancy:   1   1   0   0   1   0   0   0

 !RHF STATE 1.3 Energy                -14.689469780972
 Nuclear energy                         0.00000000
 One-electron energy                  -24.68808886
 Two-electron energy                    9.99861908
 Virial quotient                       -2.67287522
 !RHF STATE 1.3 Dipole moment           0.00000000     0.00000000     0.00000000
 Dipole moment /Debye                   0.00000000     0.00000000     0.00000000
 

 !RHF expec          <1.3|EKIN|1.3>     5.495755915223
 
 !RHF expec           <1.3|POT|1.3>    -4.697955850042

 ELECTRON ORBITALS
 =================


   Orb  Occ    Energy  Couls-En    Coefficients

                                   1 1s      1 1s      1 1s      1 1s      1 3d0     1 3d2+    1 3d0     1 3d2+    1 3d0     1 3d2+ 


   1.1   2    -1.0799   -5.0931  0.999977 -0.000013  0.000143 -0.000117  0.000000  0.000000  0.000000  0.000000  0.000000  0.000000

                                   1 2px     1 2px     1 2px     1 2px     1 4f1+    1 4f3+    1 4f1+    1 4f3+ 

   1.2   2    -0.4277   -3.7600  1.000010 -0.000003 -0.000026  0.000029  0.000000  0.000000  0.000000  0.000000

                                   1 2py     1 2py     1 2py     1 2py     1 4f1-    1 4f3-    1 4f1-    1 4f3- 

   1.3   +    -0.4277   -3.7600  1.000010 -0.000003 -0.000026  0.000029  0.000000  0.000000  0.000000  0.000000

                                   1 2pz     1 2pz     1 2pz     1 2pz     1 4f0     1 4f2+    1 4f0     1 4f2+ 

   1.5   2    -0.4277   -3.7600  1.000010 -0.000003 -0.000026  0.000029  0.000000  0.000000  0.000000  0.000000

 HOMO      1.2    -0.427668 =     -11.6374eV
 LUMO      2.2     0.142314 =       3.8726eV
 LUMO-HOMO         0.569983 =      15.5100eV


 **********************************************************************************************************************************
 DATASETS  * FILE   NREC   LENGTH (MB)   RECORD NAMES
              1      21       19.65       500      610      700      900      950      970     1000      129      960     1100   
                                          VAR    BASINP    GEOM    SYMINP    ZMAT    AOBASIS   BASIS     P2S    ABASIS      S 
                                         1400     1410     1420     1200     1210     1080     1600     1650     1300     1700   
                                         EKIN       V       ECP      H0       H01     AOSYM     SMH    MOLCAS    ERIS     OPER   
                                         1380   
                                         JKOP   

              2       6        7.77       700     1000      520     4202     5202     2101   
                                         GEOM     BASIS   MCVARS     RHF     MCSCF     RHF  

 PROGRAMS   *        TOTAL       RHF     MULTI       RHF       INT
 CPU TIMES  *         2.46      0.04      0.04      0.07      2.19
 REAL TIME  *        19.88 SEC
 DISK USED  *        34.12 MB      
 **********************************************************************************************************************************
 SETTING SCF(I)         =       -14.68946978  AU                              
 SETTING _CC_NORM_MAX   =         2.00000000                                  


 PROGRAM * FCI (Full CI)     Author: P.J. Knowles, 1984

 ***  Initialisation ***
 
 Molecular orbitals read from record     2101.2  Type=RHF/CANONICAL (state 1.3)
 
 Frozen orbitals:              0 (  0  0  0  0  0  0  0  0)
 Active orbitals:             45 ( 10  8  8  3  8  3  3  2)
 Active electrons:             7
 Spin quantum number:          0.5
 Orbital pairs:                   184     134     134     119     134     119     119      92
 Strings:                       18532   18568   18568   18623   18568   18623   18623   18890
                                 1807    1774    1774    1779    1774    1779    1779    1724
 Determinants:                      264263531       264278854       264278854       264282179
                                    264278854       264282179       264282179       264292420

 Load integrals                2.5 sec
 Transform integrals           2.5 sec
 Storage for integrals:         142766
 Remaining memory:           *********

 Core energy:               0.00000000
 Run Hamiltonian processor DAVIDSON
 Symmetry:                   3
 Trial vector:                  0.00
 Result vector:                 0.00
 Maximum iterations:          100
 Convergence threshold:         0.0000100
 RHS vector:                    0.00
 Hamiltonian shift:             0.0000000
 Output threshold:              0.0500000
 Options:                        0
 Number of roots:             1

 Hamiltonian diagonaliser entered at time      2.66

 Initial configuration generated:
********      1.0000000    -14.6894698

 It  Tr    CPU  Convergence   Energy       Pop     dE(next)

  1   1 1665.3  1.00000000   -14.68946978
                                           0.00 -0.23493758 -0.23493758
  2   1 2928.8  0.26437715   -14.87735572
                                           0.00 -0.02130575 -0.02129413
  3   1 4308.0  0.06814866   -14.89610734
                                           0.02 -0.00168535 -0.00166660
  4   1 6148.2  0.01851787   -14.89765872
                                           0.05 -0.00016421 -0.00015932
  5   1 8824.7  0.00627558   -14.89781778
                                           0.09 -0.00002016 -0.00001901
  6   112492.0  0.00236600   -14.89783722
                                           0.13 -0.00000320 -0.00000294
  7   117315.2  0.00092224   -14.89784027
                                           0.17 -0.00000059 -0.00000053
  8   123345.7  0.00040437   -14.89784083
                                           0.21 -0.00000012 -0.00000011
  9   130541.9  0.00017414   -14.89784094
                                           0.24 -0.00000003 -0.00000002
 10   138413.5  0.00007623   -14.89784096
                                           0.25 -0.00000001 -0.00000001
 11   146341.2  0.00003637   -14.89784097
                                           0.26 -0.00000000 -0.00000000
 12   154502.8  0.00001580   -14.89784097
                                           0.27 -0.00000000 -0.00000000
 13   163103.9  0.00000678   -14.89784097


RESULTS FOR STATE 1.3
=====================

 Correlation energy                    -0.208371191028
 !FCI STATE 1.3 Energy                -14.897840971999
 CI Vector (threshold= 0.500E-01)
       0.955140074409  1 11 19 30  1 11 30
 /EOF
 !FCI STATE 1.3 Dipole moment           0.00000000     0.00000000     0.00000000
 Dipole moment /Debye                   0.00000000     0.00000000     0.00000000
 

 !FCI expec          <1.3|EKIN|1.3>     5.720223803719
 
 !FCI expec           <1.3|POT|1.3>    -4.708020242185


 **********************************************************************************************************************************
 DATASETS  * FILE   NREC   LENGTH (MB)   RECORD NAMES
              1      21       19.65       500      610      700      900      950      970     1000      129      960     1100   
                                          VAR    BASINP    GEOM    SYMINP    ZMAT    AOBASIS   BASIS     P2S    ABASIS      S 
                                         1400     1410     1420     1200     1210     1080     1600     1650     1300     1700   
                                         EKIN       V       ECP      H0       H01     AOSYM     SMH    MOLCAS    ERIS     OPER   
                                         1380   
                                         JKOP   

              2       6        7.77       700     1000      520     4202     5202     2101   
                                         GEOM     BASIS   MCVARS     RHF     MCSCF     RHF  

 PROGRAMS   *        TOTAL       FCI       RHF     MULTI       RHF       INT
 CPU TIMES  *     63240.14  63237.68      0.04      0.04      0.07      2.19
 REAL TIME  *     65310.39 SEC
 DISK USED  *        57.11 GB      
 **********************************************************************************************************************************
 SETTING POSTHF(I)      =       -14.89784097  AU                              
                                                                                                                                                                                                                                                                

        SCF            POSTHF       EKIN          POT
    -14.68946978   -14.89784097   5.72022380   -4.70802024
                                                  

 FCI/USERDEF energy=    -14.897840971999

        FCI             RHF-SCF         MULTI           RHF-SCF 
    -14.89784097    -14.68946978    -14.68946978    -14.69129790
 **********************************************************************************************************************************
 Variable memory released
